<event>
12    1  0.1472088E-007  0.2536095E+04  0.7818608E-02  0.8390238E-01
          2   -1    0    0  501    0  0.00000000000E+00  0.00000000000E+00  0.29146311871E+04  0.29146311871E+04  0.00000000000E+00 0. -1.
         -2   -1    0    0    0  501 -0.00000000000E+00 -0.00000000000E+00 -0.55168024910E+03  0.55168024910E+03  0.00000000000E+00 0.  1.
         23    2    1    2    0    0  0.65202985746E+02  0.82189551627E+03  0.20319541457E+04  0.21947750625E+04  0.91849092540E+02 0.  0.
        254    2    1    2    0    0 -0.65202985746E+02 -0.82189551627E+03  0.33099679225E+03  0.12715363736E+04  0.90966048832E+03 0.  0.
        -24    2    4    4    0    0  0.10927803682E+03 -0.95424896063E+03  0.14837084785E+03  0.97550175420E+03  0.84005926900E+02 0.  0.
         24    2    4    4    0    0 -0.17448102257E+03  0.13235344436E+03  0.18262594440E+03  0.29603461944E+03  0.79518544178E+02 0.  0.
         13    1    3    3    0    0  0.48620175000E+02  0.50429706012E+03  0.13617076753E+04  0.14529030384E+04  0.00000000000E+00 0. -1.
        -13    1    3    3    0    0  0.16582810746E+02  0.31759845615E+03  0.67024647045E+03  0.74187202408E+03  0.00000000000E+00 0.  1.
          4    1    6    6  502    0 -0.97600257923E+02  0.11979864252E+03  0.13101777126E+03  0.20259116833E+03  0.00000000000E+00 0. -1.
          3    1    5    5  503    0  0.14971996714E+01 -0.37072988254E+03  0.53319991802E+02  0.37454760571E+03  0.00000000000E+00 0. -1.
         -4    1    5    5    0  503  0.10778083715E+03 -0.58351907809E+03  0.95050856046E+02  0.60095414849E+03  0.00000000000E+00 0.  1.
         -1    1    6    6    0  502 -0.76880764646E+02  0.12554801840E+02  0.51608173141E+02  0.93443451117E+02  0.00000000000E+00 0.  1.
<mgrwt>
<rscale>  0 0.25360950E+04</rscale>
<asrwt>0</asrwt>
<pdfrwt beam="1">  1        2 0.44840479E+00 0.25360950E+04</pdfrwt>
<pdfrwt beam="2">  1       -2 0.84873886E-01 0.25360950E+04</pdfrwt>
<totfact> 0.21154439E+00</totfact>
</mgrwt>
</event>
<event>
12    1  0.1472088E-007  0.2163979E+04  0.7818608E-02  0.8533572E-01
         -2   -1    0    0    0  501 -0.00000000000E+00  0.00000000000E+00  0.89648433265E+03  0.89648433265E+03  0.00000000000E+00 0.  1.
          2   -1    0    0  501    0  0.00000000000E+00 -0.00000000000E+00 -0.13058805339E+04  0.13058805339E+04  0.00000000000E+00 0. -1.
         23    2    1    2    0    0  0.48589155835E+03 -0.36916430805E+02  0.59329764954E+03  0.77327884955E+03  0.92220653168E+02 0.  0.
        254    2    1    2    0    0 -0.48589155835E+03  0.36916430805E+02 -0.10026938507E+04  0.14290860170E+04  0.89411322338E+03 0.  0.
        -24    2    4    4    0    0  0.24447452679E+03 -0.52457916098E+01 -0.13018329057E+03  0.28775047014E+03  0.77828859343E+02 0.  0.
         24    2    4    4    0    0 -0.73036608514E+03  0.42162222414E+02 -0.87251056017E+03  0.11413355468E+04  0.78484912564E+02 0.  0.
         11    1    3    3    0    0  0.16099490896E+02  0.16468807378E+02  0.24467724428E+02  0.33601856530E+02  0.00000000000E+00 0. -1.
        -11    1    3    3    0    0  0.46979206745E+03 -0.53385238183E+02  0.56882992511E+03  0.73967699302E+03  0.00000000000E+00 0.  1.
          2    1    6    6  502    0 -0.70979360498E+03  0.32338182361E+02 -0.82611622568E+03  0.10896424818E+04  0.00000000000E+00 0. -1.
          3    1    5    5  503    0  0.10512342336E+03 -0.29110710770E+02 -0.88176283987E+02  0.14026198586E+03  0.00000000000E+00 0. -1.
         -4    1    5    5    0  503  0.13935110343E+03  0.23864919161E+02 -0.42007006583E+02  0.14748848428E+03  0.00000000000E+00 0.  1.
         -3    1    6    6    0  502 -0.20572480156E+02  0.98240400537E+01 -0.46394334491E+02  0.51693065063E+02  0.00000000000E+00 0.  1.
<mgrwt>
<rscale>  0 0.21639791E+04</rscale>
<asrwt>0</asrwt>
<pdfrwt beam="1">  1        2 0.20090470E+00 0.21639791E+04</pdfrwt>
<pdfrwt beam="2">  1       -2 0.13792067E+00 0.21639791E+04</pdfrwt>
<totfact> 0.56150268E+00</totfact>
</mgrwt>
</event>
<event>
12    1  0.1472088E-007  0.1937418E+04  0.7818608E-02  0.8636452E-01
         -2   -1    0    0    0  501 -0.00000000000E+00  0.00000000000E+00  0.36936608716E+03  0.36936608716E+03  0.00000000000E+00 0. -1.
          2   -1    0    0  501    0  0.00000000000E+00 -0.00000000000E+00 -0.25405621276E+04  0.25405621276E+04  0.00000000000E+00 0.  1.
         23    2    1    2    0    0  0.24083359770E+03 -0.46069614514E+02  0.22054473862E+03  0.34238666006E+03  0.92007674077E+02 0.  0.
        254    2    1    2    0    0 -0.24083359770E+03  0.46069614514E+02 -0.23917407791E+04  0.25675415547E+04  0.90095640834E+03 0.  0.
        -24    2    4    4    0    0 -0.20319119780E+03  0.35862032134E+03 -0.20636977361E+04  0.21060252149E+04  0.81232149290E+02 0.  0.
         24    2    4    4    0    0 -0.37642399902E+02 -0.31255070682E+03 -0.32804304298E+03  0.46151633982E+03  0.79247708255E+02 0.  0.
         13    1    3    3    0    0  0.11855574796E+02 -0.24874939874E+02  0.66859258089E+01  0.28355226880E+02  0.00000000000E+00 0.  1.
        -13    1    3    3    0    0  0.22897802291E+03 -0.21194674640E+02  0.21385881281E+03  0.31403143318E+03  0.00000000000E+00 0. -1.
          4    1    6    6  502    0 -0.26207388994E+02 -0.41105068488E+02 -0.79717046793E+02  0.93441219185E+02  0.00000000000E+00 0. -1.
          3    1    5    5  503    0 -0.16882544624E+02  0.22724430825E+02 -0.67287671600E+02  0.73000348072E+02  0.00000000000E+00 0. -1.
         -4    1    5    5    0  503 -0.18630865318E+03  0.33589589051E+03 -0.19964100645E+04  0.20330248668E+04  0.00000000000E+00 0.  1.
         -3    1    6    6    0  502 -0.11435010907E+02 -0.27144563834E+03 -0.24832599619E+03  0.36807512063E+03  0.00000000000E+00 0.  1.
<mgrwt>
<rscale>  0 0.19374184E+04</rscale>
<asrwt>0</asrwt>
<pdfrwt beam="1">  1        2 0.39085573E+00 0.19374184E+04</pdfrwt>
<pdfrwt beam="2">  1       -2 0.56825549E-01 0.19374184E+04</pdfrwt>
<totfact> 0.89480716E+00</totfact>
</mgrwt>
</event>
<event>
12    1  0.1472088E-007  0.1244468E+04  0.7818608E-02  0.9074800E-01
         -1   -1    0    0    0  501 -0.00000000000E+00  0.00000000000E+00  0.59546616073E+03  0.59546616073E+03  0.00000000000E+00 0.  1.
          1   -1    0    0  501    0  0.00000000000E+00 -0.00000000000E+00 -0.65020546085E+03  0.65020546085E+03  0.00000000000E+00 0. -1.
         23    2    1    2    0    0 -0.62237083273E+02 -0.26320654861E+03  0.84169823863E+02  0.29760770434E+03  0.91294275104E+02 0.  0.
        254    2    1    2    0    0  0.62237083273E+02  0.26320654861E+03 -0.13890912398E+03  0.94806391724E+03  0.89798569292E+03 0.  0.
        -24    2    4    4    0    0  0.37927510327E+03 -0.12806888449E+03 -0.15920783639E+03  0.43803841723E+03  0.79241887067E+02 0.  0.
         24    2    4    4    0    0 -0.31703802000E+03  0.39127543310E+03  0.20298712406E+02  0.51002550001E+03  0.78130674299E+02 0.  0.
         11    1    3    3    0    0  0.62701373465E+01 -0.70209219109E+02  0.57730914055E+02  0.91112608940E+02  0.00000000000E+00 0. -1.
        -11    1    3    3    0    0 -0.68507220620E+02 -0.19299732950E+03  0.26438909808E+02  0.20649509540E+03  0.00000000000E+00 0.  1.
          4    1    6    6  502    0 -0.36959168259E+02  0.72200920768E+02  0.26770604985E+02  0.85414392051E+02  0.00000000000E+00 0. -1.
          3    1    5    5  503    0  0.99516737360E+02 -0.44611409498E+02 -0.80865033511E+02  0.13576786261E+03  0.00000000000E+00 0. -1.
         -4    1    5    5    0  503  0.27975836591E+03 -0.83457474990E+02 -0.78342802880E+02  0.30227055462E+03  0.00000000000E+00 0.  1.
         -3    1    6    6    0  502 -0.28007885174E+03  0.31907451233E+03 -0.64718925792E+01  0.42461110796E+03  0.00000000000E+00 0.  1.
<mgrwt>
<rscale>  0 0.12444683E+04</rscale>
<asrwt>0</asrwt>
<pdfrwt beam="1">  1        1 0.10003161E+00 0.12444683E+04</pdfrwt>
<pdfrwt beam="2">  1       -1 0.91610179E-01 0.12444683E+04</pdfrwt>
<totfact> 0.34898779E+01</totfact>
</mgrwt>
</event>
<event>
12    1  0.1472088E-007  0.3700359E+04  0.7818608E-02  0.8067882E-01
         -2   -1    0    0    0  501 -0.00000000000E+00  0.00000000000E+00  0.11141673883E+04  0.11141673883E+04  0.00000000000E+00 0.  1.
          2   -1    0    0  501    0  0.00000000000E+00 -0.00000000000E+00 -0.30723973109E+04  0.30723973109E+04  0.00000000000E+00 0. -1.
         23    2    1    2    0    0  0.16258714941E+04 -0.59792863820E+03 -0.11079690958E+04  0.20583731421E+04  0.91256249594E+02 0.  0.
        254    2    1    2    0    0 -0.16258714941E+04  0.59792863820E+03 -0.85026082682E+03  0.21281915572E+04  0.89737342217E+03 0.  0.
        -24    2    4    4    0    0 -0.26881534789E+03 -0.13969419400E+03  0.80357416088E+02  0.32316029620E+03  0.78734386496E+02 0.  0.
         24    2    4    4    0    0 -0.13570561462E+04  0.73762283221E+03 -0.93061824291E+03  0.18050312610E+04  0.79991953488E+02 0.  0.
         13    1    3    3    0    0  0.10307299809E+04 -0.34715692650E+03 -0.73342085932E+03  0.13118034845E+04  0.00000000000E+00 0. -1.
        -13    1    3    3    0    0  0.59514151325E+03 -0.25077171171E+03 -0.37454823647E+03  0.74656965758E+03  0.00000000000E+00 0.  1.
          4    1    6    6  502    0 -0.21452383473E+03  0.14518435507E+03 -0.17502391766E+03  0.31262172729E+03  0.00000000000E+00 0. -1.
          1    1    5    5  503    0 -0.95034946231E+02 -0.43996939423E+02 -0.99276727770E+01  0.10519472596E+03  0.00000000000E+00 0. -1.
         -2    1    5    5    0  503 -0.17378040166E+03 -0.95697254582E+02  0.90285088865E+02  0.21796557023E+03  0.00000000000E+00 0.  1.
         -3    1    6    6    0  502 -0.11425323115E+04  0.59243847714E+03 -0.75559432525E+03  0.14924095337E+04  0.00000000000E+00 0.  1.
<mgrwt>
<rscale>  0 0.37003594E+04</rscale>
<asrwt>0</asrwt>
<pdfrwt beam="1">  1        2 0.47267651E+00 0.37003594E+04</pdfrwt>
<pdfrwt beam="2">  1       -2 0.17141037E+00 0.37003594E+04</pdfrwt>
<totfact> 0.26363479E-01</totfact>
</mgrwt>
</event>
<event>
12    1  0.1472088E-007  0.2005821E+04  0.7818608E-02  0.8603904E-01
         -2   -1    0    0    0  501 -0.00000000000E+00  0.00000000000E+00  0.27813704224E+03  0.27813704224E+03  0.00000000000E+00 0.  1.
          2   -1    0    0  501    0  0.00000000000E+00 -0.00000000000E+00 -0.36163071462E+04  0.36163071462E+04  0.00000000000E+00 0. -1.
         23    2    1    2    0    0 -0.48738021275E+03 -0.29962639338E+03 -0.23966267608E+04  0.24656872004E+04  0.92076556009E+02 0.  0.
        254    2    1    2    0    0  0.48738021275E+03  0.29962639338E+03 -0.94154334311E+03  0.14287569880E+04  0.90968522931E+03 0.  0.
        -24    2    4    4    0    0  0.69923051860E+03  0.12427933456E+03 -0.88379086649E+03  0.11365923259E+04  0.79919637589E+02 0.  0.
         24    2    4    4    0    0 -0.21185030585E+03  0.17534705881E+03 -0.57752476621E+02  0.29216466210E+03  0.79985611851E+02 0.  0.
         11    1    3    3    0    0 -0.75127059408E+02 -0.11093512509E+02 -0.28671816720E+03  0.29660486928E+03  0.00000000000E+00 0.  1.
        -11    1    3    3    0    0 -0.41225315334E+03 -0.28853288087E+03 -0.21099085936E+04  0.21690823311E+04  0.00000000000E+00 0. -1.
          2    1    6    6  502    0 -0.13536291544E+03  0.15632669737E+03 -0.32010811452E+02  0.20925068037E+03  0.00000000000E+00 0. -1.
          3    1    5    5  503    0  0.68231824945E+02  0.19277341098E+01 -0.12266961305E+03  0.14038209309E+03  0.00000000000E+00 0. -1.
         -4    1    5    5    0  503  0.63099869365E+03  0.12235160046E+03 -0.76112125344E+03  0.99621023281E+03  0.00000000000E+00 0.  1.
         -1    1    6    6    0  502 -0.76487390401E+02  0.19020361444E+02 -0.25741665169E+02  0.82913981725E+02  0.00000000000E+00 0.  1.
<mgrwt>
<rscale>  0 0.20058205E+04</rscale>
<asrwt>0</asrwt>
<pdfrwt beam="1">  1        2 0.55635493E+00 0.20058205E+04</pdfrwt>
<pdfrwt beam="2">  1       -2 0.42790315E-01 0.20058205E+04</pdfrwt>
<totfact> 0.32521224E+00</totfact>
</mgrwt>
</event>
<event>
12    1  0.1472088E-007  0.1514038E+04  0.7818608E-02  0.8875171E-01
         -2   -1    0    0    0  501 -0.00000000000E+00  0.00000000000E+00  0.56641552582E+03  0.56641552582E+03  0.00000000000E+00 0.  1.
          2   -1    0    0  501    0  0.00000000000E+00 -0.00000000000E+00 -0.10117622496E+04  0.10117622496E+04  0.00000000000E+00 0. -1.
         23    2    1    2    0    0  0.40811875720E+03 -0.25208835942E+03 -0.14687196443E+03  0.51029088117E+03  0.93359244532E+02 0.  0.
        254    2    1    2    0    0 -0.40811875720E+03  0.25208835942E+03 -0.29847475933E+03  0.10678868942E+04  0.90619301254E+03 0.  0.
        -24    2    4    4    0    0 -0.31403749440E+03  0.15820502912E+03  0.28815919949E+03  0.46112620903E+03  0.77157483612E+02 0.  0.
         24    2    4    4    0    0 -0.94081262805E+02  0.93883330297E+02 -0.58663395882E+03  0.60676068520E+03  0.79710499577E+02 0.  0.
         13    1    3    3    0    0  0.20081857200E+03 -0.79249311682E+02 -0.37753810508E+02  0.21916638079E+03  0.00000000000E+00 0.  1.
        -13    1    3    3    0    0  0.20730018520E+03 -0.17283904773E+03 -0.10911815392E+03  0.29112450038E+03  0.00000000000E+00 0. -1.
          2    1    6    6  502    0 -0.18721675081E+02 -0.37812084345E+01 -0.23545615917E+02  0.30318223628E+02  0.00000000000E+00 0. -1.
          3    1    5    5  503    0 -0.68420908343E+02  0.23686428740E+01  0.44268112536E+02  0.81527277368E+02  0.00000000000E+00 0. -1.
         -4    1    5    5    0  503 -0.24561658605E+03  0.15583638625E+03  0.24389108695E+03  0.37959893166E+03  0.00000000000E+00 0.  1.
         -1    1    6    6    0  502 -0.75359587724E+02  0.97664538732E+02 -0.56308834290E+03  0.57644246157E+03  0.00000000000E+00 0.  1.
<mgrwt>
<rscale>  0 0.15140381E+04</rscale>
<asrwt>0</asrwt>
<pdfrwt beam="1">  1        2 0.15565573E+00 0.15140381E+04</pdfrwt>
<pdfrwt beam="2">  1       -2 0.87140850E-01 0.15140381E+04</pdfrwt>
<totfact> 0.27203266E+01</totfact>
</mgrwt>
</event>
<event>
12    1  0.1472088E-007  0.1452047E+04  0.7818608E-02  0.8916982E-01
          2   -1    0    0  501    0  0.00000000000E+00  0.00000000000E+00  0.19490065551E+04  0.19490065551E+04  0.00000000000E+00 0.  1.
         -2   -1    0    0    0  501 -0.00000000000E+00 -0.00000000000E+00 -0.27045076392E+03  0.27045076392E+03  0.00000000000E+00 0. -1.
         23    2    1    2    0    0  0.25089887813E+03  0.23226968946E+03  0.95832328179E+02  0.36714913846E+03  0.93355230457E+02 0.  0.
        254    2    1    2    0    0 -0.25089887813E+03 -0.23226968946E+03  0.15827234630E+04  0.18523081805E+04  0.89951797077E+03 0.  0.
        -24    2    4    4    0    0  0.17498509071E+03 -0.40851441323E+03  0.10494311830E+04  0.11424987370E+04  0.80583798079E+02 0.  0.
         24    2    4    4    0    0 -0.42588396884E+03  0.17624472376E+03  0.53329228000E+03  0.70980944352E+03  0.83602826656E+02 0.  0.
         13    1    3    3    0    0  0.23473036016E+03  0.23238530644E+03  0.10733412332E+03  0.34730661765E+03  0.00000000000E+00 0. -1.
        -13    1    3    3    0    0  0.16168517973E+02 -0.11561697967E+00 -0.11501795140E+02  0.19842520812E+02  0.00000000000E+00 0.  1.
          2    1    6    6  502    0 -0.17221560098E+03  0.27697002481E+02  0.19407109628E+03  0.26093855135E+03  0.00000000000E+00 0. -1.
          3    1    5    5  503    0  0.40098445519E+02 -0.12215103481E+03  0.22132795773E+03  0.25595864024E+03  0.00000000000E+00 0. -1.
         -4    1    5    5    0  503  0.13488664519E+03 -0.28636337841E+03  0.82810322524E+03  0.88654009678E+03  0.00000000000E+00 0.  1.
         -3    1    6    6    0  502 -0.25366836786E+03  0.14854772128E+03  0.33922118372E+03  0.44887089217E+03  0.00000000000E+00 0.  1.
<mgrwt>
<rscale>  0 0.14520473E+04</rscale>
<asrwt>0</asrwt>
<pdfrwt beam="1">  1        2 0.29984715E+00 0.14520473E+04</pdfrwt>
<pdfrwt beam="2">  1       -2 0.41607811E-01 0.14520473E+04</pdfrwt>
<totfact> 0.37861263E+01</totfact>
</mgrwt>
</event>
<event>
12    1  0.1472088E-007  0.2283172E+04  0.7818608E-02  0.8484586E-01
          2   -1    0    0  501    0  0.00000000000E+00  0.00000000000E+00  0.14564736544E+04  0.14564736544E+04  0.00000000000E+00 0. -1.
         -2   -1    0    0    0  501 -0.00000000000E+00 -0.00000000000E+00 -0.89477633500E+03  0.89477633500E+03  0.00000000000E+00 0.  1.
         23    2    1    2    0    0 -0.60257150569E+03 -0.69888825638E+03  0.46010066807E+03  0.10353816494E+04  0.93730042181E+02 0.  0.
        254    2    1    2    0    0  0.60257150569E+03  0.69888825638E+03  0.10159665131E+03  0.13158683400E+04  0.93255047810E+03 0.  0.
        -24    2    4    4    0    0  0.82691455603E+03  0.56148024022E+03 -0.46929517520E+02  0.10038975606E+04  0.80994996276E+02 0.  0.
         24    2    4    4    0    0 -0.22434305034E+03  0.13740801616E+03  0.14852616883E+03  0.31197077938E+03  0.77813734141E+02 0.  0.
         11    1    3    3    0    0 -0.56770514414E+01 -0.18336003397E+02  0.23570860848E+02  0.30397753449E+02  0.00000000000E+00 0.  1.
        -11    1    3    3    0    0 -0.59689445425E+03 -0.68055225299E+03  0.43652980722E+03  0.10049838960E+04  0.00000000000E+00 0. -1.
          4    1    6    6  502    0 -0.19234828645E+03  0.11822995710E+03  0.91040917173E+02  0.24344328837E+03  0.00000000000E+00 0. -1.
          1    1    5    5  503    0  0.52685006072E+03  0.39682791064E+03 -0.10146195060E+02  0.65965621532E+03  0.00000000000E+00 0. -1.
         -2    1    5    5    0  503  0.30006449531E+03  0.16465232958E+03 -0.36783322460E+02  0.34424134527E+03  0.00000000000E+00 0.  1.
         -3    1    6    6    0  502 -0.31994763889E+02  0.19178059064E+02  0.57485251657E+02  0.68527491008E+02  0.00000000000E+00 0.  1.
<mgrwt>
<rscale>  0 0.22831716E+04</rscale>
<asrwt>0</asrwt>
<pdfrwt beam="1">  1        2 0.22407287E+00 0.22831716E+04</pdfrwt>
<pdfrwt beam="2">  1       -2 0.13765790E+00 0.22831716E+04</pdfrwt>
<totfact> 0.45778051E+00</totfact>
</mgrwt>
</event>
<event>
12    1  0.1472088E-007  0.2029579E+04  0.7818608E-02  0.8592915E-01
          2   -1    0    0  501    0  0.00000000000E+00  0.00000000000E+00  0.31033471730E+04  0.31033471730E+04  0.00000000000E+00 0.  1.
         -2   -1    0    0    0  501 -0.00000000000E+00 -0.00000000000E+00 -0.33183463445E+03  0.33183463445E+03  0.00000000000E+00 0. -1.
         23    2    1    2    0    0  0.11428313477E+03  0.68581344783E+03  0.40637404422E+03  0.81045878727E+03  0.91120041289E+02 0.  0.
        254    2    1    2    0    0 -0.11428313477E+03 -0.68581344783E+03  0.23651384943E+04  0.26247230202E+04  0.90104945213E+03 0.  0.
        -24    2    4    4    0    0 -0.45972082212E+03 -0.60803984425E+03  0.14525973532E+04  0.16425600871E+04  0.83119689305E+02 0.  0.
         24    2    4    4    0    0  0.34543768735E+03 -0.77773603580E+02  0.91254114116E+03  0.98216293310E+03  0.80850254104E+02 0.  0.
         13    1    3    3    0    0  0.73889792958E+02  0.52050670395E+03  0.34837574374E+03  0.63067629509E+03  0.00000000000E+00 0. -1.
        -13    1    3    3    0    0  0.40393341815E+02  0.16530674388E+03  0.57998300478E+02  0.17978249218E+03  0.00000000000E+00 0.  1.
          2    1    6    6  502    0  0.12717674673E+02 -0.20966603358E+02  0.84009548392E+02  0.87515381085E+02  0.00000000000E+00 0. -1.
          3    1    5    5  503    0 -0.58304573993E+02 -0.45860984906E+02  0.10997095308E+03  0.13265090956E+03  0.00000000000E+00 0. -1.
         -4    1    5    5    0  503 -0.40141624813E+03 -0.56217885934E+03  0.13426264001E+04  0.15099091775E+04  0.00000000000E+00 0.  1.
         -1    1    6    6    0  502  0.33272001268E+03 -0.56807000222E+02  0.82853159277E+03  0.89464755202E+03  0.00000000000E+00 0.  1.
<mgrwt>
<rscale>  0 0.20295793E+04</rscale>
<asrwt>0</asrwt>
<pdfrwt beam="1">  1        2 0.47743801E+00 0.20295793E+04</pdfrwt>
<pdfrwt beam="2">  1       -2 0.51051484E-01 0.20295793E+04</pdfrwt>
<totfact> 0.50468275E+00</totfact>
</mgrwt>
</event>
<event>
12    1  0.1472088E-007  0.2761131E+04  0.7818608E-02  0.8315438E-01
          2   -1    0    0  501    0  0.00000000000E+00  0.00000000000E+00  0.24505518280E+04  0.24505518280E+04  0.00000000000E+00 0. -1.
         -2   -1    0    0    0  501 -0.00000000000E+00 -0.00000000000E+00 -0.77776796919E+03  0.77776796919E+03  0.00000000000E+00 0.  1.
         23    2    1    2    0    0  0.53881145063E+03 -0.40239193471E+03  0.19553660925E+04  0.20697446167E+04  0.90272776984E+02 0.  0.
        254    2    1    2    0    0 -0.53881145063E+03  0.40239193471E+03 -0.28258223369E+03  0.11585751805E+04  0.90011481575E+03 0.  0.
        -24    2    4    4    0    0 -0.40742002677E+03  0.56242953008E+03 -0.49112663376E+03  0.85425051597E+03  0.78870267755E+02 0.  0.
         24    2    4    4    0    0 -0.13139142386E+03 -0.16003759537E+03  0.20854440006E+03  0.30432466449E+03  0.79037942927E+02 0.  0.
         13    1    3    3    0    0  0.81273236874E+02 -0.72338602268E+02  0.22896111969E+03  0.25349833676E+03  0.00000000000E+00 0.  1.
        -13    1    3    3    0    0  0.45753821376E+03 -0.33005333244E+03  0.17264049728E+04  0.18162462799E+04  0.00000000000E+00 0. -1.
          4    1    6    6  502    0 -0.13275061321E+03 -0.12708443780E+03  0.19692649058E+03  0.26935705361E+03  0.00000000000E+00 0. -1.
          1    1    5    5  503    0 -0.18902192351E+03  0.25286978095E+03 -0.27117081931E+03  0.41618028177E+03  0.00000000000E+00 0. -1.
         -2    1    5    5    0  503 -0.21839810326E+03  0.30955974913E+03 -0.21995581444E+03  0.43807023421E+03  0.00000000000E+00 0.  1.
         -3    1    6    6    0  502  0.13591893494E+01 -0.32953157574E+02  0.11617909485E+02  0.34967610879E+02  0.00000000000E+00 0.  1.
<mgrwt>
<rscale>  0 0.27611307E+04</rscale>
<asrwt>0</asrwt>
<pdfrwt beam="1">  1        2 0.37700797E+00 0.27611307E+04</pdfrwt>
<pdfrwt beam="2">  1       -2 0.11965661E+00 0.27611307E+04</pdfrwt>
<totfact> 0.17354032E+00</totfact>
</mgrwt>
</event>
<event>
12    1  0.1472088E-007  0.2164753E+04  0.7818608E-02  0.8533244E-01
          1   -1    0    0  501    0  0.00000000000E+00  0.00000000000E+00  0.61060991382E+03  0.61060991382E+03  0.00000000000E+00 0. -1.
         -1   -1    0    0    0  501 -0.00000000000E+00 -0.00000000000E+00 -0.19186369627E+04  0.19186369627E+04  0.00000000000E+00 0.  1.
         23    2    1    2    0    0  0.83134523718E+03 -0.50676680192E+02 -0.17868783492E+03  0.85678881209E+03  0.91949425617E+02 0.  0.
        254    2    1    2    0    0 -0.83134523718E+03  0.50676680192E+02 -0.11293392140E+04  0.16724580644E+04  0.90994828853E+03 0.  0.
        -24    2    4    4    0    0 -0.20084838000E+03  0.42199418439E+03 -0.28794766228E+03  0.55456847476E+03  0.78823686692E+02 0.  0.
         24    2    4    4    0    0 -0.63049685718E+03 -0.37131750419E+03 -0.84139155169E+03  0.11178895897E+04  0.79589042037E+02 0.  0.
         11    1    3    3    0    0  0.14615724906E+03  0.12606606607E+02 -0.60134269528E+02  0.15854651795E+03  0.00000000000E+00 0.  1.
        -11    1    3    3    0    0  0.68518798812E+03 -0.63283286799E+02 -0.11855356540E+03  0.69824229414E+03  0.00000000000E+00 0. -1.
          2    1    6    6  502    0 -0.49882667691E+03 -0.27234826555E+03 -0.69246253850E+03  0.89582699143E+03  0.00000000000E+00 0. -1.
          3    1    5    5  503    0 -0.19755747730E+03  0.37131585702E+03 -0.27373575133E+03  0.50183232665E+03  0.00000000000E+00 0. -1.
         -4    1    5    5    0  503 -0.32909026941E+01  0.50678327361E+02 -0.14211910952E+02  0.52736148111E+02  0.00000000000E+00 0.  1.
         -1    1    6    6    0  502 -0.13167018027E+03 -0.98969238646E+02 -0.14892901319E+03  0.22206259825E+03  0.00000000000E+00 0.  1.
<mgrwt>
<rscale>  0 0.21647529E+04</rscale>
<asrwt>0</asrwt>
<pdfrwt beam="1">  1        1 0.93939988E-01 0.21647529E+04</pdfrwt>
<pdfrwt beam="2">  1       -1 0.29517491E+00 0.21647529E+04</pdfrwt>
<totfact> 0.10840753E+00</totfact>
</mgrwt>
</event>
<event>
12    1  0.1472088E-007  0.1436935E+04  0.7818608E-02  0.8927509E-01
         -2   -1    0    0    0  501 -0.00000000000E+00  0.00000000000E+00  0.20668448596E+04  0.20668448596E+04  0.00000000000E+00 0.  1.
          2   -1    0    0  501    0  0.00000000000E+00 -0.00000000000E+00 -0.24975049147E+03  0.24975049147E+03  0.00000000000E+00 0. -1.
         23    2    1    2    0    0  0.22611977439E+03 -0.32241937289E+03  0.82182169754E+03  0.91627904433E+03  0.95351875451E+02 0.  0.
        254    2    1    2    0    0 -0.22611977439E+03  0.32241937289E+03  0.99527267064E+03  0.14003163068E+04  0.90290291046E+03 0.  0.
        -24    2    4    4    0    0  0.19518166147E+02 -0.29990289653E+03  0.31871761224E+03  0.44538566109E+03  0.80403759864E+02 0.  0.
         24    2    4    4    0    0 -0.24563794054E+03  0.62232226942E+03  0.67655505841E+03  0.95493064569E+03  0.80887490806E+02 0.  0.
         11    1    3    3    0    0  0.11701079091E+03 -0.18657603068E+03  0.56032692223E+03  0.60205348615E+03  0.00000000000E+00 0.  1.
        -11    1    3    3    0    0  0.10910898348E+03 -0.13584334222E+03  0.26149477531E+03  0.31422555818E+03  0.00000000000E+00 0. -1.
          2    1    6    6  502    0 -0.14975564398E+02  0.12228639748E+03  0.11945116415E+03  0.17160073180E+03  0.00000000000E+00 0. -1.
          1    1    5    5  503    0 -0.21116997381E+02 -0.18539756592E+03  0.22259218354E+03  0.29045733801E+03  0.00000000000E+00 0. -1.
         -2    1    5    5    0  503  0.40635163528E+02 -0.11450533060E+03  0.96125428698E+02  0.15492832308E+03  0.00000000000E+00 0.  1.
         -1    1    6    6    0  502 -0.23066237614E+03  0.50003587194E+03  0.55710389426E+03  0.78332991389E+03  0.00000000000E+00 0.  1.
<mgrwt>
<rscale>  0 0.14369350E+04</rscale>
<asrwt>0</asrwt>
<pdfrwt beam="1">  1        2 0.38423154E-01 0.14369350E+04</pdfrwt>
<pdfrwt beam="2">  1       -2 0.31797612E+00 0.14369350E+04</pdfrwt>
<totfact> 0.32420710E+00</totfact>
</mgrwt>
</event>
<event>
12    1  0.1472088E-007  0.1280047E+04  0.7818608E-02  0.9045540E-01
         -1   -1    0    0    0  501 -0.00000000000E+00  0.00000000000E+00  0.83615325456E+03  0.83615325456E+03  0.00000000000E+00 0.  1.
          1   -1    0    0  501    0  0.00000000000E+00 -0.00000000000E+00 -0.48989817566E+03  0.48989817566E+03  0.00000000000E+00 0. -1.
         23    2    1    2    0    0  0.23049334623E+03 -0.57755822326E+02  0.30162677292E+03  0.39462771226E+03  0.91046161196E+02 0.  0.
        254    2    1    2    0    0 -0.23049334623E+03  0.57755822326E+02  0.44628305979E+02  0.93142371796E+03  0.89949738133E+03 0.  0.
        -24    2    4    4    0    0  0.77907877280E+02 -0.57473967867E+02  0.41270737858E+03  0.43137272929E+03  0.79888402860E+02 0.  0.
         24    2    4    4    0    0 -0.30840122351E+03  0.11522979019E+03 -0.36807907260E+03  0.50005098867E+03  0.78610230725E+02 0.  0.
         11    1    3    3    0    0  0.78663350255E+02 -0.23003223601E+02  0.42574815098E+02  0.92356298377E+02  0.00000000000E+00 0. -1.
        -11    1    3    3    0    0  0.15182999598E+03 -0.34752598725E+02  0.25905195782E+03  0.30227141388E+03  0.00000000000E+00 0.  1.
          4    1    6    6  502    0 -0.20045446256E+03  0.49634014020E+02 -0.18268640352E+03  0.27571697252E+03  0.00000000000E+00 0. -1.
          3    1    5    5  503    0  0.80829242483E+02 -0.14144507881E+02  0.27460564559E+03  0.28660372316E+03  0.00000000000E+00 0. -1.
         -4    1    5    5    0  503 -0.29213652032E+01 -0.43329459986E+02  0.13810173300E+03  0.14476900612E+03  0.00000000000E+00 0.  1.
         -3    1    6    6    0  502 -0.10794676095E+03  0.65595776173E+02 -0.18539266908E+03  0.22433401615E+03  0.00000000000E+00 0.  1.
<mgrwt>
<rscale>  0 0.12800468E+04</rscale>
<asrwt>0</asrwt>
<pdfrwt beam="1">  1        1 0.75368950E-01 0.12800468E+04</pdfrwt>
<pdfrwt beam="2">  1       -1 0.12863896E+00 0.12800468E+04</pdfrwt>
<totfact> 0.23369594E+01</totfact>
</mgrwt>
</event>
<event>
12    1  0.1472088E-007  0.3055144E+04  0.7818608E-02  0.8228157E-01
          2   -1    0    0  501    0  0.00000000000E+00  0.00000000000E+00  0.22927689491E+04  0.22927689491E+04  0.00000000000E+00 0. -1.
         -2   -1    0    0    0  501 -0.00000000000E+00 -0.00000000000E+00 -0.10177543909E+04  0.10177543909E+04  0.00000000000E+00 0.  1.
         23    2    1    2    0    0  0.10207472953E+04 -0.23129355890E+03 -0.41772022508E+03  0.11303185772E+04  0.87796060414E+02 0.  0.
        254    2    1    2    0    0 -0.10207472953E+04  0.23129355890E+03  0.16927347833E+04  0.21802047628E+04  0.89023592943E+03 0.  0.
        -24    2    4    4    0    0 -0.64154578440E+02 -0.19305759239E+03  0.70677819068E+03  0.73982832576E+03  0.80146720798E+02 0.  0.
         24    2    4    4    0    0 -0.95659271684E+03  0.42435115128E+03  0.98595659264E+03  0.14403764371E+04  0.86199492135E+02 0.  0.
         13    1    3    3    0    0  0.36325704095E+03 -0.12307105725E+03 -0.13719114011E+03  0.40733717221E+03  0.00000000000E+00 0. -1.
        -13    1    3    3    0    0  0.65749025432E+03 -0.10822250164E+03 -0.28052908497E+03  0.72298140495E+03  0.00000000000E+00 0.  1.
          2    1    6    6  502    0 -0.84988762395E+03  0.36165880996E+03  0.83451072702E+03  0.12447948512E+04  0.00000000000E+00 0. -1.
          3    1    5    5  503    0 -0.32259597300E+02 -0.18140946811E+03  0.57866829201E+03  0.60729487806E+03  0.00000000000E+00 0. -1.
         -4    1    5    5    0  503 -0.31894981139E+02 -0.11648124277E+02  0.12810989867E+03  0.13253344770E+03  0.00000000000E+00 0.  1.
         -1    1    6    6    0  502 -0.10670509289E+03  0.62692341327E+02  0.15144586562E+03  0.19558158585E+03  0.00000000000E+00 0.  1.
<mgrwt>
<rscale>  0 0.30551436E+04</rscale>
<asrwt>0</asrwt>
<pdfrwt beam="1">  1        2 0.35273368E+00 0.30551436E+04</pdfrwt>
<pdfrwt beam="2">  1       -2 0.15657760E+00 0.30551436E+04</pdfrwt>
<totfact> 0.10417112E+00</totfact>
</mgrwt>
</event>
<event>
12    1  0.1472088E-007  0.1539360E+04  0.7818608E-02  0.8858693E-01
         -2   -1    0    0    0  501 -0.00000000000E+00  0.00000000000E+00  0.69571264538E+03  0.69571264538E+03  0.00000000000E+00 0.  1.
          2   -1    0    0  501    0  0.00000000000E+00 -0.00000000000E+00 -0.85151094977E+03  0.85151094977E+03  0.00000000000E+00 0. -1.
         23    2    1    2    0    0  0.44585462779E+03 -0.17960324088E+03 -0.80582529330E+02  0.49584793067E+03  0.91257619153E+02 0.  0.
        254    2    1    2    0    0 -0.44585462779E+03  0.17960324088E+03 -0.75215775060E+02  0.10513756645E+04  0.93203524708E+03 0.  0.
        -24    2    4    4    0    0 -0.41217294688E+03  0.36308551789E+03  0.29565460961E+03  0.62877776233E+03  0.78944251030E+02 0.  0.
         24    2    4    4    0    0 -0.33681680910E+02 -0.18348227701E+03 -0.37087038467E+03  0.42259790216E+03  0.79018624867E+02 0.  0.
         11    1    3    3    0    0  0.53976869534E+02 -0.91612630519E+01  0.17347736719E+02  0.57431482260E+02  0.00000000000E+00 0. -1.
        -11    1    3    3    0    0  0.39187775826E+03 -0.17044197783E+03 -0.97930266048E+02  0.43841644841E+03  0.00000000000E+00 0.  1.
          2    1    6    6  502    0 -0.26747951073E+02 -0.15537798418E+02 -0.33034536644E+02  0.45256565022E+02  0.00000000000E+00 0. -1.
          3    1    5    5  503    0 -0.18664149566E+03  0.20767504546E+03  0.17468184530E+03  0.32935955958E+03  0.00000000000E+00 0. -1.
         -4    1    5    5    0  503 -0.22553145123E+03  0.15541047243E+03  0.12097276431E+03  0.29941820275E+03  0.00000000000E+00 0.  1.
         -1    1    6    6    0  502 -0.69337298372E+01 -0.16794447859E+03 -0.33783584803E+03  0.37734133714E+03  0.00000000000E+00 0.  1.
<mgrwt>
<rscale>  0 0.15393595E+04</rscale>
<asrwt>0</asrwt>
<pdfrwt beam="1">  1        2 0.13100168E+00 0.15393595E+04</pdfrwt>
<pdfrwt beam="2">  1       -2 0.10703272E+00 0.15393595E+04</pdfrwt>
<totfact> 0.21412547E+01</totfact>
</mgrwt>
</event>
<event>
12    1  0.1472088E-007  0.2774304E+04  0.7818608E-02  0.8311290E-01
          2   -1    0    0  501    0  0.00000000000E+00  0.00000000000E+00  0.14512999233E+04  0.14512999233E+04  0.00000000000E+00 0. -1.
         -2   -1    0    0    0  501 -0.00000000000E+00 -0.00000000000E+00 -0.13258399025E+04  0.13258399025E+04  0.00000000000E+00 0.  1.
         23    2    1    2    0    0  0.72053331410E+03  0.99903666022E+03  0.18716000795E+03  0.12493910709E+04  0.93309561464E+02 0.  0.
        254    2    1    2    0    0 -0.72053331410E+03 -0.99903666022E+03 -0.61699987055E+02  0.15277487549E+04  0.90164675150E+03 0.  0.
        -24    2    4    4    0    0 -0.38993648644E+02 -0.62967790252E+03  0.25699036407E+03  0.68596634246E+03  0.80566805866E+02 0.  0.
         24    2    4    4    0    0 -0.68153966546E+03 -0.36935875771E+03 -0.31869035113E+03  0.84178241244E+03  0.78178529697E+02 0.  0.
         11    1    3    3    0    0  0.11476075255E+01  0.55830868884E+01 -0.53401608395E+01  0.78105812862E+01  0.00000000000E+00 0. -1.
        -11    1    3    3    0    0  0.71938570657E+03  0.99345357334E+03  0.19250016879E+03  0.12415804896E+04  0.00000000000E+00 0.  1.
          2    1    6    6  502    0 -0.35401471430E+03 -0.15105915211E+03 -0.14078644335E+03  0.40983668456E+03  0.00000000000E+00 0. -1.
          1    1    5    5  503    0  0.23540825884E+01 -0.27856035309E+02 -0.48092407626E+01  0.28365986757E+02  0.00000000000E+00 0. -1.
         -2    1    5    5    0  503 -0.41347731233E+02 -0.60182186721E+03  0.26179960484E+03  0.65760035570E+03  0.00000000000E+00 0.  1.
         -1    1    6    6    0  502 -0.32752495116E+03 -0.21829960560E+03 -0.17790390778E+03  0.43194572788E+03  0.00000000000E+00 0.  1.
<mgrwt>
<rscale>  0 0.27743045E+04</rscale>
<asrwt>0</asrwt>
<pdfrwt beam="1">  1        2 0.22327691E+00 0.27743045E+04</pdfrwt>
<pdfrwt beam="2">  1       -2 0.20397537E+00 0.27743045E+04</pdfrwt>
<totfact> 0.14777245E+00</totfact>
</mgrwt>
</event>
<event>
12    1  0.1472088E-007  0.2025544E+04  0.7818608E-02  0.8594770E-01
          1   -1    0    0  501    0  0.00000000000E+00  0.00000000000E+00  0.16477746449E+04  0.16477746449E+04  0.00000000000E+00 0. -1.
         -1   -1    0    0    0  501 -0.00000000000E+00 -0.00000000000E+00 -0.62248024624E+03  0.62248024624E+03  0.00000000000E+00 0.  1.
         23    2    1    2    0    0  0.15749137893E+03 -0.29814707567E+03  0.12257614631E+04  0.12746057480E+04  0.91833737504E+02 0.  0.
        254    2    1    2    0    0 -0.15749137893E+03  0.29814707567E+03 -0.20046706440E+03  0.99564914314E+03  0.91511472459E+03 0.  0.
        -24    2    4    4    0    0  0.62586213045E+02  0.55429518689E+03 -0.29565172973E+03  0.63634877526E+03  0.79809963044E+02 0.  0.
         24    2    4    4    0    0 -0.22007759197E+03 -0.25614811122E+03  0.95184665332E+02  0.35930036788E+03  0.77399176183E+02 0.  0.
         11    1    3    3    0    0  0.97301925851E+02 -0.11534525889E+03  0.65907973464E+03  0.67613481654E+03  0.00000000000E+00 0. -1.
        -11    1    3    3    0    0  0.60189453078E+02 -0.18280181678E+03  0.56668172847E+03  0.59847093151E+03  0.00000000000E+00 0.  1.
          4    1    6    6  502    0 -0.22739787341E+02 -0.13328202088E+02  0.29545557424E+02  0.39593924567E+02  0.00000000000E+00 0. -1.
          3    1    5    5  503    0  0.53903111004E+02  0.15575601920E+03 -0.90132898215E+02  0.18785479029E+03  0.00000000000E+00 0. -1.
         -4    1    5    5    0  503  0.86831020406E+01  0.39853916769E+03 -0.20551883152E+03  0.44849398497E+03  0.00000000000E+00 0.  1.
         -3    1    6    6    0  502 -0.19733780463E+03 -0.24281990914E+03  0.65639107908E+02  0.31970644331E+03  0.00000000000E+00 0.  1.
<mgrwt>
<rscale>  0 0.20255440E+04</rscale>
<asrwt>0</asrwt>
<pdfrwt beam="1">  1        1 0.25350379E+00 0.20255440E+04</pdfrwt>
<pdfrwt beam="2">  1       -1 0.95766193E-01 0.20255440E+04</pdfrwt>
<totfact> 0.50360786E+00</totfact>
</mgrwt>
</event>
<event>
12    1  0.1472088E-007  0.1838463E+04  0.7818608E-02  0.8686108E-01
         -2   -1    0    0    0  501 -0.00000000000E+00  0.00000000000E+00  0.75955313480E+03  0.75955313480E+03  0.00000000000E+00 0.  1.
          2   -1    0    0  501    0  0.00000000000E+00 -0.00000000000E+00 -0.11124790971E+04  0.11124790971E+04  0.00000000000E+00 0. -1.
         23    2    1    2    0    0 -0.82632617900E+02 -0.19143593506E+03 -0.81666093411E+03  0.84833174767E+03  0.96207099753E+02 0.  0.
        254    2    1    2    0    0  0.82632617900E+02  0.19143593506E+03  0.46373497181E+03  0.10237004842E+04  0.88850249891E+03 0.  0.
        -24    2    4    4    0    0  0.39889472350E+03 -0.14008139503E+03  0.12534113945E+03  0.44829553213E+03  0.80738375123E+02 0.  0.
         24    2    4    4    0    0 -0.31626210560E+03  0.33151733009E+03  0.33839383236E+03  0.57540495210E+03  0.81578266308E+02 0.  0.
         13    1    3    3    0    0 -0.90279337935E+02 -0.16133920815E+03 -0.77269652506E+03  0.79450652532E+03  0.00000000000E+00 0. -1.
        -13    1    3    3    0    0  0.76467200347E+01 -0.30096726915E+02 -0.43964409050E+02  0.53825222353E+02  0.00000000000E+00 0.  1.
          2    1    6    6  502    0 -0.14619255389E+03  0.12326854961E+03  0.98656162251E+02  0.21517536217E+03  0.00000000000E+00 0. -1.
          3    1    5    5  503    0  0.14721906652E+03 -0.78145562303E+02  0.81117377251E+02  0.18536507585E+03  0.00000000000E+00 0. -1.
         -4    1    5    5    0  503  0.25167565699E+03 -0.61935832723E+02  0.44223762195E+02  0.26293045628E+03  0.00000000000E+00 0.  1.
         -1    1    6    6    0  502 -0.17006955171E+03  0.20824878048E+03  0.23973767011E+03  0.36022958993E+03  0.00000000000E+00 0.  1.
<mgrwt>
<rscale>  0 0.18384635E+04</rscale>
<asrwt>0</asrwt>
<pdfrwt beam="1">  1        2 0.17115063E+00 0.18384635E+04</pdfrwt>
<pdfrwt beam="2">  1       -2 0.11685433E+00 0.18384635E+04</pdfrwt>
<totfact> 0.11423635E+01</totfact>
</mgrwt>
</event>
<event>
12    1  0.1472088E-007  0.1353629E+04  0.7818608E-02  0.8988085E-01
          1   -1    0    0  501    0  0.00000000000E+00  0.00000000000E+00  0.88813555508E+03  0.88813555508E+03  0.00000000000E+00 0. -1.
         -1   -1    0    0    0  501 -0.00000000000E+00 -0.00000000000E+00 -0.51577497025E+03  0.51577497025E+03  0.00000000000E+00 0.  1.
         23    2    1    2    0    0 -0.21421829174E+03  0.29102787437E+03 -0.47037572220E+01  0.37367656947E+03  0.95001858173E+02 0.  0.
        254    2    1    2    0    0  0.21421829174E+03 -0.29102787437E+03  0.37706434206E+03  0.10302339559E+04  0.88804154496E+03 0.  0.
        -24    2    4    4    0    0  0.21304371082E+02 -0.58690708051E+03  0.18975596497E+03  0.62228309804E+03  0.79467795242E+02 0.  0.
         24    2    4    4    0    0  0.19291392066E+03  0.29587920614E+03  0.18730837709E+03  0.40795085783E+03  0.81112199231E+02 0.  0.
         11    1    3    3    0    0  0.53564437051E+01 -0.10844868477E+01 -0.61651184798E+01  0.82387066192E+01  0.00000000000E+00 0. -1.
        -11    1    3    3    0    0 -0.21957473545E+03  0.29211236122E+03  0.14613612577E+01  0.36543786285E+03  0.00000000000E+00 0.  1.
          4    1    6    6  502    0  0.16175198037E+03  0.22033528885E+03  0.10746241991E+03  0.29369970099E+03  0.00000000000E+00 0. -1.
          1    1    5    5  503    0  0.73046355010E+01 -0.55716722273E+03  0.19192367978E+03  0.58934147202E+03  0.00000000000E+00 0. -1.
         -2    1    5    5    0  503  0.13999735581E+02 -0.29739857785E+02 -0.21677148068E+01  0.32941626021E+02  0.00000000000E+00 0.  1.
         -3    1    6    6    0  502  0.31161940297E+02  0.75543917282E+02  0.79845957179E+02  0.11425115684E+03  0.00000000000E+00 0.  1.
<mgrwt>
<rscale>  0 0.13536293E+04</rscale>
<asrwt>0</asrwt>
<pdfrwt beam="1">  1        1 0.13663624E+00 0.13536293E+04</pdfrwt>
<pdfrwt beam="2">  1       -1 0.79349995E-01 0.13536293E+04</pdfrwt>
<totfact> 0.28916145E+01</totfact>
</mgrwt>
</event>
<event>
12    1  0.1472088E-007  0.1211601E+04  0.7818608E-02  0.9102762E-01
          2   -1    0    0  501    0  0.00000000000E+00  0.00000000000E+00  0.17108918767E+04  0.17108918767E+04  0.00000000000E+00 0. -1.
         -2   -1    0    0    0  501 -0.00000000000E+00 -0.00000000000E+00 -0.21450469923E+03  0.21450469923E+03  0.00000000000E+00 0.  1.
         23    2    1    2    0    0 -0.19211294484E+02 -0.19299788904E+03  0.61892444163E+03  0.65533208138E+03  0.93677176692E+02 0.  0.
        254    2    1    2    0    0  0.19211294484E+02  0.19299788904E+03  0.87746273582E+03  0.12700644945E+04  0.89749969833E+03 0.  0.
        -24    2    4    4    0    0 -0.40989243090E+03  0.71804580537E+02  0.61285019021E+03  0.74502811272E+03  0.79459614903E+02 0.  0.
         24    2    4    4    0    0  0.42910372539E+03  0.12119330850E+03  0.26461254561E+03  0.52503638181E+03  0.82617054927E+02 0.  0.
         13    1    3    3    0    0  0.55412468401E+01 -0.43906612566E+02  0.50443670671E+02  0.67104843002E+02  0.00000000000E+00 0.  1.
        -13    1    3    3    0    0 -0.24752541324E+02 -0.14909127647E+03  0.56848077096E+03  0.58822723838E+03  0.00000000000E+00 0. -1.
          2    1    6    6  502    0  0.52706425667E+02 -0.73326705871E+01  0.50353391845E+02  0.73261172765E+02  0.00000000000E+00 0. -1.
          3    1    5    5  503    0 -0.21201842345E+03  0.58969112476E+02  0.26333682932E+03  0.34318428546E+03  0.00000000000E+00 0. -1.
         -4    1    5    5    0  503 -0.19787400745E+03  0.12835468060E+02  0.34951336089E+03  0.40184382726E+03  0.00000000000E+00 0.  1.
         -1    1    6    6    0  502  0.37639729972E+03  0.12852597909E+03  0.21425915376E+03  0.45177520904E+03  0.00000000000E+00 0.  1.
<mgrwt>
<rscale>  0 0.12116012E+04</rscale>
<asrwt>0</asrwt>
<pdfrwt beam="1">  1        2 0.26321413E+00 0.12116012E+04</pdfrwt>
<pdfrwt beam="2">  1       -2 0.33000724E-01 0.12116012E+04</pdfrwt>
<totfact> 0.81708111E+01</totfact>
</mgrwt>
</event>
<event>
12    1  0.1472088E-007  0.2909971E+04  0.7818608E-02  0.8269917E-01
         -1   -1    0    0    0  501 -0.00000000000E+00  0.00000000000E+00  0.65793599973E+03  0.65793599973E+03  0.00000000000E+00 0.  1.
          1   -1    0    0  501    0  0.00000000000E+00 -0.00000000000E+00 -0.32176110105E+04  0.32176110105E+04  0.00000000000E+00 0. -1.
         23    2    1    2    0    0  0.28939799141E+03  0.84617436360E+03  0.12234057282E+03  0.90708091888E+03  0.89812730778E+02 0.  0.
        254    2    1    2    0    0 -0.28939799141E+03 -0.84617436360E+03 -0.26820155836E+04  0.29684660913E+04  0.90488733761E+03 0.  0.
        -24    2    4    4    0    0 -0.57533656448E+03 -0.74489236734E+03 -0.18082804051E+04  0.20401159928E+04  0.79488610816E+02 0.  0.
         24    2    4    4    0    0  0.28593857308E+03 -0.10128199626E+03 -0.87373517850E+03  0.92835009855E+03  0.80011455366E+02 0.  0.
         13    1    3    3    0    0  0.24561364323E+03  0.74536981878E+03  0.13545537411E+03  0.79639838452E+03  0.00000000000E+00 0.  1.
        -13    1    3    3    0    0  0.43784348176E+02  0.10080454482E+03 -0.13114801291E+02  0.11068253437E+03  0.00000000000E+00 0. -1.
          4    1    6    6  502    0  0.20313239681E+03 -0.77555965852E+02 -0.50743072518E+03  0.55205401849E+03  0.00000000000E+00 0. -1.
          3    1    5    5  503    0 -0.53986577105E+03 -0.72482561701E+03 -0.17330740719E+04  0.19545774389E+04  0.00000000000E+00 0. -1.
         -2    1    5    5    0  503 -0.35470793431E+02 -0.20066750328E+02 -0.75206333114E+02  0.85538553856E+02  0.00000000000E+00 0.  1.
         -3    1    6    6    0  502  0.82806176262E+02 -0.23726030408E+02 -0.36630445332E+03  0.37629608006E+03  0.00000000000E+00 0.  1.
<mgrwt>
<rscale>  0 0.29099705E+04</rscale>
<asrwt>0</asrwt>
<pdfrwt beam="1">  1        1 0.49501707E+00 0.29099705E+04</pdfrwt>
<pdfrwt beam="2">  1       -1 0.10122093E+00 0.29099705E+04</pdfrwt>
<totfact> 0.32752647E-01</totfact>
</mgrwt>
</event>
<event>
12    1  0.1472088E-007  0.1711194E+04  0.7818608E-02  0.8755005E-01
          2   -1    0    0  501    0  0.00000000000E+00  0.00000000000E+00  0.21174032075E+04  0.21174032075E+04  0.00000000000E+00 0. -1.
         -2   -1    0    0    0  501 -0.00000000000E+00 -0.00000000000E+00 -0.34572842433E+03  0.34572842433E+03  0.00000000000E+00 0.  1.
         23    2    1    2    0    0 -0.25903247673E+03 -0.53191601715E+03  0.41135355385E+03  0.72628039529E+03  0.90768898931E+02 0.  0.
        254    2    1    2    0    0  0.25903247673E+03  0.53191601715E+03  0.13603212293E+04  0.17368512366E+04  0.90340793535E+03 0.  0.
        -24    2    4    4    0    0  0.41284049032E+03  0.44173584681E+03  0.34104913736E+03  0.69909038822E+03  0.82734684388E+02 0.  0.
         24    2    4    4    0    0 -0.15380801359E+03  0.90180170339E+02  0.10192720920E+04  0.10377608483E+04  0.79010206196E+02 0.  0.
         13    1    3    3    0    0 -0.23908826029E+03 -0.43835218603E+03  0.37281923037E+03  0.62314525894E+03  0.00000000000E+00 0. -1.
        -13    1    3    3    0    0 -0.19944216438E+02 -0.93563831121E+02  0.38534323478E+02  0.10313513635E+03  0.00000000000E+00 0.  1.
          4    1    6    6  502    0 -0.25838978010E+02  0.88024752005E+01  0.52558685578E+02  0.59224587664E+02  0.00000000000E+00 0. -1.
          3    1    5    5  503    0  0.18127556098E+03  0.21502341481E+03  0.20296260627E+03  0.34682808056E+03  0.00000000000E+00 0. -1.
         -4    1    5    5    0  503  0.23156492934E+03  0.22671243200E+03  0.13808653109E+03  0.35226230765E+03  0.00000000000E+00 0.  1.
         -3    1    6    6    0  502 -0.12796903558E+03  0.81377695139E+02  0.96671340641E+03  0.97853626068E+03  0.00000000000E+00 0.  1.
<mgrwt>
<rscale>  0 0.17111943E+04</rscale>
<asrwt>0</asrwt>
<pdfrwt beam="1">  1        2 0.32575433E+00 0.17111943E+04</pdfrwt>
<pdfrwt beam="2">  1       -2 0.53188990E-01 0.17111943E+04</pdfrwt>
<totfact> 0.18209627E+01</totfact>
</mgrwt>
</event>
<event>
12    1  0.1472088E-007  0.2946885E+04  0.7818608E-02  0.8259063E-01
          2   -1    0    0  501    0  0.00000000000E+00  0.00000000000E+00  0.97032460244E+03  0.97032460244E+03  0.00000000000E+00 0. -1.
         -2   -1    0    0    0  501 -0.00000000000E+00 -0.00000000000E+00 -0.22374289480E+04  0.22374289480E+04  0.00000000000E+00 0.  1.
         23    2    1    2    0    0 -0.12884447198E+03  0.99880994350E+03 -0.15227360053E+04  0.18279102556E+04  0.91152397657E+02 0.  0.
        254    2    1    2    0    0  0.12884447198E+03 -0.99880994350E+03  0.25563165979E+03  0.13798432948E+04  0.90796352979E+03 0.  0.
        -24    2    4    4    0    0  0.14829739083E+03 -0.11407197172E+04  0.10812732738E+03  0.11582720702E+04  0.81664438407E+02 0.  0.
         24    2    4    4    0    0 -0.19452918846E+02  0.14190977367E+03  0.14750433241E+03  0.22157122453E+03  0.82580140141E+02 0.  0.
         11    1    3    3    0    0 -0.92300360556E+02  0.38638224614E+03 -0.62469650220E+03  0.74030825779E+03  0.00000000000E+00 0.  1.
        -11    1    3    3    0    0 -0.36544111423E+02  0.61242769736E+03 -0.89803950311E+03  0.10876019978E+04  0.00000000000E+00 0. -1.
          4    1    6    6  502    0  0.22163060983E+01  0.38179646569E+01  0.52211637386E+02  0.52397938369E+02  0.00000000000E+00 0. -1.
          3    1    5    5  503    0  0.23115265438E+02 -0.14725709882E+03  0.41549204432E+02  0.15474270593E+03  0.00000000000E+00 0. -1.
         -4    1    5    5    0  503  0.12518212539E+03 -0.99346261835E+03  0.66578122947E+02  0.10035293643E+04  0.00000000000E+00 0.  1.
         -3    1    6    6    0  502 -0.21669224945E+02  0.13809180901E+03  0.95292695028E+02  0.16917328616E+03  0.00000000000E+00 0.  1.
<mgrwt>
<rscale>  0 0.29468847E+04</rscale>
<asrwt>0</asrwt>
<pdfrwt beam="1">  1        2 0.14928071E+00 0.29468847E+04</pdfrwt>
<pdfrwt beam="2">  1       -2 0.34421984E+00 0.29468847E+04</pdfrwt>
<totfact> 0.38288796E-01</totfact>
</mgrwt>
</event>
<event>
12    1  0.1472088E-007  0.1669462E+04  0.7818608E-02  0.8778975E-01
          1   -1    0    0  501    0  0.00000000000E+00  0.00000000000E+00  0.15930503577E+04  0.15930503577E+04  0.00000000000E+00 0. -1.
         -1   -1    0    0    0  501 -0.00000000000E+00 -0.00000000000E+00 -0.43738485989E+03  0.43738485989E+03  0.00000000000E+00 0.  1.
         23    2    1    2    0    0  0.17223709854E+03 -0.42420348284E+03  0.85314169384E+03  0.97231136892E+03  0.89019297852E+02 0.  0.
        254    2    1    2    0    0 -0.17223709854E+03  0.42420348284E+03  0.30252380395E+03  0.10581238487E+04  0.90470504263E+03 0.  0.
        -24    2    4    4    0    0 -0.39771830026E+03  0.57114671006E+03  0.33369898052E+03  0.77548924017E+03  0.75100873746E+02 0.  0.
         24    2    4    4    0    0  0.22548120173E+03 -0.14694322722E+03 -0.31175176571E+02  0.28263460848E+03  0.80475747417E+02 0.  0.
         11    1    3    3    0    0  0.91814893823E+02 -0.32310893848E+03  0.64795920253E+03  0.72984963451E+03  0.00000000000E+00 0. -1.
        -11    1    3    3    0    0  0.80422204715E+02 -0.10109454437E+03  0.20518249131E+03  0.24246173441E+03  0.00000000000E+00 0.  1.
          4    1    6    6  502    0 -0.61431549386E+01 -0.74801131654E+01  0.29520209107E+01  0.10119529289E+02  0.00000000000E+00 0. -1.
          1    1    5    5  503    0 -0.18916817595E+03  0.24710934344E+03  0.18759902723E+03  0.36337449198E+03  0.00000000000E+00 0. -1.
         -2    1    5    5    0  503 -0.20855012432E+03  0.32403736663E+03  0.14609995329E+03  0.41211474819E+03  0.00000000000E+00 0.  1.
         -3    1    6    6    0  502  0.23162435666E+03 -0.13946311405E+03 -0.34127197482E+02  0.27251507920E+03  0.00000000000E+00 0.  1.
<mgrwt>
<rscale>  0 0.16694623E+04</rscale>
<asrwt>0</asrwt>
<pdfrwt beam="1">  1        1 0.24508467E+00 0.16694623E+04</pdfrwt>
<pdfrwt beam="2">  1       -1 0.67289979E-01 0.16694623E+04</pdfrwt>
<totfact> 0.12039875E+01</totfact>
</mgrwt>
</event>
<event>
12    1  0.1472088E-007  0.1789566E+04  0.7818608E-02  0.8711868E-01
         -1   -1    0    0    0  501 -0.00000000000E+00  0.00000000000E+00  0.39885203695E+03  0.39885203695E+03  0.00000000000E+00 0.  1.
          1   -1    0    0  501    0  0.00000000000E+00 -0.00000000000E+00 -0.20073521140E+04  0.20073521140E+04  0.00000000000E+00 0. -1.
         23    2    1    2    0    0  0.59837137798E+03  0.16681007242E+03 -0.29070237929E+03  0.69361057642E+03  0.10350773955E+03 0.  0.
        254    2    1    2    0    0 -0.59837137798E+03 -0.16681007242E+03 -0.13177976978E+04  0.17125935745E+04  0.90028444007E+03 0.  0.
        -24    2    4    4    0    0 -0.74256836970E+03  0.93649649447E+02 -0.72535681615E+03  0.10448625867E+04  0.73602131547E+02 0.  0.
         24    2    4    4    0    0  0.14419699171E+03 -0.26045972187E+03 -0.59244088163E+03  0.66773098788E+03  0.79034390016E+02 0.  0.
         11    1    3    3    0    0  0.41714982046E+02  0.24921799598E+02  0.24986083263E+01  0.48656745328E+02  0.00000000000E+00 0. -1.
        -11    1    3    3    0    0  0.55665639594E+03  0.14188827282E+03 -0.29320098761E+03  0.64495383109E+03  0.00000000000E+00 0.  1.
          4    1    6    6  502    0  0.14856733438E+03 -0.21924851916E+03 -0.53422916896E+03  0.59627424141E+03  0.00000000000E+00 0. -1.
          1    1    5    5  503    0 -0.72610284070E+03  0.10065794720E+03 -0.71586000233E+03  0.10246037773E+04  0.00000000000E+00 0. -1.
         -2    1    5    5    0  503 -0.16465528994E+02 -0.70082977555E+01 -0.94968138171E+01  0.20258809322E+02  0.00000000000E+00 0.  1.
         -3    1    6    6    0  502 -0.43703426683E+01 -0.41211202702E+02 -0.58211712677E+02  0.71456746469E+02  0.00000000000E+00 0.  1.
<mgrwt>
<rscale>  0 0.17895658E+04</rscale>
<asrwt>0</asrwt>
<pdfrwt beam="1">  1        1 0.30882339E+00 0.17895658E+04</pdfrwt>
<pdfrwt beam="2">  1       -1 0.61361854E-01 0.17895658E+04</pdfrwt>
<totfact> 0.74955189E+00</totfact>
</mgrwt>
</event>
<event>
12    1  0.1472088E-007  0.2261075E+04  0.7818608E-02  0.8493429E-01
          2   -1    0    0  501    0  0.00000000000E+00  0.00000000000E+00  0.80016018041E+03  0.80016018041E+03  0.00000000000E+00 0. -1.
         -2   -1    0    0    0  501 -0.00000000000E+00 -0.00000000000E+00 -0.15973238455E+04  0.15973238455E+04  0.00000000000E+00 0.  1.
         23    2    1    2    0    0 -0.40554882368E+03  0.52336765372E+03  0.38555277663E+03  0.77173290640E+03  0.92396893431E+02 0.  0.
        254    2    1    2    0    0  0.40554882368E+03 -0.52336765372E+03 -0.11827164417E+04  0.16257511195E+04  0.89769982272E+03 0.  0.
        -24    2    4    4    0    0  0.42232125636E+03 -0.75220793346E+03 -0.85322514274E+03  0.12158709694E+04  0.78594218850E+02 0.  0.
         24    2    4    4    0    0 -0.16772432683E+02  0.22884027974E+03 -0.32949129895E+03  0.40988015010E+03  0.82389521376E+02 0.  0.
         13    1    3    3    0    0 -0.60501903711E+02  0.52460452382E+02  0.18656799877E+02  0.82223205960E+02  0.00000000000E+00 0.  1.
        -13    1    3    3    0    0 -0.34504691997E+03  0.47090720134E+03  0.36689597675E+03  0.68950970044E+03  0.00000000000E+00 0. -1.
          4    1    6    6  502    0 -0.26535936510E+02  0.49764611823E+02 -0.12953708039E+03  0.14128173170E+03  0.00000000000E+00 0. -1.
          1    1    5    5  503    0  0.10201671985E+03 -0.23293088731E+03 -0.28762543441E+03  0.38391743892E+03  0.00000000000E+00 0. -1.
         -2    1    5    5    0  503  0.32030453651E+03 -0.51927704616E+03 -0.56559970834E+03  0.83195353046E+03  0.00000000000E+00 0.  1.
         -3    1    6    6    0  502  0.97635038269E+01  0.17907566792E+03 -0.19995421857E+03  0.26859841841E+03  0.00000000000E+00 0.  1.
<mgrwt>
<rscale>  0 0.22610749E+04</rscale>
<asrwt>0</asrwt>
<pdfrwt beam="1">  1        2 0.12310157E+00 0.22610749E+04</pdfrwt>
<pdfrwt beam="2">  1       -2 0.24574213E+00 0.22610749E+04</pdfrwt>
<totfact> 0.21375591E+00</totfact>
</mgrwt>
</event>
<event>
12    1  0.1472088E-007  0.1508443E+04  0.7818608E-02  0.8878858E-01
          2   -1    0    0  501    0  0.00000000000E+00  0.00000000000E+00  0.18581100402E+04  0.18581100402E+04  0.00000000000E+00 0. -1.
         -2   -1    0    0    0  501 -0.00000000000E+00 -0.00000000000E+00 -0.30614434079E+03  0.30614434079E+03  0.00000000000E+00 0.  1.
         23    2    1    2    0    0 -0.31581582394E+03  0.26232699095E+03  0.87794639889E+03  0.97350139989E+03  0.91433098111E+02 0.  0.
        254    2    1    2    0    0  0.31581582394E+03 -0.26232699095E+03  0.67401930052E+03  0.11907529811E+04  0.89164766567E+03 0.  0.
        -24    2    4    4    0    0 -0.10284835259E+03 -0.48378889438E+03  0.32827899807E+03  0.59897990668E+03  0.79877093607E+02 0.  0.
         24    2    4    4    0    0  0.41866417653E+03  0.22146190342E+03  0.34574030245E+03  0.59177307442E+03  0.79586101102E+02 0.  0.
         13    1    3    3    0    0 -0.10179521670E+03  0.90276835071E+02  0.19842270842E+03  0.24059040776E+03  0.00000000000E+00 0.  1.
        -13    1    3    3    0    0 -0.21402060724E+03  0.17205015588E+03  0.67952369047E+03  0.73291099212E+03  0.00000000000E+00 0. -1.
          4    1    6    6  502    0  0.14278439251E+03  0.11423286369E+03  0.11011900287E+03  0.21345426837E+03  0.00000000000E+00 0. -1.
          3    1    5    5  503    0 -0.81705228922E+02 -0.45128021752E+03  0.28110416305E+03  0.53791182330E+03  0.00000000000E+00 0. -1.
         -4    1    5    5    0  503 -0.21143123669E+02 -0.32508676859E+02  0.47174835018E+02  0.61068083387E+02  0.00000000000E+00 0.  1.
         -3    1    6    6    0  502  0.27587978402E+03  0.10722903973E+03  0.23562129959E+03  0.37831880605E+03  0.00000000000E+00 0.  1.
<mgrwt>
<rscale>  0 0.15084427E+04</rscale>
<asrwt>0</asrwt>
<pdfrwt beam="1">  1        2 0.28586308E+00 0.15084427E+04</pdfrwt>
<pdfrwt beam="2">  1       -2 0.47099130E-01 0.15084427E+04</pdfrwt>
<totfact> 0.33053645E+01</totfact>
</mgrwt>
</event>
<event>
12    1  0.1472088E-007  0.1264820E+04  0.7818608E-02  0.9057938E-01
         -1   -1    0    0    0  501 -0.00000000000E+00  0.00000000000E+00  0.14244247835E+03  0.14244247835E+03  0.00000000000E+00 0.  1.
          1   -1    0    0  501    0  0.00000000000E+00 -0.00000000000E+00 -0.28077458645E+04  0.28077458645E+04  0.00000000000E+00 0. -1.
         23    2    1    2    0    0 -0.20522749604E+02  0.28957514647E+03 -0.74807914046E+03  0.80759900464E+03  0.91207473368E+02 0.  0.
        254    2    1    2    0    0  0.20522749604E+02 -0.28957514647E+03 -0.19172242457E+04  0.21425893382E+04  0.91140842395E+03 0.  0.
        -24    2    4    4    0    0 -0.70414398128E+02 -0.40781477572E+03 -0.30216397340E+03  0.51864804211E+03  0.80135173353E+02 0.  0.
         24    2    4    4    0    0  0.90937147732E+02  0.11823962925E+03 -0.16150602723E+04  0.16239412961E+04  0.80718494002E+02 0.  0.
         13    1    3    3    0    0  0.20335925483E+02  0.23014963607E+03 -0.59831014621E+03  0.64137152720E+03  0.00000000000E+00 0. -1.
        -13    1    3    3    0    0 -0.40858675087E+02  0.59425510404E+02 -0.14976899424E+03  0.16622747743E+03  0.00000000000E+00 0.  1.
          4    1    6    6  502    0  0.14309857955E+02  0.76340142339E+02 -0.95028440588E+03  0.95345321931E+03  0.00000000000E+00 0. -1.
          3    1    5    5  503    0 -0.72883794491E+02 -0.39889375243E+03 -0.27500540008E+03  0.48995534827E+03  0.00000000000E+00 0. -1.
         -4    1    5    5    0  503  0.24693963629E+01 -0.89210232877E+01 -0.27158573326E+02  0.28692693843E+02  0.00000000000E+00 0.  1.
         -3    1    6    6    0  502  0.76627289777E+02  0.41899486907E+02 -0.66477586642E+03  0.67048807679E+03  0.00000000000E+00 0.  1.
<mgrwt>
<rscale>  0 0.12648198E+04</rscale>
<asrwt>0</asrwt>
<pdfrwt beam="1">  1        1 0.43196090E+00 0.12648198E+04</pdfrwt>
<pdfrwt beam="2">  1       -1 0.21914227E-01 0.12648198E+04</pdfrwt>
<totfact> 0.14335108E+01</totfact>
</mgrwt>
</event>
<event>
12    1  0.1472088E-007  0.2688016E+04  0.7818608E-02  0.8338904E-01
         -2   -1    0    0    0  501 -0.00000000000E+00  0.00000000000E+00  0.81067437740E+03  0.81067437740E+03  0.00000000000E+00 0.  1.
          2   -1    0    0  501    0  0.00000000000E+00 -0.00000000000E+00 -0.22282160639E+04  0.22282160639E+04  0.00000000000E+00 0. -1.
         23    2    1    2    0    0  0.38308643306E+03  0.11282385955E+04 -0.80448291460E+03  0.14403721113E+04  0.88326187455E+02 0.  0.
        254    2    1    2    0    0 -0.38308643306E+03 -0.11282385955E+04 -0.61305877190E+03  0.15985183301E+04  0.87163194647E+03 0.  0.
        -24    2    4    4    0    0 -0.61584979819E+01 -0.45752721857E+03 -0.67861786411E+03  0.82226297186E+03  0.78899344496E+02 0.  0.
         24    2    4    4    0    0 -0.37692793508E+03 -0.67071137694E+03  0.65559092216E+02  0.77625535820E+03  0.79661578888E+02 0.  0.
         11    1    3    3    0    0  0.93676116079E+02  0.25491986528E+03 -0.22848227171E+03  0.35491337101E+03  0.00000000000E+00 0. -1.
        -11    1    3    3    0    0  0.28941031699E+03  0.87331873024E+03 -0.57600064289E+03  0.10854587402E+04  0.00000000000E+00 0.  1.
          2    1    6    6  502    0 -0.37499963053E+03 -0.66662080333E+03  0.57502926010E+02  0.76701669137E+03  0.00000000000E+00 0. -1.
          1    1    5    5  503    0  0.18384418072E+02 -0.25685167316E+03 -0.43691785624E+03  0.50715676268E+03  0.00000000000E+00 0. -1.
         -2    1    5    5    0  503 -0.24542916054E+02 -0.20067554541E+03 -0.24170000788E+03  0.31510620918E+03  0.00000000000E+00 0.  1.
         -1    1    6    6    0  502 -0.19283045498E+01 -0.40905736138E+01  0.80561662052E+01  0.92386668331E+01  0.00000000000E+00 0.  1.
<mgrwt>
<rscale>  0 0.26880161E+04</rscale>
<asrwt>0</asrwt>
<pdfrwt beam="1">  1        2 0.34280246E+00 0.26880161E+04</pdfrwt>
<pdfrwt beam="2">  1       -2 0.12471914E+00 0.26880161E+04</pdfrwt>
<totfact> 0.21077730E+00</totfact>
</mgrwt>
</event>
<event>
12    1  0.1472088E-007  0.1685282E+04  0.7818608E-02  0.8769804E-01
         -2   -1    0    0    0  501 -0.00000000000E+00  0.00000000000E+00  0.62244994421E+03  0.62244994421E+03  0.00000000000E+00 0. -1.
          2   -1    0    0  501    0  0.00000000000E+00 -0.00000000000E+00 -0.11407239239E+04  0.11407239239E+04  0.00000000000E+00 0.  1.
         23    2    1    2    0    0  0.75760233831E+02 -0.60372328123E+03 -0.17866032049E+03  0.64070189602E+03  0.91422076697E+02 0.  0.
        254    2    1    2    0    0 -0.75760233831E+02  0.60372328123E+03 -0.33961365924E+03  0.11224719721E+04  0.87999118028E+03 0.  0.
        -24    2    4    4    0    0 -0.43664240836E+03  0.41622624498E+03 -0.36111416157E+03  0.70753779488E+03  0.79406635169E+02 0.  0.
         24    2    4    4    0    0  0.36088217453E+03  0.18749703625E+03  0.21500502321E+02  0.41493417726E+03  0.79479666371E+02 0.  0.
         13    1    3    3    0    0  0.15328031537E+02 -0.17869272502E+03 -0.10562458031E+02  0.17965968954E+03  0.00000000000E+00 0. -1.
        -13    1    3    3    0    0  0.60432202294E+02 -0.42503055622E+03 -0.16809786246E+03  0.46104220648E+03  0.00000000000E+00 0.  1.
          2    1    6    6  502    0  0.34185784036E+03  0.17540281817E+03  0.65589521576E+00  0.38423087049E+03  0.00000000000E+00 0. -1.
          1    1    5    5  503    0 -0.28634154750E+03  0.22625335488E+03 -0.19456143847E+03  0.41356524970E+03  0.00000000000E+00 0. -1.
         -2    1    5    5    0  503 -0.15030086086E+03  0.18997289010E+03 -0.16655272309E+03  0.29397254518E+03  0.00000000000E+00 0.  1.
         -1    1    6    6    0  502  0.19024334165E+02  0.12094218086E+02  0.20844607106E+02  0.30703306775E+02  0.00000000000E+00 0.  1.
<mgrwt>
<rscale>  0 0.16852816E+04</rscale>
<asrwt>0</asrwt>
<pdfrwt beam="1">  1        2 0.17549599E+00 0.16852816E+04</pdfrwt>
<pdfrwt beam="2">  1       -2 0.95761530E-01 0.16852816E+04</pdfrwt>
<totfact> 0.17926766E+01</totfact>
</mgrwt>
</event>
<event>
12    1  0.1472088E-007  0.1698843E+04  0.7818608E-02  0.8762025E-01
          1   -1    0    0  501    0  0.00000000000E+00  0.00000000000E+00  0.16295035058E+04  0.16295035058E+04  0.00000000000E+00 0. -1.
         -1   -1    0    0    0  501 -0.00000000000E+00 -0.00000000000E+00 -0.44278316493E+03  0.44278316493E+03  0.00000000000E+00 0.  1.
         23    2    1    2    0    0  0.45173657575E+01 -0.77203493134E+02  0.11315633830E+04  0.11369567892E+04  0.79083910834E+02 0.  0.
        254    2    1    2    0    0 -0.45173657575E+01  0.77203493134E+02  0.55156957855E+02  0.93532988146E+03  0.93049390713E+03 0.  0.
        -24    2    4    4    0    0 -0.90221084541E+02  0.41596806367E+03 -0.21868223520E+03  0.48441743801E+03  0.75293161507E+02 0.  0.
         24    2    4    4    0    0  0.85703718783E+02 -0.33876457053E+03  0.27383919305E+03  0.45091244345E+03  0.78914931048E+02 0.  0.
         13    1    3    3    0    0  0.40291867447E+02 -0.27010057774E+02  0.44708842072E+03  0.44971216766E+03  0.00000000000E+00 0.  1.
        -13    1    3    3    0    0 -0.35774501689E+02 -0.50193435361E+02  0.68447496225E+03  0.68724462157E+03  0.00000000000E+00 0. -1.
          2    1    6    6  502    0  0.55237544058E+01 -0.10055007395E+03  0.42477551653E+02  0.10929396886E+03  0.00000000000E+00 0. -1.
          3    1    5    5  503    0  0.24508463796E+01  0.15633983685E+03 -0.71795504112E+02  0.17205448453E+03  0.00000000000E+00 0. -1.
         -4    1    5    5    0  503 -0.92671930920E+02  0.25962822682E+03 -0.14688673109E+03  0.31236295348E+03  0.00000000000E+00 0.  1.
         -1    1    6    6    0  502  0.80179964377E+02 -0.23821449658E+03  0.23136164140E+03  0.34161847459E+03  0.00000000000E+00 0.  1.
<mgrwt>
<rscale>  0 0.16988428E+04</rscale>
<asrwt>0</asrwt>
<pdfrwt beam="1">  1        1 0.25069284E+00 0.16988428E+04</pdfrwt>
<pdfrwt beam="2">  1       -1 0.68120488E-01 0.16988428E+04</pdfrwt>
<totfact> 0.11057447E+01</totfact>
</mgrwt>
</event>
<event>
12    1  0.1472088E-007  0.1715366E+04  0.7818608E-02  0.8752649E-01
          2   -1    0    0  501    0  0.00000000000E+00  0.00000000000E+00  0.24184374041E+04  0.24184374041E+04  0.00000000000E+00 0. -1.
         -2   -1    0    0    0  501 -0.00000000000E+00 -0.00000000000E+00 -0.30417171334E+03  0.30417171334E+03  0.00000000000E+00 0.  1.
         23    2    1    2    0    0 -0.26965499819E+03 -0.53371530545E+03  0.80913682154E+03  0.10102287296E+04  0.91070548272E+02 0.  0.
        254    2    1    2    0    0  0.26965499819E+03  0.53371530545E+03  0.13051288692E+04  0.17123803878E+04  0.93344490043E+03 0.  0.
        -24    2    4    4    0    0  0.60785403531E+03  0.26944281213E+03  0.76098768131E+03  0.10139961140E+04  0.83665470414E+02 0.  0.
         24    2    4    4    0    0 -0.33819903712E+03  0.26427249332E+03  0.54414118786E+03  0.69838427378E+03  0.86211496367E+02 0.  0.
         13    1    3    3    0    0 -0.17649924400E+03 -0.42736752205E+03  0.59301134492E+03  0.75196904008E+03  0.00000000000E+00 0. -1.
        -13    1    3    3    0    0 -0.93155754188E+02 -0.10634778340E+03  0.21612547662E+03  0.25825968949E+03  0.00000000000E+00 0.  1.
          4    1    6    6  502    0 -0.17523009316E+03  0.91749783684E+02  0.28591895895E+03  0.34766831814E+03  0.00000000000E+00 0. -1.
          1    1    5    5  503    0  0.58843460990E+03  0.24984692552E+03  0.70567356779E+03  0.95218378509E+03  0.00000000000E+00 0. -1.
         -2    1    5    5    0  503  0.19419425405E+02  0.19595886614E+02  0.55314113526E+02  0.61812328952E+02  0.00000000000E+00 0.  1.
         -3    1    6    6    0  502 -0.16296894397E+03  0.17252270963E+03  0.25822222891E+03  0.35071595564E+03  0.00000000000E+00 0.  1.
<mgrwt>
<rscale>  0 0.17153661E+04</rscale>
<asrwt>0</asrwt>
<pdfrwt beam="1">  1        2 0.37206728E+00 0.17153661E+04</pdfrwt>
<pdfrwt beam="2">  1       -2 0.46795650E-01 0.17153661E+04</pdfrwt>
<totfact> 0.15981674E+01</totfact>
</mgrwt>
</event>
<event>
12    1  0.1472088E-007  0.1754628E+04  0.7818608E-02  0.8730807E-01
          2   -1    0    0  501    0  0.00000000000E+00  0.00000000000E+00  0.17269015848E+04  0.17269015848E+04  0.00000000000E+00 0. -1.
         -2   -1    0    0    0  501 -0.00000000000E+00 -0.00000000000E+00 -0.44569971634E+03  0.44569971634E+03  0.00000000000E+00 0.  1.
         23    2    1    2    0    0 -0.27486026144E+03  0.42907715367E+03 -0.79541158854E+01  0.52114568409E+03  0.10896875221E+03 0.  0.
        254    2    1    2    0    0  0.27486026144E+03 -0.42907715367E+03  0.12891559843E+04  0.16514556171E+04  0.89762304783E+03 0.  0.
        -24    2    4    4    0    0  0.10880241889E+03 -0.64616695098E+03  0.55002032010E+03  0.85925662772E+03  0.80186687630E+02 0.  0.
         24    2    4    4    0    0  0.16605784256E+03  0.21708979731E+03  0.73913566425E+03  0.79219898933E+03  0.80959998511E+02 0.  0.
         13    1    3    3    0    0 -0.25733689510E+02  0.26234762785E+02 -0.29320013956E+02  0.47012219396E+02  0.00000000000E+00 0. -1.
        -13    1    3    3    0    0 -0.24912657193E+03  0.40284239089E+03  0.21365898070E+02  0.47413346469E+03  0.00000000000E+00 0.  1.
          2    1    6    6  502    0 -0.83419417363E+01  0.20862790507E+02  0.62856654793E+02  0.66751802009E+02  0.00000000000E+00 0. -1.
          3    1    5    5  503    0  0.10886238071E+03 -0.47322038568E+03  0.43145441476E+03  0.64957021435E+03  0.00000000000E+00 0. -1.
         -4    1    5    5    0  503 -0.59961825941E-01 -0.17294656530E+03  0.11856590534E+03  0.20968641337E+03  0.00000000000E+00 0.  1.
         -1    1    6    6    0  502  0.17439978429E+03  0.19622700680E+03  0.67627900946E+03  0.72544718732E+03  0.00000000000E+00 0.  1.
<mgrwt>
<rscale>  0 0.17546276E+04</rscale>
<asrwt>0</asrwt>
<pdfrwt beam="1">  1        2 0.26567716E+00 0.17546276E+04</pdfrwt>
<pdfrwt beam="2">  1       -2 0.68569188E-01 0.17546276E+04</pdfrwt>
<totfact> 0.17454729E+01</totfact>
</mgrwt>
</event>
<event>
12    1  0.1472088E-007  0.1480760E+04  0.7818608E-02  0.8897349E-01
         -1   -1    0    0    0  501 -0.00000000000E+00  0.00000000000E+00  0.66029267163E+03  0.66029267163E+03  0.00000000000E+00 0.  1.
          1   -1    0    0  501    0  0.00000000000E+00 -0.00000000000E+00 -0.83018105959E+03  0.83018105959E+03  0.00000000000E+00 0. -1.
         23    2    1    2    0    0  0.37694800612E+03  0.24371023244E+03 -0.17912743016E+03  0.49173899010E+03  0.90753079438E+02 0.  0.
        254    2    1    2    0    0 -0.37694800612E+03 -0.24371023244E+03  0.92390421948E+01  0.99873474112E+03  0.89213297580E+03 0.  0.
        -24    2    4    4    0    0 -0.44402249741E+03 -0.29832196453E+03 -0.33380385501E+03  0.63572076491E+03  0.81017927577E+02 0.  0.
         24    2    4    4    0    0  0.67074491288E+02  0.54611732092E+02  0.34304289720E+03  0.36301397621E+03  0.81359012659E+02 0.  0.
         13    1    3    3    0    0  0.30783978030E+02  0.15886744319E+02 -0.43699225904E+02  0.55764364006E+02  0.00000000000E+00 0. -1.
        -13    1    3    3    0    0  0.34616402809E+03  0.22782348812E+03 -0.13542820426E+03  0.43597462609E+03  0.00000000000E+00 0.  1.
          2    1    6    6  502    0  0.20462985835E+02 -0.11881762533E+02  0.23630787982E+02  0.33441354800E+02  0.00000000000E+00 0. -1.
          3    1    5    5  503    0 -0.60937869271E+02 -0.76305431564E+02 -0.72180249310E+02  0.12143282583E+03  0.00000000000E+00 0. -1.
         -2    1    5    5    0  503 -0.38308462814E+03 -0.22201653297E+03 -0.26162360570E+03  0.51428793908E+03  0.00000000000E+00 0.  1.
         -1    1    6    6    0  502  0.46611505453E+02  0.66493494625E+02  0.31941210922E+03  0.32957262141E+03  0.00000000000E+00 0.  1.
<mgrwt>
<rscale>  0 0.14807599E+04</rscale>
<asrwt>0</asrwt>
<pdfrwt beam="1">  1        1 0.12772016E+00 0.14807599E+04</pdfrwt>
<pdfrwt beam="2">  1       -1 0.10158349E+00 0.14807599E+04</pdfrwt>
<totfact> 0.18550203E+01</totfact>
</mgrwt>
</event>
<event>
12    1  0.1472088E-007  0.1821189E+04  0.7818608E-02  0.8695112E-01
         -2   -1    0    0    0  501 -0.00000000000E+00  0.00000000000E+00  0.57085230280E+03  0.57085230280E+03  0.00000000000E+00 0. -1.
          2   -1    0    0  501    0  0.00000000000E+00 -0.00000000000E+00 -0.14525343382E+04  0.14525343382E+04  0.00000000000E+00 0.  1.
         23    2    1    2    0    0  0.23618164533E+03 -0.85864322739E+02  0.37325182777E+03  0.45847791420E+03  0.87923940827E+02 0.  0.
        254    2    1    2    0    0 -0.23618164533E+03  0.85864322739E+02 -0.12549338632E+04  0.15649087268E+04  0.90051422574E+03 0.  0.
        -24    2    4    4    0    0 -0.12945821587E+03 -0.37129549844E+03 -0.31078254598E+03  0.50745372837E+03  0.79395961682E+02 0.  0.
         24    2    4    4    0    0 -0.10672342946E+03  0.45715982118E+03 -0.94415131722E+03  0.10574549984E+04  0.80027316780E+02 0.  0.
         11    1    3    3    0    0  0.22700235635E+03 -0.56617695844E+02  0.34462714471E+03  0.41653751588E+03  0.00000000000E+00 0. -1.
        -11    1    3    3    0    0  0.91792889831E+01 -0.29246626894E+02  0.28624683063E+02  0.41940398322E+02  0.00000000000E+00 0.  1.
          2    1    6    6  502    0 -0.90464971735E+02  0.34355912741E+03 -0.63401813086E+03  0.72677078601E+03  0.00000000000E+00 0. -1.
          1    1    5    5  503    0 -0.86766356764E+02 -0.13157692363E+03 -0.11812466239E+03  0.19696274613E+03  0.00000000000E+00 0. -1.
         -2    1    5    5    0  503 -0.42691859109E+02 -0.23971857481E+03 -0.19265788359E+03  0.31049098224E+03  0.00000000000E+00 0.  1.
         -1    1    6    6    0  502 -0.16258457722E+02  0.11360069378E+03 -0.31013318636E+03  0.33068421244E+03  0.00000000000E+00 0.  1.
<mgrwt>
<rscale>  0 0.18211893E+04</rscale>
<asrwt>0</asrwt>
<pdfrwt beam="1">  1        2 0.22346682E+00 0.18211893E+04</pdfrwt>
<pdfrwt beam="2">  1       -2 0.87823431E-01 0.18211893E+04</pdfrwt>
<totfact> 0.14232377E+01</totfact>
</mgrwt>
</event>
<event>
12    1  0.1472088E-007  0.1204661E+04  0.7818608E-02  0.9108786E-01
         -1   -1    0    0    0  501 -0.00000000000E+00  0.00000000000E+00  0.15010003965E+04  0.15010003965E+04  0.00000000000E+00 0.  1.
          1   -1    0    0  501    0  0.00000000000E+00 -0.00000000000E+00 -0.24170699664E+03  0.24170699664E+03  0.00000000000E+00 0. -1.
         23    2    1    2    0    0  0.67502679392E+02 -0.15327560874E+03 -0.35050780892E+01  0.19046588117E+03  0.90636319191E+02 0.  0.
        254    2    1    2    0    0 -0.67502679392E+02  0.15327560874E+03  0.12627984780E+04  0.15522415120E+04  0.88698573363E+03 0.  0.
        -24    2    4    4    0    0  0.60520716023E+02  0.35153497126E+03  0.12519122633E+04  0.13040869606E+04  0.78223352638E+02 0.  0.
         24    2    4    4    0    0 -0.12802339542E+03 -0.19825936252E+03  0.10886214716E+02  0.24815455137E+03  0.75930277859E+02 0.  0.
         11    1    3    3    0    0  0.24550841205E+02 -0.11921057197E+03  0.31117889889E+02  0.12562733518E+03  0.00000000000E+00 0. -1.
        -11    1    3    3    0    0  0.42951838187E+02 -0.34065036767E+02 -0.34622967979E+02  0.64838545984E+02  0.00000000000E+00 0.  1.
          4    1    6    6  502    0 -0.93148352174E+01  0.27692836434E+01  0.11020509164E+02  0.14693083722E+02  0.00000000000E+00 0. -1.
          3    1    5    5  503    0  0.40773031709E+02  0.58839138464E+02  0.22743502650E+03  0.23843484562E+03  0.00000000000E+00 0. -1.
         -4    1    5    5    0  503  0.19747684314E+02  0.29269583280E+03  0.10244772368E+04  0.10656521150E+04  0.00000000000E+00 0.  1.
         -3    1    6    6    0  502 -0.11870856020E+03 -0.20102864617E+03 -0.13429444849E+00  0.23346146765E+03  0.00000000000E+00 0.  1.
<mgrwt>
<rscale>  0 0.12046614E+04</rscale>
<asrwt>0</asrwt>
<pdfrwt beam="1">  1        1 0.37185693E-01 0.12046614E+04</pdfrwt>
<pdfrwt beam="2">  1       -1 0.23092313E+00 0.12046614E+04</pdfrwt>
<totfact> 0.10715567E+01</totfact>
</mgrwt>
</event>
<event>
12    1  0.1472088E-007  0.1627412E+04  0.7818608E-02  0.8803882E-01
          2   -1    0    0  501    0  0.00000000000E+00  0.00000000000E+00  0.37111624525E+04  0.37111624525E+04  0.00000000000E+00 0. -1.
         -2   -1    0    0    0  501 -0.00000000000E+00 -0.00000000000E+00 -0.17841250410E+03  0.17841250410E+03  0.00000000000E+00 0.  1.
         23    2    1    2    0    0 -0.23759455363E+03  0.15180431424E+02  0.21402770945E+02  0.25493606957E+03  0.88615481439E+02 0.  0.
        254    2    1    2    0    0  0.23759455363E+03 -0.15180431424E+02  0.35113471774E+04  0.36346388870E+04  0.90794230049E+03 0.  0.
        -24    2    4    4    0    0  0.24358913092E+03 -0.62632576731E+02  0.35303924813E+04  0.35402429612E+04  0.79941526980E+02 0.  0.
         24    2    4    4    0    0 -0.59945772952E+01  0.47452145307E+02 -0.19045303869E+02  0.94395925826E+02  0.79121590997E+02 0.  0.
         11    1    3    3    0    0 -0.68899380660E+02 -0.27077432740E+02 -0.18933797069E+02  0.76412045455E+02  0.00000000000E+00 0.  1.
        -11    1    3    3    0    0 -0.16869517297E+03  0.42257864165E+02  0.40336568013E+02  0.17852402411E+03  0.00000000000E+00 0. -1.
          2    1    6    6  502    0 -0.27188122977E+02  0.58622659025E+02 -0.25681384138E+02  0.69536635477E+02  0.00000000000E+00 0. -1.
          3    1    5    5  503    0  0.22674651779E+03 -0.78195584603E+02  0.33029996240E+04  0.33116967024E+04  0.00000000000E+00 0. -1.
         -4    1    5    5    0  503  0.16842613133E+02  0.15563007872E+02  0.22739285735E+03  0.22854625879E+03  0.00000000000E+00 0.  1.
         -1    1    6    6    0  502  0.21193545682E+02 -0.11170513719E+02  0.66360802694E+01  0.24859290349E+02  0.00000000000E+00 0.  1.
<mgrwt>
<rscale>  0 0.16274124E+04</rscale>
<asrwt>0</asrwt>
<pdfrwt beam="1">  1        2 0.57094801E+00 0.16274124E+04</pdfrwt>
<pdfrwt beam="2">  1       -2 0.27448080E-01 0.16274124E+04</pdfrwt>
<totfact> 0.67236758E+00</totfact>
</mgrwt>
</event>
<event>
12    1  0.1472088E-007  0.1612627E+04  0.7818608E-02  0.8812828E-01
         -1   -1    0    0    0  501 -0.00000000000E+00  0.00000000000E+00  0.46241676876E+03  0.46241676876E+03  0.00000000000E+00 0.  1.
          1   -1    0    0  501    0  0.00000000000E+00 -0.00000000000E+00 -0.14059644872E+04  0.14059644872E+04  0.00000000000E+00 0. -1.
         23    2    1    2    0    0  0.51061177857E+03 -0.46935418912E+02 -0.96098183669E+02  0.53202709978E+03  0.10435828685E+03 0.  0.
        254    2    1    2    0    0 -0.51061177857E+03  0.46935418912E+02 -0.84744953481E+03  0.13363541562E+04  0.89707546775E+03 0.  0.
        -24    2    4    4    0    0 -0.58481609547E+03  0.58379417271E+02 -0.99067086106E+03  0.11547093752E+04  0.80665757443E+02 0.  0.
         24    2    4    4    0    0  0.74204316901E+02 -0.11443998359E+02  0.14322132625E+03  0.18164478098E+03  0.82735919775E+02 0.  0.
         13    1    3    3    0    0  0.11179131578E+03  0.24535369695E+02  0.45393178080E+01  0.11454207985E+03  0.00000000000E+00 0.  1.
        -13    1    3    3    0    0  0.39882046278E+03 -0.71470788606E+02 -0.10063750148E+03  0.41748501993E+03  0.00000000000E+00 0. -1.
          2    1    6    6  502    0  0.22994211072E+02 -0.34434545695E+02  0.10727227060E+03  0.11498613707E+03  0.00000000000E+00 0. -1.
          1    1    5    5  503    0 -0.16654578878E+03  0.22658314552E+02 -0.35717836608E+03  0.39474964747E+03  0.00000000000E+00 0. -1.
         -2    1    5    5    0  503 -0.41827030668E+03  0.35721102718E+02 -0.63349249498E+03  0.75995972777E+03  0.00000000000E+00 0.  1.
         -1    1    6    6    0  502  0.51210105828E+02  0.22990547336E+02  0.35949055654E+02  0.66658643912E+02  0.00000000000E+00 0.  1.
<mgrwt>
<rscale>  0 0.16126271E+04</rscale>
<asrwt>0</asrwt>
<pdfrwt beam="1">  1        1 0.21630222E+00 0.16126271E+04</pdfrwt>
<pdfrwt beam="2">  1       -1 0.71141043E-01 0.16126271E+04</pdfrwt>
<totfact> 0.14554587E+01</totfact>
</mgrwt>
</event>
<event>
12    1  0.1472088E-007  0.1505833E+04  0.7818608E-02  0.8880583E-01
         -1   -1    0    0    0  501 -0.00000000000E+00  0.00000000000E+00  0.30591186400E+03  0.30591186400E+03  0.00000000000E+00 0.  1.
          1   -1    0    0  501    0  0.00000000000E+00 -0.00000000000E+00 -0.18530935657E+04  0.18530935657E+04  0.00000000000E+00 0. -1.
         23    2    1    2    0    0 -0.41192843804E+03 -0.22662627322E+03 -0.40614028186E+03  0.62588781015E+03  0.75770156172E+02 0.  0.
        254    2    1    2    0    0  0.41192843804E+03  0.22662627322E+03 -0.11410414198E+04  0.15331176195E+04  0.90963157804E+03 0.  0.
        -24    2    4    4    0    0  0.12772255156E+03 -0.12209155920E+03 -0.10502848066E+04  0.10680621642E+04  0.80244703907E+02 0.  0.
         24    2    4    4    0    0  0.28420588648E+03  0.34871783242E+03 -0.90756613224E+02  0.46505545538E+03  0.75250921418E+02 0.  0.
         13    1    3    3    0    0 -0.24145365261E+03 -0.14728361863E+03 -0.28890706819E+03  0.40430140332E+03  0.00000000000E+00 0. -1.
        -13    1    3    3    0    0 -0.17047478543E+03 -0.79342654586E+02 -0.11723321367E+03  0.22158640683E+03  0.00000000000E+00 0.  1.
          2    1    6    6  502    0  0.98342393147E+02  0.76331190791E+02 -0.43809317472E+02  0.13197322939E+03  0.00000000000E+00 0. -1.
          1    1    5    5  503    0  0.59764494188E+02 -0.63705128892E+02 -0.30034813850E+03  0.31279249113E+03  0.00000000000E+00 0. -1.
         -2    1    5    5    0  503  0.67958057376E+02 -0.58386430312E+02 -0.74993666812E+03  0.75526967303E+03  0.00000000000E+00 0.  1.
         -1    1    6    6    0  502  0.18586349333E+03  0.27238664163E+03 -0.46947295753E+02  0.33308222599E+03  0.00000000000E+00 0.  1.
<mgrwt>
<rscale>  0 0.15058331E+04</rscale>
<asrwt>0</asrwt>
<pdfrwt beam="1">  1        1 0.28509131E+00 0.15058331E+04</pdfrwt>
<pdfrwt beam="2">  1       -1 0.47063365E-01 0.15058331E+04</pdfrwt>
<totfact> 0.16324866E+01</totfact>
</mgrwt>
</event>
<event>
12    1  0.1472088E-007  0.1481763E+04  0.7818608E-02  0.8896672E-01
         -3   -1    0    0    0  501 -0.00000000000E+00  0.00000000000E+00  0.75445852000E+03  0.75445852000E+03  0.00000000000E+00 0.  1.
          3   -1    0    0  501    0  0.00000000000E+00 -0.00000000000E+00 -0.72754841191E+03  0.72754841191E+03  0.00000000000E+00 0. -1.
         23    2    1    2    0    0  0.78840719001E+02  0.34927138639E+03  0.29569809527E+03  0.47316731711E+03  0.90794196490E+02 0.  0.
        254    2    1    2    0    0 -0.78840719001E+02 -0.34927138639E+03 -0.26878798718E+03  0.10088396148E+04  0.90404868565E+03 0.  0.
        -24    2    4    4    0    0  0.20546047908E+03 -0.54543426412E+03 -0.45846237825E+02  0.58991965726E+03  0.78681507106E+02 0.  0.
         24    2    4    4    0    0 -0.28430119809E+03  0.19616287773E+03 -0.22294174935E+03  0.41891995754E+03  0.80522427904E+02 0.  0.
         13    1    3    3    0    0  0.92666801783E+02  0.27452674477E+03  0.20555479581E+03  0.35525321086E+03  0.00000000000E+00 0.  1.
        -13    1    3    3    0    0 -0.13826082783E+02  0.74744641620E+02  0.90143299460E+02  0.11791410625E+03  0.00000000000E+00 0. -1.
          4    1    6    6  502    0 -0.24255485309E+02 -0.27740406948E+01 -0.30759678375E+02  0.39270621119E+02  0.00000000000E+00 0. -1.
          1    1    5    5  503    0  0.21388553220E+02 -0.62874427611E+02  0.19770418197E+02  0.69293097001E+02  0.00000000000E+00 0. -1.
         -2    1    5    5    0  503  0.18407192586E+03 -0.48255983651E+03 -0.65616656021E+02  0.52062656026E+03  0.00000000000E+00 0.  1.
         -3    1    6    6    0  502 -0.26004571278E+03  0.19893691842E+03 -0.19218207098E+03  0.37964933643E+03  0.00000000000E+00 0.  1.
<mgrwt>
<rscale>  0 0.14817626E+04</rscale>
<asrwt>0</asrwt>
<pdfrwt beam="1">  1        3 0.11193052E+00 0.14817626E+04</pdfrwt>
<pdfrwt beam="2">  1       -3 0.11607054E+00 0.14817626E+04</pdfrwt>
<totfact> 0.10408007E+00</totfact>
</mgrwt>
</event>
<event>
12    1  0.1472088E-007  0.1816977E+04  0.7818608E-02  0.8697323E-01
          2   -1    0    0  501    0  0.00000000000E+00  0.00000000000E+00  0.14220503159E+04  0.14220503159E+04  0.00000000000E+00 0. -1.
         -2   -1    0    0    0  501 -0.00000000000E+00 -0.00000000000E+00 -0.58039555815E+03  0.58039555815E+03  0.00000000000E+00 0.  1.
         23    2    1    2    0    0 -0.24961044398E+03 -0.14963851705E+03 -0.36313846783E+03  0.47421210860E+03  0.91162040328E+02 0.  0.
        254    2    1    2    0    0  0.24961044398E+03  0.14963851705E+03  0.12047932256E+04  0.15282337655E+04  0.89402162497E+03 0.  0.
        -24    2    4    4    0    0 -0.27773408860E+03 -0.80875868180E+01  0.12706841536E+03  0.31596639032E+03  0.80540329008E+02 0.  0.
         24    2    4    4    0    0  0.52734453258E+03  0.15772610387E+03  0.10777248102E+04  0.12122673751E+04  0.71635482459E+02 0.  0.
         11    1    3    3    0    0 -0.25765138695E+03 -0.14424385509E+03 -0.35220495849E+03  0.45960728858E+03  0.00000000000E+00 0.  1.
        -11    1    3    3    0    0  0.80409429675E+01 -0.53946619587E+01 -0.10933509340E+02  0.14604820024E+02  0.00000000000E+00 0. -1.
          2    1    6    6  502    0  0.26071072660E+03  0.11528374006E+03  0.55810454775E+03  0.62669060142E+03  0.00000000000E+00 0. -1.
          3    1    5    5  503    0 -0.26500393665E+03 -0.18821552111E+02  0.99368380066E+02  0.28364663266E+03  0.00000000000E+00 0. -1.
         -4    1    5    5    0  503 -0.12730151952E+02  0.10733965293E+02  0.27700035296E+02  0.32319757657E+02  0.00000000000E+00 0.  1.
         -1    1    6    6    0  502  0.26663380598E+03  0.42442363810E+02  0.51962026249E+03  0.58557677373E+03  0.00000000000E+00 0.  1.
<mgrwt>
<rscale>  0 0.18169774E+04</rscale>
<asrwt>0</asrwt>
<pdfrwt beam="1">  1        2 0.21877697E+00 0.18169774E+04</pdfrwt>
<pdfrwt beam="2">  1       -2 0.89291625E-01 0.18169774E+04</pdfrwt>
<totfact> 0.14263831E+01</totfact>
</mgrwt>
</event>
<event>
12    1  0.1472088E-007  0.2450061E+04  0.7818608E-02  0.8420996E-01
          2   -1    0    0  501    0  0.00000000000E+00  0.00000000000E+00  0.94412771503E+03  0.94412771503E+03  0.00000000000E+00 0. -1.
         -2   -1    0    0    0  501 -0.00000000000E+00 -0.00000000000E+00 -0.15895095163E+04  0.15895095163E+04  0.00000000000E+00 0.  1.
         23    2    1    2    0    0  0.52164678184E+02  0.16133904530E+03 -0.13594822067E+04  0.13728590012E+04  0.88309261583E+02 0.  0.
        254    2    1    2    0    0 -0.52164678184E+02 -0.16133904530E+03  0.71410040543E+03  0.11607782301E+04  0.89928597747E+03 0.  0.
        -24    2    4    4    0    0 -0.90629119969E+02 -0.22547915850E+03 -0.14568403616E+03  0.29408593011E+03  0.78792179772E+02 0.  0.
         24    2    4    4    0    0  0.38464441785E+02  0.64140113201E+02  0.85978444159E+03  0.86669230000E+03  0.79578825516E+02 0.  0.
         11    1    3    3    0    0  0.49873224774E+02  0.37543180863E+02 -0.32029327819E+03  0.32631980177E+03  0.00000000000E+00 0. -1.
        -11    1    3    3    0    0  0.22914534097E+01  0.12379586444E+03 -0.10391889285E+04  0.10465391994E+04  0.00000000000E+00 0.  1.
          2    1    6    6  502    0  0.12911066948E+02 -0.18353166256E+02  0.14888544178E+03  0.15056695898E+03  0.00000000000E+00 0. -1.
          1    1    5    5  503    0 -0.93161210387E+02 -0.14396827496E+03 -0.11719368773E+03  0.20770227673E+03  0.00000000000E+00 0. -1.
         -2    1    5    5    0  503  0.25320904180E+01 -0.81510883546E+02 -0.28490348431E+02  0.86383653384E+02  0.00000000000E+00 0.  1.
         -1    1    6    6    0  502  0.25553374837E+02  0.82493279457E+02  0.71089899981E+03  0.71612534102E+03  0.00000000000E+00 0.  1.
<mgrwt>
<rscale>  0 0.24500612E+04</rscale>
<asrwt>0</asrwt>
<pdfrwt beam="1">  1        2 0.14525042E+00 0.24500612E+04</pdfrwt>
<pdfrwt beam="2">  1       -2 0.24453992E+00 0.24500612E+04</pdfrwt>
<totfact> 0.17032248E+00</totfact>
</mgrwt>
</event>
<event>
12    1  0.1472088E-007  0.2807873E+04  0.7818608E-02  0.8300828E-01
          1   -1    0    0  501    0  0.00000000000E+00  0.00000000000E+00  0.78073936204E+03  0.78073936204E+03  0.00000000000E+00 0. -1.
         -1   -1    0    0    0  501 -0.00000000000E+00 -0.00000000000E+00 -0.25245775495E+04  0.25245775495E+04  0.00000000000E+00 0.  1.
         23    2    1    2    0    0  0.41372778554E+03 -0.69901508109E+03 -0.19058393739E+04  0.20737338006E+04  0.91407836846E+02 0.  0.
        254    2    1    2    0    0 -0.41372778554E+03  0.69901508109E+03  0.16200118645E+03  0.12315831109E+04  0.91146026272E+03 0.  0.
        -24    2    4    4    0    0 -0.60054071212E+03  0.78970021534E+03  0.16583862442E+03  0.10090146231E+04  0.79576902003E+02 0.  0.
         24    2    4    4    0    0  0.18681292657E+03 -0.90685134252E+02 -0.38374379727E+01  0.22256848776E+03  0.79994641724E+02 0.  0.
         11    1    3    3    0    0  0.25252999070E+03 -0.36045999767E+03 -0.95093123833E+03  0.10478420807E+04  0.00000000000E+00 0. -1.
        -11    1    3    3    0    0  0.16119779485E+03 -0.33855508342E+03 -0.95490813555E+03  0.10258917199E+04  0.00000000000E+00 0.  1.
          4    1    6    6  502    0  0.71007148903E+02 -0.61217562301E+02  0.29892662065E+02  0.98403131936E+02  0.00000000000E+00 0. -1.
          3    1    5    5  503    0 -0.38151563317E+03  0.55240487632E+03  0.90513873999E+02  0.67742017029E+03  0.00000000000E+00 0. -1.
         -4    1    5    5    0  503 -0.21902507895E+03  0.23729533902E+03  0.75324750426E+02  0.33159445285E+03  0.00000000000E+00 0.  1.
         -3    1    6    6    0  502  0.11580577767E+03 -0.29467571951E+02 -0.33730100038E+02  0.12416535583E+03  0.00000000000E+00 0.  1.
<mgrwt>
<rscale>  0 0.28078726E+04</rscale>
<asrwt>0</asrwt>
<pdfrwt beam="1">  1        1 0.12011375E+00 0.28078726E+04</pdfrwt>
<pdfrwt beam="2">  1       -1 0.38839655E+00 0.28078726E+04</pdfrwt>
<totfact> 0.17063180E-01</totfact>
</mgrwt>
</event>
<event>
12    1  0.1472088E-007  0.2087502E+04  0.7818608E-02  0.8566769E-01
         -1   -1    0    0    0  501 -0.00000000000E+00  0.00000000000E+00  0.48080322578E+03  0.48080322578E+03  0.00000000000E+00 0.  1.
          1   -1    0    0  501    0  0.00000000000E+00 -0.00000000000E+00 -0.22658251617E+04  0.22658251617E+04  0.00000000000E+00 0. -1.
         23    2    1    2    0    0 -0.37207304692E+03 -0.19230303790E+03 -0.16535458757E+04  0.17082838057E+04  0.92740428117E+02 0.  0.
        254    2    1    2    0    0  0.37207304692E+03  0.19230303790E+03 -0.13147606020E+03  0.10383445818E+04  0.94098602833E+03 0.  0.
        -24    2    4    4    0    0 -0.27490938635E+03 -0.48780848747E+02  0.98235970792E+02  0.30637252977E+03  0.79114342156E+02 0.  0.
         24    2    4    4    0    0  0.64698243327E+03  0.24108388665E+03 -0.22971203099E+03  0.73197205202E+03  0.79421397671E+02 0.  0.
         13    1    3    3    0    0 -0.34853015589E+02  0.51033677981E+01 -0.20276647727E+03  0.20580335605E+03  0.00000000000E+00 0.  1.
        -13    1    3    3    0    0 -0.33722003133E+03 -0.19740640570E+03 -0.14507793985E+04  0.15024804496E+04  0.00000000000E+00 0. -1.
          4    1    6    6  502    0  0.24365038437E+03  0.12895902613E+03 -0.75271937422E+02  0.28576529668E+03  0.00000000000E+00 0. -1.
          3    1    5    5  503    0 -0.37434976500E+02 -0.13086217421E+02 -0.12980743694E+02  0.41726805039E+02  0.00000000000E+00 0. -1.
         -4    1    5    5    0  503 -0.23747440985E+03 -0.35694631325E+02  0.11121671449E+03  0.26464572473E+03  0.00000000000E+00 0.  1.
         -3    1    6    6    0  502  0.40333204890E+03  0.11212486052E+03 -0.15444009356E+03  0.44620675534E+03  0.00000000000E+00 0.  1.
<mgrwt>
<rscale>  0 0.20875019E+04</rscale>
<asrwt>0</asrwt>
<pdfrwt beam="1">  1        1 0.34858848E+00 0.20875019E+04</pdfrwt>
<pdfrwt beam="2">  1       -1 0.73969728E-01 0.20875019E+04</pdfrwt>
<totfact> 0.33281556E+00</totfact>
</mgrwt>
</event>
<event>
12    1  0.1472088E-007  0.2168102E+04  0.7818608E-02  0.8531823E-01
          1   -1    0    0  501    0  0.00000000000E+00  0.00000000000E+00  0.29840647577E+04  0.29840647577E+04  0.00000000000E+00 0. -1.
         -1   -1    0    0    0  501 -0.00000000000E+00 -0.00000000000E+00 -0.39381393888E+03  0.39381393888E+03  0.00000000000E+00 0.  1.
         23    2    1    2    0    0  0.27137167923E+03  0.53042161025E+03  0.21189737673E+04  0.22030485508E+04  0.91561003922E+02 0.  0.
        254    2    1    2    0    0 -0.27137167923E+03 -0.53042161025E+03  0.47127705152E+03  0.11748301459E+04  0.89617751557E+03 0.  0.
        -24    2    4    4    0    0 -0.25879542673E+03 -0.60968875546E+02 -0.20543151439E+03  0.34730784907E+03  0.87911081455E+02 0.  0.
         24    2    4    4    0    0 -0.12576252499E+02 -0.46945273470E+03  0.67670856591E+03  0.82752229678E+03  0.79464685548E+02 0.  0.
         11    1    3    3    0    0  0.78601135690E+02  0.22383384072E+03  0.72661795101E+03  0.76436468621E+03  0.00000000000E+00 0. -1.
        -11    1    3    3    0    0  0.19277054354E+03  0.30658776953E+03  0.13923558163E+04  0.14386838646E+04  0.00000000000E+00 0.  1.
          4    1    6    6  502    0 -0.29056825972E+02 -0.37932595418E+03  0.49790446136E+03  0.62661098880E+03  0.00000000000E+00 0. -1.
          3    1    5    5  503    0 -0.14205274964E+03 -0.21837962914E+02 -0.16243675587E+03  0.21689070971E+03  0.00000000000E+00 0. -1.
         -4    1    5    5    0  503 -0.11674267709E+03 -0.39130912632E+02 -0.42994758519E+02  0.13041713936E+03  0.00000000000E+00 0.  1.
         -3    1    6    6    0  502  0.16480573473E+02 -0.90126780530E+02  0.17880410455E+03  0.20091130798E+03  0.00000000000E+00 0.  1.
<mgrwt>
<rscale>  0 0.21681017E+04</rscale>
<asrwt>0</asrwt>
<pdfrwt beam="1">  1        1 0.45908687E+00 0.21681017E+04</pdfrwt>
<pdfrwt beam="2">  1       -1 0.60586762E-01 0.21681017E+04</pdfrwt>
<totfact> 0.15523034E+00</totfact>
</mgrwt>
</event>
<event>
12    1  0.1472088E-007  0.2225802E+04  0.7818608E-02  0.8507765E-01
          1   -1    0    0  501    0  0.00000000000E+00  0.00000000000E+00  0.19889132045E+04  0.19889132045E+04  0.00000000000E+00 0. -1.
         -1   -1    0    0    0  501 -0.00000000000E+00 -0.00000000000E+00 -0.62272615548E+03  0.62272615548E+03  0.00000000000E+00 0.  1.
         23    2    1    2    0    0 -0.62035457011E+03 -0.68479335771E+03  0.66494171643E+03  0.11413517841E+04  0.82186820305E+02 0.  0.
        254    2    1    2    0    0  0.62035457011E+03  0.68479335771E+03  0.70124533261E+03  0.14702875759E+04  0.90344828513E+03 0.  0.
        -24    2    4    4    0    0 -0.91029563388E+02  0.49173930228E+03  0.47692174505E+03  0.69596345595E+03  0.82564267669E+02 0.  0.
         24    2    4    4    0    0  0.71138413350E+03  0.19305405543E+03  0.22432358756E+03  0.77432411995E+03  0.76938397996E+02 0.  0.
         13    1    3    3    0    0 -0.19849612383E+03 -0.24290182008E+03  0.26996326543E+03  0.41386250139E+03  0.00000000000E+00 0. -1.
        -13    1    3    3    0    0 -0.42185844628E+03 -0.44189153762E+03  0.39497845100E+03  0.72748928273E+03  0.00000000000E+00 0.  1.
          2    1    6    6  502    0  0.71523817489E+02  0.94838542554E+01  0.44582102550E+02  0.84812521643E+02  0.00000000000E+00 0. -1.
          1    1    5    5  503    0 -0.29076641434E+02  0.13447827442E+03  0.18447466303E+03  0.23013204616E+03  0.00000000000E+00 0. -1.
         -2    1    5    5    0  503 -0.61952921954E+02  0.35726102786E+03  0.29244708202E+03  0.46583140979E+03  0.00000000000E+00 0.  1.
         -1    1    6    6    0  502  0.63986031601E+03  0.18357020117E+03  0.17974148501E+03  0.68951159830E+03  0.00000000000E+00 0.  1.
<mgrwt>
<rscale>  0 0.22258017E+04</rscale>
<asrwt>0</asrwt>
<pdfrwt beam="1">  1        1 0.30598664E+00 0.22258017E+04</pdfrwt>
<pdfrwt beam="2">  1       -1 0.95804025E-01 0.22258017E+04</pdfrwt>
<totfact> 0.28973371E+00</totfact>
</mgrwt>
</event>
<event>
12    1  0.1472088E-007  0.1918425E+04  0.7818608E-02  0.8645739E-01
          2   -1    0    0  501    0  0.00000000000E+00  0.00000000000E+00  0.24961064857E+04  0.24961064857E+04  0.00000000000E+00 0. -1.
         -2   -1    0    0    0  501 -0.00000000000E+00 -0.00000000000E+00 -0.36860957052E+03  0.36860957052E+03  0.00000000000E+00 0.  1.
         23    2    1    2    0    0  0.45481567240E+02  0.69805405380E+03  0.12166177049E+04  0.14063112362E+04  0.90579347510E+02 0.  0.
        254    2    1    2    0    0 -0.45481567240E+02 -0.69805405380E+03  0.91087921031E+03  0.14584048200E+04  0.89883015547E+03 0.  0.
        -24    2    4    4    0    0  0.29307783952E+03 -0.58292823356E+03  0.25329508334E+03  0.70454511607E+03  0.80780417392E+02 0.  0.
         24    2    4    4    0    0 -0.33855940676E+03 -0.11512582024E+03  0.65758412697E+03  0.75385970398E+03  0.89504987858E+02 0.  0.
         13    1    3    3    0    0  0.29950982955E+02  0.47132122326E+03  0.90251183837E+03  0.10186110029E+04  0.00000000000E+00 0. -1.
        -13    1    3    3    0    0  0.15530584286E+02  0.22673283054E+03  0.31410586650E+03  0.38770023325E+03  0.00000000000E+00 0.  1.
          2    1    6    6  502    0 -0.30116972895E+03 -0.76099305153E+02  0.59469859452E+03  0.67094018228E+03  0.00000000000E+00 0. -1.
          3    1    5    5  503    0  0.28700088312E+03 -0.52714516576E+03  0.21976740446E+03  0.63917857032E+03  0.00000000000E+00 0. -1.
         -4    1    5    5    0  503  0.60769564061E+01 -0.55783067794E+02  0.33527678876E+02  0.65366545743E+02  0.00000000000E+00 0.  1.
         -1    1    6    6    0  502 -0.37389677808E+02 -0.39026515091E+02  0.62885532450E+02  0.82919521696E+02  0.00000000000E+00 0.  1.
<mgrwt>
<rscale>  0 0.19184251E+04</rscale>
<asrwt>0</asrwt>
<pdfrwt beam="1">  1        2 0.38401637E+00 0.19184251E+04</pdfrwt>
<pdfrwt beam="2">  1       -2 0.56709166E-01 0.19184251E+04</pdfrwt>
<totfact> 0.95515196E+00</totfact>
</mgrwt>
</event>
<event>
12    1  0.1472088E-007  0.1786694E+04  0.7818608E-02  0.8713408E-01
          2   -1    0    0  501    0  0.00000000000E+00  0.00000000000E+00  0.11602045901E+04  0.11602045901E+04  0.00000000000E+00 0. -1.
         -2   -1    0    0    0  501 -0.00000000000E+00 -0.00000000000E+00 -0.68786872260E+03  0.68786872260E+03  0.00000000000E+00 0.  1.
         23    2    1    2    0    0  0.17579890831E+03  0.10172748170E+03  0.82291454595E+03  0.85255839897E+03  0.91726424871E+02 0.  0.
        254    2    1    2    0    0 -0.17579890831E+03 -0.10172748170E+03 -0.35057867848E+03  0.99551491370E+03  0.90933535998E+03 0.  0.
        -24    2    4    4    0    0  0.66861661476E+02  0.36188708990E+03 -0.33098633195E+02  0.37811109037E+03  0.80247925410E+02 0.  0.
         24    2    4    4    0    0 -0.24266056979E+03 -0.46361457159E+03 -0.31748004528E+03  0.61740382333E+03  0.81063424441E+02 0.  0.
         13    1    3    3    0    0  0.15042023920E+02  0.81480107645E-01  0.21637883115E+03  0.21690105507E+03  0.00000000000E+00 0.  1.
        -13    1    3    3    0    0  0.16075688439E+03  0.10164600159E+03  0.60653571480E+03  0.63565734390E+03  0.00000000000E+00 0. -1.
          4    1    6    6  502    0 -0.11748723066E+03 -0.29916745599E+03 -0.21529535936E+03  0.38685463401E+03  0.00000000000E+00 0. -1.
          3    1    5    5  503    0  0.82962334643E+02  0.26209819139E+03 -0.14209924429E+02  0.27528191523E+03  0.00000000000E+00 0. -1.
         -4    1    5    5    0  503 -0.16100673168E+02  0.99788898509E+02 -0.18888708766E+02  0.10282917514E+03  0.00000000000E+00 0.  1.
         -3    1    6    6    0  502 -0.12517333913E+03 -0.16444711561E+03 -0.10218468592E+03  0.23054918932E+03  0.00000000000E+00 0.  1.
<mgrwt>
<rscale>  0 0.17866935E+04</rscale>
<asrwt>0</asrwt>
<pdfrwt beam="1">  1        2 0.17849301E+00 0.17866935E+04</pdfrwt>
<pdfrwt beam="2">  1       -2 0.10582596E+00 0.17866935E+04</pdfrwt>
<totfact> 0.13647446E+01</totfact>
</mgrwt>
</event>
<event>
12    1  0.1472088E-007  0.2281947E+04  0.7818608E-02  0.8485073E-01
          2   -1    0    0  501    0  0.00000000000E+00  0.00000000000E+00  0.48873937223E+03  0.48873937223E+03  0.00000000000E+00 0. -1.
         -2   -1    0    0    0  501 -0.00000000000E+00 -0.00000000000E+00 -0.26636304163E+04  0.26636304163E+04  0.00000000000E+00 0.  1.
         23    2    1    2    0    0  0.52789620117E+03  0.42745496307E+03 -0.18609945892E+04  0.19831814329E+04  0.91189856612E+02 0.  0.
        254    2    1    2    0    0 -0.52789620117E+03 -0.42745496307E+03 -0.31389645488E+03  0.11691883557E+04  0.89837535699E+03 0.  0.
        -24    2    4    4    0    0 -0.22072072612E+02 -0.44278706095E+03  0.15341059935E+03  0.47575036508E+03  0.79095133513E+02 0.  0.
         24    2    4    4    0    0 -0.50582412855E+03  0.15332097881E+02 -0.46730705423E+03  0.69343799062E+03  0.79920220495E+02 0.  0.
         11    1    3    3    0    0  0.38417003188E+03  0.31200688586E+03 -0.12307959745E+04  0.13265721394E+04  0.00000000000E+00 0.  1.
        -11    1    3    3    0    0  0.14372616928E+03  0.11544807720E+03 -0.63019861476E+03  0.65660929350E+03  0.00000000000E+00 0. -1.
          2    1    6    6  502    0 -0.20752693858E+03  0.21428791354E+02 -0.24230864402E+03  0.31975006223E+03  0.00000000000E+00 0. -1.
          3    1    5    5  503    0  0.16558275684E+02 -0.32679480467E+03  0.98409312956E+02  0.34169198664E+03  0.00000000000E+00 0. -1.
         -4    1    5    5    0  503 -0.38630348296E+02 -0.11599225627E+03  0.55001286391E+02  0.13405837844E+03  0.00000000000E+00 0.  1.
         -1    1    6    6    0  502 -0.29829718998E+03 -0.60966934726E+01 -0.22499841021E+03  0.37368792838E+03  0.00000000000E+00 0.  1.
<mgrwt>
<rscale>  0 0.22819475E+04</rscale>
<asrwt>0</asrwt>
<pdfrwt beam="1">  1        2 0.75190673E-01 0.22819475E+04</pdfrwt>
<pdfrwt beam="2">  1       -2 0.40978929E+00 0.22819475E+04</pdfrwt>
<totfact> 0.36795258E-01</totfact>
</mgrwt>
</event>
<event>
12    1  0.1472088E-007  0.1277876E+04  0.7818608E-02  0.9047296E-01
          1   -1    0    0  501    0  0.00000000000E+00  0.00000000000E+00  0.82721866547E+03  0.82721866547E+03  0.00000000000E+00 0. -1.
         -1   -1    0    0    0  501 -0.00000000000E+00 -0.00000000000E+00 -0.49351156027E+03  0.49351156027E+03  0.00000000000E+00 0.  1.
         23    2    1    2    0    0 -0.92582955274E+02 -0.16005060658E+03 -0.17901264870E+03  0.27318187054E+03  0.91624263843E+02 0.  0.
        254    2    1    2    0    0  0.92582955274E+02  0.16005060658E+03  0.51271975389E+03  0.10475483552E+04  0.89458829088E+03 0.  0.
        -24    2    4    4    0    0 -0.38433534161E+03 -0.16026766897E+02  0.16244019328E+03  0.42508078207E+03  0.79601148399E+02 0.  0.
         24    2    4    4    0    0  0.47691829688E+03  0.17607737348E+03  0.35027956061E+03  0.62246757313E+03  0.79472043285E+02 0.  0.
         11    1    3    3    0    0 -0.55959062205E+02 -0.34856456632E+02 -0.23002261385E+02  0.69824732298E+02  0.00000000000E+00 0. -1.
        -11    1    3    3    0    0 -0.36623893070E+02 -0.12519414995E+03 -0.15601038731E+03  0.20335713824E+03  0.00000000000E+00 0.  1.
          2    1    6    6  502    0  0.25372188933E+03  0.12183349663E+03  0.15706438146E+03  0.32231571161E+03  0.00000000000E+00 0. -1.
          1    1    5    5  503    0 -0.33460216216E+03 -0.24576316912E+02  0.16632564730E+03  0.37446872129E+03  0.00000000000E+00 0. -1.
         -2    1    5    5    0  503 -0.49733179444E+02  0.85495500150E+01 -0.38854540199E+01  0.50612060776E+02  0.00000000000E+00 0.  1.
         -1    1    6    6    0  502  0.22319640755E+03  0.54243876843E+02  0.19321517915E+03  0.30015186152E+03  0.00000000000E+00 0.  1.
<mgrwt>
<rscale>  0 0.12778763E+04</rscale>
<asrwt>0</asrwt>
<pdfrwt beam="1">  1        1 0.12726441E+00 0.12778763E+04</pdfrwt>
<pdfrwt beam="2">  1       -1 0.75924856E-01 0.12778763E+04</pdfrwt>
<totfact> 0.35926164E+01</totfact>
</mgrwt>
</event>
<event>
12    1  0.1472088E-007  0.1612029E+04  0.7818608E-02  0.8813192E-01
          1   -1    0    0  501    0  0.00000000000E+00  0.00000000000E+00  0.83950822488E+03  0.83950822488E+03  0.00000000000E+00 0. -1.
         -1   -1    0    0    0  501 -0.00000000000E+00 -0.00000000000E+00 -0.77385689461E+03  0.77385689461E+03  0.00000000000E+00 0.  1.
         23    2    1    2    0    0  0.26103689063E+03  0.16780252973E+03  0.46959880941E+03  0.57348213469E+03  0.10982153594E+03 0.  0.
        254    2    1    2    0    0 -0.26103689063E+03 -0.16780252973E+03 -0.40394747914E+03  0.10398829848E+04  0.90657879355E+03 0.  0.
        -24    2    4    4    0    0 -0.11712562340E+03  0.54946666346E+02  0.27042098136E+03  0.31134556055E+03  0.84089256832E+02 0.  0.
         24    2    4    4    0    0 -0.14391126723E+03 -0.22274919608E+03 -0.67436846050E+03  0.72853742424E+03  0.75274835160E+02 0.  0.
         11    1    3    3    0    0  0.24852863047E+03  0.11850481251E+03  0.36529344558E+03  0.45743761557E+03  0.00000000000E+00 0. -1.
        -11    1    3    3    0    0  0.12508260164E+02  0.49297717224E+02  0.10430536382E+03  0.11604451912E+03  0.00000000000E+00 0.  1.
          2    1    6    6  502    0 -0.98992782997E+02 -0.16690948259E+03 -0.39459303615E+03  0.43972947439E+03  0.00000000000E+00 0. -1.
          3    1    5    5  503    0 -0.16686033450E+02  0.36013418373E+02  0.14073140269E+03  0.14622146805E+03  0.00000000000E+00 0. -1.
         -4    1    5    5    0  503 -0.10043958995E+03  0.18933247972E+02  0.12968957867E+03  0.16512409250E+03  0.00000000000E+00 0.  1.
         -1    1    6    6    0  502 -0.44918484231E+02 -0.55839713488E+02 -0.27977542435E+03  0.28880794985E+03  0.00000000000E+00 0.  1.
<mgrwt>
<rscale>  0 0.16120288E+04</rscale>
<asrwt>0</asrwt>
<pdfrwt beam="1">  1        1 0.12915511E+00 0.16120288E+04</pdfrwt>
<pdfrwt beam="2">  1       -1 0.11905491E+00 0.16120288E+04</pdfrwt>
<totfact> 0.12371843E+01</totfact>
</mgrwt>
</event>
<event>
12    1  0.1534144E-007  0.1577815E+04  0.7818608E-02  0.8834294E-01
          2   -1    0    0  501    0  0.00000000000E+00  0.00000000000E+00  0.18358837034E+04  0.18358837034E+04  0.00000000000E+00 0. -1.
         -2   -1    0    0    0  501 -0.00000000000E+00 -0.00000000000E+00 -0.33900581503E+03  0.33900581503E+03  0.00000000000E+00 0.  1.
         23    2    1    2    0    0 -0.26727779541E+02 -0.10530617492E+03 -0.20206519220E+03  0.24943393458E+03  0.97893723736E+02 0.  0.
        254    2    1    2    0    0  0.26727779541E+02  0.10530617492E+03  0.16989430806E+04  0.19254555839E+04  0.89953757545E+03 0.  0.
        -24    2    4    4    0    0  0.36579123989E+03 -0.21035766576E+03  0.69678127228E+03  0.81861607907E+03  0.81083690118E+02 0.  0.
         24    2    4    4    0    0 -0.33906346035E+03  0.31566384068E+03  0.10021618083E+04  0.11068395048E+04  0.78471070131E+02 0.  0.
         13    1    3    3    0    0 -0.12309849204E+02 -0.11731834563E+03 -0.19761838342E+03  0.23014810899E+03  0.00000000000E+00 0.  1.
        -13    1    3    3    0    0 -0.14417930338E+02  0.12012170707E+02 -0.44468087826E+01  0.19285825590E+02  0.00000000000E+00 0. -1.
          4    1    6    6  502    0 -0.14676982199E+02  0.40666568362E+02  0.11931725409E+03  0.12690859196E+03  0.00000000000E+00 0. -1.
          1    1    5    5  503    0  0.10714262717E+03 -0.33534945197E+02  0.13707219576E+03  0.17718047849E+03  0.00000000000E+00 0. -1.
         -2    1    5    5    0  503  0.25864861272E+03 -0.17682272056E+03  0.55970907652E+03  0.64143560059E+03  0.00000000000E+00 0.  1.
         -3    1    6    6    0  502 -0.32438647815E+03  0.27499727232E+03  0.88284455422E+03  0.97993091282E+03  0.00000000000E+00 0.  1.
<mgrwt>
<rscale>  0 0.15778153E+04</rscale>
<asrwt>0</asrwt>
<pdfrwt beam="1">  1        2 0.28244364E+00 0.15778153E+04</pdfrwt>
<pdfrwt beam="2">  1       -2 0.52154742E-01 0.15778153E+04</pdfrwt>
<totfact> 0.27474602E+01</totfact>
</mgrwt>
</event>
<event>
12    1  0.1472088E-007  0.2750303E+04  0.7818608E-02  0.8318865E-01
          3   -1    0    0  501    0  0.00000000000E+00  0.00000000000E+00  0.11685832784E+04  0.11685832784E+04  0.00000000000E+00 0. -1.
         -3   -1    0    0    0  501 -0.00000000000E+00 -0.00000000000E+00 -0.16182348659E+04  0.16182348659E+04  0.00000000000E+00 0.  1.
         23    2    1    2    0    0  0.38840425610E+03  0.26194141108E+03 -0.13512348622E+04  0.14335256046E+04  0.98431891431E+02 0.  0.
        254    2    1    2    0    0 -0.38840425610E+03 -0.26194141108E+03  0.90158327464E+03  0.13532925397E+04  0.89391114092E+03 0.  0.
        -24    2    4    4    0    0 -0.52163127290E+03 -0.28309238645E+03  0.19711882546E+03  0.63139874340E+03  0.86994584271E+02 0.  0.
         24    2    4    4    0    0  0.13322701679E+03  0.21150975367E+02  0.70446444918E+03  0.72189379628E+03  0.81631435057E+02 0.  0.
         13    1    3    3    0    0  0.25737835364E+03  0.17764760721E+03 -0.10312654212E+04  0.10776412475E+04  0.00000000000E+00 0.  1.
        -13    1    3    3    0    0  0.13102590247E+03  0.84293803876E+02 -0.31996944098E+03  0.35588435713E+03  0.00000000000E+00 0. -1.
          4    1    6    6  502    0  0.31463653946E+02 -0.13714925248E+02  0.65602105899E+02  0.74038483187E+02  0.00000000000E+00 0. -1.
          3    1    5    5  503    0 -0.13093488991E+03 -0.48758571571E+02  0.80004946876E+02  0.16100352550E+03  0.00000000000E+00 0. -1.
         -4    1    5    5    0  503 -0.39069638299E+03 -0.23433381488E+03  0.11711387858E+03  0.47039521791E+03  0.00000000000E+00 0.  1.
         -3    1    6    6    0  502  0.10176336285E+03  0.34865900615E+02  0.63886234328E+03  0.64785531310E+03  0.00000000000E+00 0.  1.
<mgrwt>
<rscale>  0 0.27503034E+04</rscale>
<asrwt>0</asrwt>
<pdfrwt beam="1">  1        3 0.17978204E+00 0.27503034E+04</pdfrwt>
<pdfrwt beam="2">  1       -3 0.24895921E+00 0.27503034E+04</pdfrwt>
<totfact> 0.33547271E-02</totfact>
</mgrwt>
</event>
<event>
12    1  0.1472088E-007  0.1691576E+04  0.7818608E-02  0.8766183E-01
          1   -1    0    0  501    0  0.00000000000E+00  0.00000000000E+00  0.14200911186E+04  0.14200911186E+04  0.00000000000E+00 0. -1.
         -1   -1    0    0    0  501 -0.00000000000E+00 -0.00000000000E+00 -0.50374063543E+03  0.50374063543E+03  0.00000000000E+00 0.  1.
         23    2    1    2    0    0  0.53326989595E+03 -0.41108149357E+02  0.91214237196E+01  0.54238989572E+03  0.89648963972E+02 0.  0.
        254    2    1    2    0    0 -0.53326989595E+03  0.41108149357E+02  0.90722905949E+03  0.13814418584E+04  0.89400804234E+03 0.  0.
        -24    2    4    4    0    0 -0.14402106342E+03 -0.37553898539E+03  0.60857943220E+03  0.73383109787E+03  0.79796983905E+02 0.  0.
         24    2    4    4    0    0 -0.38924883253E+03  0.41664713475E+03  0.29864962729E+03  0.64761076049E+03  0.71404542548E+02 0.  0.
         11    1    3    3    0    0  0.36248088987E+02  0.11449052530E+02 -0.17585782254E+02  0.41883940795E+02  0.00000000000E+00 0. -1.
        -11    1    3    3    0    0  0.49702180696E+03 -0.52557201887E+02  0.26707205973E+02  0.50050595493E+03  0.00000000000E+00 0.  1.
          2    1    6    6  502    0 -0.64104124977E+02  0.67667080770E+02  0.80311123132E+02  0.12303677970E+03  0.00000000000E+00 0. -1.
          3    1    5    5  503    0 -0.51763310429E+02 -0.73368886870E+02  0.93942217604E+02  0.12995219935E+03  0.00000000000E+00 0. -1.
         -4    1    5    5    0  503 -0.92257752992E+02 -0.30217009852E+03  0.51463721460E+03  0.60387889852E+03  0.00000000000E+00 0.  1.
         -1    1    6    6    0  502 -0.32514470755E+03  0.34898005398E+03  0.21833850416E+03  0.52457398079E+03  0.00000000000E+00 0.  1.
<mgrwt>
<rscale>  0 0.16915763E+04</rscale>
<asrwt>0</asrwt>
<pdfrwt beam="1">  1        1 0.21847556E+00 0.16915763E+04</pdfrwt>
<pdfrwt beam="2">  1       -1 0.77498560E-01 0.16915763E+04</pdfrwt>
<totfact> 0.11818630E+01</totfact>
</mgrwt>
</event>
<event>
12    1  0.1472088E-007  0.3023524E+04  0.7818608E-02  0.8237045E-01
          2   -1    0    0  501    0  0.00000000000E+00  0.00000000000E+00  0.22528382780E+04  0.22528382780E+04  0.00000000000E+00 0. -1.
         -2   -1    0    0    0  501 -0.00000000000E+00 -0.00000000000E+00 -0.10144642824E+04  0.10144642824E+04  0.00000000000E+00 0.  1.
         23    2    1    2    0    0  0.49708887837E+03 -0.11718995957E+03  0.19472304358E+04  0.20150590698E+04  0.89027215379E+02 0.  0.
        254    2    1    2    0    0 -0.49708887837E+03  0.11718995957E+03 -0.70885644017E+03  0.12522434906E+04  0.89710950683E+03 0.  0.
        -24    2    4    4    0    0  0.16337037713E+03  0.15472900205E+02  0.95095548272E+02  0.20378720334E+03  0.74543746756E+02 0.  0.
         24    2    4    4    0    0 -0.66045925549E+03  0.10171705936E+03 -0.80395198845E+03  0.10484562872E+04  0.79806003256E+02 0.  0.
         11    1    3    3    0    0  0.36615941608E+03 -0.49874350043E+02  0.14625093764E+04  0.15084740120E+04  0.00000000000E+00 0. -1.
        -11    1    3    3    0    0  0.13092946229E+03 -0.67315609524E+02  0.48472105938E+03  0.50658505780E+03  0.00000000000E+00 0.  1.
          4    1    6    6  502    0 -0.20215729786E+03  0.30840454708E+02 -0.19085232892E+03  0.27972007111E+03  0.00000000000E+00 0. -1.
          1    1    5    5  503    0  0.16433271349E+03  0.15644081238E+02  0.71041505117E+02  0.17971330905E+03  0.00000000000E+00 0. -1.
         -2    1    5    5    0  503 -0.96233636073E+00 -0.17118103271E+00  0.24054043155E+02  0.24073894291E+02  0.00000000000E+00 0.  1.
         -3    1    6    6    0  502 -0.45830195763E+03  0.70876604654E+02 -0.61309965953E+03  0.76873621611E+03  0.00000000000E+00 0.  1.
<mgrwt>
<rscale>  0 0.30235238E+04</rscale>
<asrwt>0</asrwt>
<pdfrwt beam="1">  1        2 0.34659050E+00 0.30235238E+04</pdfrwt>
<pdfrwt beam="2">  1       -2 0.15607143E+00 0.30235238E+04</pdfrwt>
<totfact> 0.11099407E+00</totfact>
</mgrwt>
</event>
<event>
12    1  0.1472088E-007  0.1314189E+04  0.7818608E-02  0.9018389E-01
          2   -1    0    0  501    0  0.00000000000E+00  0.00000000000E+00  0.14781058615E+04  0.14781058615E+04  0.00000000000E+00 0. -1.
         -2   -1    0    0    0  501 -0.00000000000E+00 -0.00000000000E+00 -0.29211231398E+03  0.29211231398E+03  0.00000000000E+00 0.  1.
         23    2    1    2    0    0  0.31553983323E+03  0.11992985176E+03  0.31217336031E+03  0.46969688474E+03  0.95991671253E+02 0.  0.
        254    2    1    2    0    0 -0.31553983323E+03 -0.11992985176E+03  0.87382018717E+03  0.13005212907E+04  0.90213377743E+03 0.  0.
        -24    2    4    4    0    0 -0.57601325027E+02  0.34041365286E+03  0.60889931204E+03  0.70454088410E+03  0.80125635505E+02 0.  0.
         24    2    4    4    0    0 -0.25793850820E+03 -0.46034350462E+03  0.26492087512E+03  0.59598040661E+03  0.81000979802E+02 0.  0.
         13    1    3    3    0    0  0.23888361788E+03  0.10216911248E+03  0.28687882284E+03  0.38704440240E+03  0.00000000000E+00 0.  1.
        -13    1    3    3    0    0  0.76656215347E+02  0.17760739282E+02  0.25294537476E+02  0.82652482342E+02  0.00000000000E+00 0. -1.
          4    1    6    6  502    0 -0.24694274410E+03 -0.40594926994E+03  0.25612822811E+03  0.53979366230E+03  0.00000000000E+00 0. -1.
          3    1    5    5  503    0  0.47289223064E+01  0.13929360235E+03  0.18927969399E+03  0.23505716946E+03  0.00000000000E+00 0. -1.
         -4    1    5    5    0  503 -0.62330247334E+02  0.20112005051E+03  0.41961961806E+03  0.46948371464E+03  0.00000000000E+00 0.  1.
         -3    1    6    6    0  502 -0.10995764103E+02 -0.54394234676E+02  0.87926470168E+01  0.56186744306E+02  0.00000000000E+00 0.  1.
<mgrwt>
<rscale>  0 0.13141886E+04</rscale>
<asrwt>0</asrwt>
<pdfrwt beam="1">  1        2 0.22740090E+00 0.13141886E+04</pdfrwt>
<pdfrwt beam="2">  1       -2 0.44940357E-01 0.13141886E+04</pdfrwt>
<totfact> 0.60035268E+01</totfact>
</mgrwt>
</event>
<event>
12    1  0.1472088E-007  0.1054426E+04  0.7818608E-02  0.9250787E-01
         -1   -1    0    0    0  501 -0.00000000000E+00  0.00000000000E+00  0.37449952714E+03  0.37449952714E+03  0.00000000000E+00 0.  1.
          1   -1    0    0  501    0  0.00000000000E+00 -0.00000000000E+00 -0.74219952920E+03  0.74219952920E+03  0.00000000000E+00 0. -1.
         23    2    1    2    0    0 -0.35188146729E+02 -0.28808528803E+02 -0.16230767667E+03  0.19155522220E+03  0.91002660647E+02 0.  0.
        254    2    1    2    0    0  0.35188146729E+02  0.28808528803E+02 -0.20539232538E+03  0.92514383414E+03  0.90090896850E+03 0.  0.
        -24    2    4    4    0    0  0.28538954321E+03  0.26719533805E+03  0.14782483427E+03  0.42564688186E+03  0.80514261835E+02 0.  0.
         24    2    4    4    0    0 -0.25020139648E+03 -0.23838680925E+03 -0.35321715966E+03  0.49949695228E+03  0.72841154837E+02 0.  0.
         13    1    3    3    0    0 -0.38279242115E+02  0.23978852335E+02 -0.49753947201E+02  0.67199263376E+02  0.00000000000E+00 0.  1.
        -13    1    3    3    0    0  0.30910953854E+01 -0.52787381138E+02 -0.11255372947E+03  0.12435595883E+03  0.00000000000E+00 0. -1.
          2    1    6    6  502    0 -0.93684688158E+02 -0.45828548813E+02 -0.90072149451E+02  0.13780445852E+03  0.00000000000E+00 0. -1.
          1    1    5    5  503    0  0.52299809058E+02  0.18588425501E+02  0.36762433259E+01  0.55626561597E+02  0.00000000000E+00 0. -1.
         -2    1    5    5    0  503  0.23308973415E+03  0.24860691255E+03  0.14414859095E+03  0.37002032026E+03  0.00000000000E+00 0.  1.
         -1    1    6    6    0  502 -0.15651670832E+03 -0.19255826044E+03 -0.26314501021E+03  0.36169249376E+03  0.00000000000E+00 0.  1.
<mgrwt>
<rscale>  0 0.10544257E+04</rscale>
<asrwt>0</asrwt>
<pdfrwt beam="1">  1        1 0.11418454E+00 0.10544257E+04</pdfrwt>
<pdfrwt beam="2">  1       -1 0.57615312E-01 0.10544257E+04</pdfrwt>
<totfact> 0.75914980E+01</totfact>
</mgrwt>
</event>
<event>
12    1  0.1472088E-007  0.1608278E+04  0.7818608E-02  0.8815478E-01
          2   -1    0    0  501    0  0.00000000000E+00  0.00000000000E+00  0.26703709715E+04  0.26703709715E+04  0.00000000000E+00 0.  1.
         -2   -1    0    0    0  501 -0.00000000000E+00 -0.00000000000E+00 -0.24215349908E+03  0.24215349908E+03  0.00000000000E+00 0. -1.
         23    2    1    2    0    0 -0.16901745909E+03  0.51892665015E+03  0.77856353268E+03  0.95522963907E+03  0.91927793510E+02 0.  0.
        254    2    1    2    0    0  0.16901745909E+03 -0.51892665015E+03  0.16496539397E+04  0.19572948315E+04  0.90099565308E+03 0.  0.
        -24    2    4    4    0    0  0.78794386823E+02 -0.13782069013E+03 -0.67701913496E+02  0.19401815620E+03  0.88636323369E+02 0.  0.
         24    2    4    4    0    0  0.90223072271E+02 -0.38110596002E+03  0.17173558532E+04  0.17632766753E+04  0.80321550925E+02 0.  0.
         13    1    3    3    0    0 -0.17345855909E+03  0.51773795406E+03  0.75817092208E+03  0.93432521526E+03  0.00000000000E+00 0. -1.
        -13    1    3    3    0    0  0.44410999917E+01  0.11886960973E+01  0.20392610602E+02  0.20904423807E+02  0.00000000000E+00 0.  1.
          4    1    6    6  502    0  0.61140402182E+02 -0.35524199571E+03  0.15722302238E+04  0.16130229077E+04  0.00000000000E+00 0. -1.
          1    1    5    5  503    0  0.75345654182E+02 -0.71563365267E+02 -0.73705460689E+02  0.12740006981E+03  0.00000000000E+00 0. -1.
         -2    1    5    5    0  503  0.34487326412E+01 -0.66257324864E+02  0.60035471936E+01  0.66618086387E+02  0.00000000000E+00 0.  1.
         -3    1    6    6    0  502  0.29082670089E+02 -0.25863964310E+02  0.14512562948E+03  0.15025376761E+03  0.00000000000E+00 0.  1.
<mgrwt>
<rscale>  0 0.16082782E+04</rscale>
<asrwt>0</asrwt>
<pdfrwt beam="1">  1        2 0.41082628E+00 0.16082782E+04</pdfrwt>
<pdfrwt beam="2">  1       -2 0.37254386E-01 0.16082782E+04</pdfrwt>
<totfact> 0.18060558E+01</totfact>
</mgrwt>
</event>
<event>
12    1  0.1472088E-007  0.1574173E+04  0.7818608E-02  0.8836574E-01
         -2   -1    0    0    0  501 -0.00000000000E+00  0.00000000000E+00  0.21211305233E+03  0.21211305233E+03  0.00000000000E+00 0.  1.
          2   -1    0    0  501    0  0.00000000000E+00 -0.00000000000E+00 -0.29206352853E+04  0.29206352853E+04  0.00000000000E+00 0. -1.
         23    2    1    2    0    0  0.35664452852E+03  0.17139652965E+02 -0.17744035496E+03  0.40973510666E+03  0.94385860378E+02 0.  0.
        254    2    1    2    0    0 -0.35664452852E+03 -0.17139652965E+02 -0.25310818780E+04  0.27230132310E+04  0.93858217299E+03 0.  0.
        -24    2    4    4    0    0 -0.10478316660E+03 -0.43045794993E+03 -0.16944988564E+04  0.17532807338E+04  0.79958729405E+02 0.  0.
         24    2    4    4    0    0 -0.25186136192E+03  0.41331829697E+03 -0.83658302161E+03  0.96973249721E+03  0.79017743933E+02 0.  0.
         13    1    3    3    0    0  0.16985447607E+03 -0.54746439434E+01 -0.13454014725E+03  0.21675231484E+03  0.00000000000E+00 0.  1.
        -13    1    3    3    0    0  0.18679005245E+03  0.22614296909E+02 -0.42900207711E+02  0.19298279182E+03  0.00000000000E+00 0. -1.
          4    1    6    6  502    0 -0.10079211106E+02  0.68708371459E+02 -0.12010987289E+03  0.13874008927E+03  0.00000000000E+00 0. -1.
          1    1    5    5  503    0 -0.87355981674E+02 -0.24122678475E+03 -0.86207205456E+03  0.89943852289E+03  0.00000000000E+00 0. -1.
         -2    1    5    5    0  503 -0.17427184925E+02 -0.18923116519E+03 -0.83242680186E+03  0.85384221089E+03  0.00000000000E+00 0.  1.
         -3    1    6    6    0  502 -0.24178215081E+03  0.34460992551E+03 -0.71647314872E+03  0.83099240794E+03  0.00000000000E+00 0.  1.
<mgrwt>
<rscale>  0 0.15741726E+04</rscale>
<asrwt>0</asrwt>
<pdfrwt beam="1">  1        2 0.44932845E+00 0.15741726E+04</pdfrwt>
<pdfrwt beam="2">  1       -2 0.32632781E-01 0.15741726E+04</pdfrwt>
<totfact> 0.16500631E+01</totfact>
</mgrwt>
</event>
<event>
12    1  0.1472088E-007  0.1692454E+04  0.7818608E-02  0.8765680E-01
          2   -1    0    0  501    0  0.00000000000E+00  0.00000000000E+00  0.87247857551E+03  0.87247857551E+03  0.00000000000E+00 0. -1.
         -2   -1    0    0    0  501 -0.00000000000E+00 -0.00000000000E+00 -0.82076485770E+03  0.82076485770E+03  0.00000000000E+00 0.  1.
         23    2    1    2    0    0 -0.17080666725E+03  0.32040059370E+03  0.49947128976E+03  0.62421500700E+03  0.91330978577E+02 0.  0.
        254    2    1    2    0    0  0.17080666725E+03 -0.32040059370E+03 -0.44775757195E+03  0.10690284262E+04  0.90027966477E+03 0.  0.
        -24    2    4    4    0    0  0.37939255162E+03 -0.42997663759E+03 -0.55134886915E+03  0.79971291303E+03  0.82076492768E+02 0.  0.
         24    2    4    4    0    0 -0.20858588437E+03  0.10957604389E+03  0.10359129720E+03  0.26931551318E+03  0.79276151731E+02 0.  0.
         13    1    3    3    0    0 -0.14468176926E+03  0.25160087544E+03  0.33010621839E+03  0.43955196542E+03  0.00000000000E+00 0. -1.
        -13    1    3    3    0    0 -0.26124897989E+02  0.68799718258E+02  0.16936507137E+03  0.18466304158E+03  0.00000000000E+00 0.  1.
          2    1    6    6  502    0 -0.21557736310E+03  0.10902222511E+03  0.10095119604E+03  0.26182167410E+03  0.00000000000E+00 0. -1.
          3    1    5    5  503    0  0.29594260976E+03 -0.34321081617E+03 -0.47830857202E+03  0.65890422876E+03  0.00000000000E+00 0. -1.
         -4    1    5    5    0  503  0.83449941860E+02 -0.86765821417E+02 -0.73040297128E+02  0.14080868428E+03  0.00000000000E+00 0.  1.
         -1    1    6    6    0  502  0.69914787274E+01  0.55381877816E+00  0.26401011585E+01  0.74938390803E+01  0.00000000000E+00 0.  1.
<mgrwt>
<rscale>  0 0.16924535E+04</rscale>
<asrwt>0</asrwt>
<pdfrwt beam="1">  1        2 0.13422747E+00 0.16924535E+04</pdfrwt>
<pdfrwt beam="2">  1       -2 0.12627152E+00 0.16924535E+04</pdfrwt>
<totfact> 0.13625838E+01</totfact>
</mgrwt>
</event>
<event>
12    1  0.1472088E-007  0.1667440E+04  0.7818608E-02  0.8780155E-01
          1   -1    0    0  501    0  0.00000000000E+00  0.00000000000E+00  0.14603668536E+04  0.14603668536E+04  0.00000000000E+00 0. -1.
         -1   -1    0    0    0  501 -0.00000000000E+00 -0.00000000000E+00 -0.47596901718E+03  0.47596901718E+03  0.00000000000E+00 0.  1.
         23    2    1    2    0    0 -0.96527328476E+02 -0.42246227483E+03  0.81377456388E+03  0.92643371164E+03  0.90876192971E+02 0.  0.
        254    2    1    2    0    0  0.96527328476E+02  0.42246227483E+03  0.17062327251E+03  0.10099021591E+04  0.89610165219E+03 0.  0.
        -24    2    4    4    0    0 -0.37065542653E+03  0.34802116262E+03  0.83706944101E+02  0.52181674892E+03  0.82351029827E+02 0.  0.
         24    2    4    4    0    0  0.46718275501E+03  0.74441112205E+02  0.86916328405E+02  0.48808541019E+03  0.82895800459E+02 0.  0.
         13    1    3    3    0    0 -0.97618217484E+01  0.88991757782E+00  0.11023068531E+02  0.14751039183E+02  0.00000000000E+00 0.  1.
        -13    1    3    3    0    0 -0.86765506727E+02 -0.42335219241E+03  0.80275149535E+03  0.91168267246E+03  0.00000000000E+00 0. -1.
          4    1    6    6  502    0  0.30730144465E+03  0.88106152383E+02  0.63370363940E+02  0.32590286129E+03  0.00000000000E+00 0. -1.
          1    1    5    5  503    0 -0.24871955859E+03  0.19413502138E+03  0.79746124333E+02  0.32543704413E+03  0.00000000000E+00 0. -1.
         -2    1    5    5    0  503 -0.12193586794E+03  0.15388614125E+03  0.39608197687E+01  0.19637970479E+03  0.00000000000E+00 0.  1.
         -3    1    6    6    0  502  0.15988131036E+03 -0.13665040177E+02  0.23545964465E+02  0.16218254890E+03  0.00000000000E+00 0.  1.
<mgrwt>
<rscale>  0 0.16674404E+04</rscale>
<asrwt>0</asrwt>
<pdfrwt beam="1">  1        1 0.22467182E+00 0.16674404E+04</pdfrwt>
<pdfrwt beam="2">  1       -1 0.73226003E-01 0.16674404E+04</pdfrwt>
<totfact> 0.12500783E+01</totfact>
</mgrwt>
</event>
<event>
12    1  0.1472088E-007  0.1695588E+04  0.7818608E-02  0.8763885E-01
          1   -1    0    0  501    0  0.00000000000E+00  0.00000000000E+00  0.48562071932E+03  0.48562071932E+03  0.00000000000E+00 0. -1.
         -1   -1    0    0    0  501 -0.00000000000E+00 -0.00000000000E+00 -0.14800743405E+04  0.14800743405E+04  0.00000000000E+00 0.  1.
         23    2    1    2    0    0  0.43268800701E+03 -0.32545560670E+03 -0.67039824625E+03  0.86652887933E+03  0.91094603553E+02 0.  0.
        254    2    1    2    0    0 -0.43268800701E+03  0.32545560670E+03 -0.32405537488E+03  0.10991661804E+04  0.90000785712E+03 0.  0.
        -24    2    4    4    0    0 -0.44621624367E+02  0.54407679613E+03 -0.33455284483E+03  0.64524194344E+03  0.80005688209E+02 0.  0.
         24    2    4    4    0    0 -0.38806638264E+03 -0.21862118942E+03  0.10497469944E+02  0.45392423699E+03  0.86869294068E+02 0.  0.
         13    1    3    3    0    0  0.22049110845E+03 -0.16558568580E+03 -0.26938493913E+03  0.38549084773E+03  0.00000000000E+00 0.  1.
        -13    1    3    3    0    0  0.21219689856E+03 -0.15986992090E+03 -0.40101330712E+03  0.48103803161E+03  0.00000000000E+00 0. -1.
          2    1    6    6  502    0 -0.54077009042E+02 -0.40190830601E+02 -0.28704819440E+02  0.73236551192E+02  0.00000000000E+00 0. -1.
          3    1    5    5  503    0 -0.31523479031E+02  0.62889542811E+02 -0.40760234215E+02  0.81303265730E+02  0.00000000000E+00 0. -1.
         -4    1    5    5    0  503 -0.13098145336E+02  0.48118725332E+03 -0.29379261061E+03  0.56393867771E+03  0.00000000000E+00 0.  1.
         -1    1    6    6    0  502 -0.33398937360E+03 -0.17843035882E+03  0.39202289384E+02  0.38068768580E+03  0.00000000000E+00 0.  1.
<mgrwt>
<rscale>  0 0.16955881E+04</rscale>
<asrwt>0</asrwt>
<pdfrwt beam="1">  1        1 0.74710881E-01 0.16955881E+04</pdfrwt>
<pdfrwt beam="2">  1       -1 0.22770374E+00 0.16955881E+04</pdfrwt>
<totfact> 0.42942263E+00</totfact>
</mgrwt>
</event>
<event>
12    1  0.1472088E-007  0.2031854E+04  0.7818608E-02  0.8591871E-01
         -1   -1    0    0    0  501 -0.00000000000E+00  0.00000000000E+00  0.71367876271E+03  0.71367876271E+03  0.00000000000E+00 0.  1.
          1   -1    0    0  501    0  0.00000000000E+00 -0.00000000000E+00 -0.14461790708E+04  0.14461790708E+04  0.00000000000E+00 0. -1.
         23    2    1    2    0    0  0.76113584798E+02  0.50088700539E+03 -0.97023263308E+03  0.10981665881E+04  0.89092216257E+02 0.  0.
        254    2    1    2    0    0 -0.76113584798E+02 -0.50088700539E+03  0.23773232502E+03  0.10616912454E+04  0.90221426068E+03 0.  0.
        -24    2    4    4    0    0 -0.30319426408E+03  0.45371359289E+02 -0.14920659318E+03  0.35004653733E+03  0.79275777071E+02 0.  0.
         24    2    4    4    0    0  0.22708067929E+03 -0.54625836468E+03  0.38693891820E+03  0.71164470803E+03  0.82174376595E+02 0.  0.
         13    1    3    3    0    0 -0.17924547874E+02  0.52775207057E+02 -0.12558566869E+03  0.13739822443E+03  0.00000000000E+00 0.  1.
        -13    1    3    3    0    0  0.94038132672E+02  0.44811179833E+03 -0.84464696438E+03  0.96076836367E+03  0.00000000000E+00 0. -1.
          2    1    6    6  502    0  0.21071775158E+03 -0.44601586788E+03  0.34390985933E+03  0.60133694097E+03  0.00000000000E+00 0. -1.
          3    1    5    5  503    0 -0.27068577137E+03  0.65101850834E+02 -0.13546476583E+03  0.30961224231E+03  0.00000000000E+00 0. -1.
         -4    1    5    5    0  503 -0.32508492712E+02 -0.19730491545E+02 -0.13741827358E+02  0.40434295025E+02  0.00000000000E+00 0.  1.
         -1    1    6    6    0  502  0.16362927708E+02 -0.10024249680E+03  0.43029058875E+02  0.11030776707E+03  0.00000000000E+00 0.  1.
<mgrwt>
<rscale>  0 0.20318536E+04</rscale>
<asrwt>0</asrwt>
<pdfrwt beam="1">  1        1 0.22248908E+00 0.20318536E+04</pdfrwt>
<pdfrwt beam="2">  1       -1 0.10979673E+00 0.20318536E+04</pdfrwt>
<totfact> 0.50568330E+00</totfact>
</mgrwt>
</event>
<event>
12    1  0.1472088E-007  0.2493387E+04  0.7818608E-02  0.8405345E-01
         -1   -1    0    0    0  501 -0.00000000000E+00  0.00000000000E+00  0.77089372009E+03  0.77089372009E+03  0.00000000000E+00 0.  1.
          1   -1    0    0  501    0  0.00000000000E+00 -0.00000000000E+00 -0.20161593495E+04  0.20161593495E+04  0.00000000000E+00 0. -1.
         23    2    1    2    0    0 -0.63273749803E+03  0.50716164170E+03  0.22895195485E+03  0.84759325916E+03  0.91791410907E+02 0.  0.
        254    2    1    2    0    0  0.63273749803E+03 -0.50716164170E+03 -0.14742175843E+04  0.19394598105E+04  0.96468502544E+03 0.  0.
        -24    2    4    4    0    0  0.18951052323E+03 -0.72485870745E+03 -0.98212691339E+03  0.12378466336E+04  0.79728477491E+02 0.  0.
         24    2    4    4    0    0  0.44322697480E+03  0.21769706575E+03 -0.49209067091E+03  0.70161317686E+03  0.79155908953E+02 0.  0.
         11    1    3    3    0    0 -0.28893694049E+03  0.27063918762E+03  0.14711097668E+03  0.42234081607E+03  0.00000000000E+00 0.  1.
        -11    1    3    3    0    0 -0.34380055754E+03  0.23652245408E+03  0.81840978171E+02  0.42525244309E+03  0.00000000000E+00 0. -1.
          2    1    6    6  502    0  0.42843203560E+03  0.19355632143E+03 -0.47610060403E+03  0.66909628892E+03  0.00000000000E+00 0. -1.
          3    1    5    5  503    0  0.19297002299E+03 -0.72386595506E+03 -0.97264216049E+03  0.12277019683E+04  0.00000000000E+00 0. -1.
         -4    1    5    5    0  503 -0.34594997567E+01 -0.99275238374E+00 -0.94847528944E+01  0.10144665265E+02  0.00000000000E+00 0.  1.
         -1    1    6    6    0  502  0.14794939200E+02  0.24140744322E+02 -0.15990066881E+02  0.32516887939E+02  0.00000000000E+00 0.  1.
<mgrwt>
<rscale>  0 0.24933869E+04</rscale>
<asrwt>0</asrwt>
<pdfrwt beam="1">  1        1 0.31017836E+00 0.24933869E+04</pdfrwt>
<pdfrwt beam="2">  1       -1 0.11859903E+00 0.24933869E+04</pdfrwt>
<totfact> 0.16453679E+00</totfact>
</mgrwt>
</event>
<event>
12    1  0.1472088E-007  0.2320210E+04  0.7818608E-02  0.8469995E-01
         -2   -1    0    0    0  501 -0.00000000000E+00  0.00000000000E+00  0.55312973959E+03  0.55312973959E+03  0.00000000000E+00 0.  1.
          2   -1    0    0  501    0  0.00000000000E+00 -0.00000000000E+00 -0.24331425836E+04  0.24331425836E+04  0.00000000000E+00 0. -1.
         23    2    1    2    0    0 -0.15261319277E+03  0.87576475409E+03 -0.13358825731E+04  0.16072609488E+04  0.91928326232E+02 0.  0.
        254    2    1    2    0    0  0.15261319277E+03 -0.87576475409E+03 -0.54413027094E+03  0.13790113745E+04  0.90296175336E+03 0.  0.
        -24    2    4    4    0    0  0.97398184912E+02 -0.73903926106E+03 -0.78458785396E+03  0.10849921912E+04  0.77230295396E+02 0.  0.
         24    2    4    4    0    0  0.55215007858E+02 -0.13672549304E+03  0.24045758302E+03  0.29401918329E+03  0.82975137063E+02 0.  0.
         11    1    3    3    0    0 -0.13027780313E+03  0.64726851041E+03 -0.10538712096E+04  0.12436130254E+04  0.00000000000E+00 0.  1.
        -11    1    3    3    0    0 -0.22335389638E+02  0.22849624368E+03 -0.28201136351E+03  0.36364792335E+03  0.00000000000E+00 0. -1.
          2    1    6    6  502    0  0.34491416759E+02 -0.14324398891E+03  0.20550159419E+03  0.25286241991E+03  0.00000000000E+00 0. -1.
          3    1    5    5  503    0  0.84181705356E+02 -0.62207890919E+03 -0.69870837530E+03  0.93928809345E+03  0.00000000000E+00 0. -1.
         -4    1    5    5    0  503  0.13216479555E+02 -0.11696035186E+03 -0.85879478656E+02  0.14570409773E+03  0.00000000000E+00 0.  1.
         -1    1    6    6    0  502  0.20723591099E+02  0.65184958740E+01  0.34955988832E+02  0.41156763377E+02  0.00000000000E+00 0.  1.
<mgrwt>
<rscale>  0 0.23202099E+04</rscale>
<asrwt>0</asrwt>
<pdfrwt beam="1">  1        2 0.37432963E+00 0.23202099E+04</pdfrwt>
<pdfrwt beam="2">  1       -2 0.85096882E-01 0.23202099E+04</pdfrwt>
<totfact> 0.41385117E+00</totfact>
</mgrwt>
</event>
<event>
12    1  0.1571018E-007  0.2072219E+04  0.7818608E-02  0.8573581E-01
          2   -1    0    0  501    0  0.00000000000E+00  0.00000000000E+00  0.12100101637E+04  0.12100101637E+04  0.00000000000E+00 0. -1.
         -2   -1    0    0    0  501 -0.00000000000E+00 -0.00000000000E+00 -0.88720139833E+03  0.88720139833E+03  0.00000000000E+00 0.  1.
         23    2    1    2    0    0  0.48356384470E+02  0.37939079495E+03  0.88809010907E+03  0.97078304938E+03  0.86255271908E+02 0.  0.
        254    2    1    2    0    0 -0.48356384470E+02 -0.37939079495E+03 -0.56528134374E+03  0.11264285126E+04  0.89611521648E+03 0.  0.
        -24    2    4    4    0    0 -0.15160443094E+03 -0.39054589405E+03 -0.77157372598E+03  0.88160349092E+03  0.79929354720E+02 0.  0.
         24    2    4    4    0    0  0.10324804647E+03  0.11155099100E+02  0.20629238224E+03  0.24482502168E+03  0.81228990733E+02 0.  0.
         13    1    3    3    0    0  0.24384741672E+02  0.32005684562E+03  0.79923412049E+03  0.86128170734E+03  0.00000000000E+00 0. -1.
        -13    1    3    3    0    0  0.23971642798E+02  0.59333949333E+02  0.88855988585E+02  0.10950134204E+03  0.00000000000E+00 0.  1.
          4    1    6    6  502    0  0.34340123852E+02  0.25704972445E+00  0.89126119729E+01  0.35478794130E+02  0.00000000000E+00 0. -1.
          3    1    5    5  503    0 -0.42530923072E+02 -0.46491713616E+02 -0.83441854836E+02  0.10456051832E+03  0.00000000000E+00 0. -1.
         -4    1    5    5    0  503 -0.10907350787E+03 -0.34405418043E+03 -0.68813187114E+03  0.77704297261E+03  0.00000000000E+00 0.  1.
         -3    1    6    6    0  502  0.68907922618E+02  0.10898049376E+02  0.19737977026E+03  0.20934622755E+03  0.00000000000E+00 0.  1.
<mgrwt>
<rscale>  0 0.20722188E+04</rscale>
<asrwt>0</asrwt>
<pdfrwt beam="1">  1        2 0.18615541E+00 0.20722188E+04</pdfrwt>
<pdfrwt beam="2">  1       -2 0.13649252E+00 0.20722188E+04</pdfrwt>
<totfact> 0.66191483E+00</totfact>
</mgrwt>
</event>
<event>
12    1  0.1472088E-007  0.1707862E+04  0.7818608E-02  0.8756893E-01
         -1   -1    0    0    0  501 -0.00000000000E+00  0.00000000000E+00  0.23161404076E+03  0.23161404076E+03  0.00000000000E+00 0.  1.
          1   -1    0    0  501    0  0.00000000000E+00 -0.00000000000E+00 -0.31483322072E+04  0.31483322072E+04  0.00000000000E+00 0. -1.
         23    2    1    2    0    0 -0.39504461066E+02  0.51112660393E+03 -0.41218762203E+03  0.66344179497E+03  0.86286568291E+02 0.  0.
        254    2    1    2    0    0  0.39504461066E+02 -0.51112660393E+03 -0.25045305444E+04  0.27165044530E+04  0.91864693306E+03 0.  0.
        -24    2    4    4    0    0 -0.16508231174E+03 -0.17265270099E+03 -0.21933889762E+04  0.22078446089E+04  0.81003033158E+02 0.  0.
         24    2    4    4    0    0  0.20458677281E+03 -0.33847390294E+03 -0.31114156824E+03  0.50865984412E+03  0.74198591325E+02 0.  0.
         11    1    3    3    0    0 -0.63901482726E+02  0.32025037707E+03 -0.27770767274E+03  0.42867849842E+03  0.00000000000E+00 0. -1.
        -11    1    3    3    0    0  0.24397021660E+02  0.19087622686E+03 -0.13447994930E+03  0.23476329655E+03  0.00000000000E+00 0.  1.
          4    1    6    6  502    0  0.42198388401E+02 -0.79588358110E+02 -0.11271715177E+03  0.14429195069E+03  0.00000000000E+00 0. -1.
          3    1    5    5  503    0 -0.40299865575E+02 -0.15292633166E+02 -0.65267009499E+03  0.65409188704E+03  0.00000000000E+00 0. -1.
         -2    1    5    5    0  503 -0.12478244617E+03 -0.15736006782E+03 -0.15407188812E+04  0.15537527218E+04  0.00000000000E+00 0.  1.
         -3    1    6    6    0  502  0.16238838441E+03 -0.25888554483E+03 -0.19842441647E+03  0.36436789343E+03  0.00000000000E+00 0.  1.
<mgrwt>
<rscale>  0 0.17078618E+04</rscale>
<asrwt>0</asrwt>
<pdfrwt beam="1">  1        1 0.48435877E+00 0.17078618E+04</pdfrwt>
<pdfrwt beam="2">  1       -1 0.35632932E-01 0.17078618E+04</pdfrwt>
<totfact> 0.33364721E+00</totfact>
</mgrwt>
</event>
<event>
12    1  0.1472088E-007  0.1305050E+04  0.7818608E-02  0.9025570E-01
          2   -1    0    0  501    0  0.00000000000E+00  0.00000000000E+00  0.15157559118E+04  0.15157559118E+04  0.00000000000E+00 0. -1.
         -2   -1    0    0    0  501 -0.00000000000E+00 -0.00000000000E+00 -0.28090870671E+03  0.28090870671E+03  0.00000000000E+00 0.  1.
         23    2    1    2    0    0 -0.13647027120E+03  0.23116945744E+03  0.60437768276E+03  0.66724466225E+03  0.88767127361E+02 0.  0.
        254    2    1    2    0    0  0.13647027120E+03 -0.23116945744E+03  0.63046952231E+03  0.11294199562E+04  0.89779405546E+03 0.  0.
        -24    2    4    4    0    0  0.29065843457E+03 -0.42768590741E+03  0.68136970281E+03  0.85941431250E+03  0.83250991761E+02 0.  0.
         24    2    4    4    0    0 -0.15418816337E+03  0.19651644997E+03 -0.50900180500E+02  0.27000564374E+03  0.88991653794E+02 0.  0.
         13    1    3    3    0    0 -0.37964950205E+02  0.97970398670E+02  0.33412819106E+03  0.35025873940E+03  0.00000000000E+00 0.  1.
        -13    1    3    3    0    0 -0.98505320996E+02  0.13319905877E+03  0.27024949170E+03  0.31698592285E+03  0.00000000000E+00 0. -1.
          2    1    6    6  502    0  0.25671312411E+01  0.49392689733E+02 -0.17386176079E+02  0.52426206047E+02  0.00000000000E+00 0. -1.
          3    1    5    5  503    0  0.20268434828E+02 -0.20039572110E+02  0.75622666712E+02  0.80815726324E+02  0.00000000000E+00 0. -1.
         -4    1    5    5    0  503  0.27038999974E+03 -0.40764633530E+03  0.60574703610E+03  0.77859858617E+03  0.00000000000E+00 0.  1.
         -3    1    6    6    0  502 -0.15675529461E+03  0.14712376024E+03 -0.33514004421E+02  0.21757943770E+03  0.00000000000E+00 0.  1.
<mgrwt>
<rscale>  0 0.13050502E+04</rscale>
<asrwt>0</asrwt>
<pdfrwt beam="1">  1        2 0.23319321E+00 0.13050502E+04</pdfrwt>
<pdfrwt beam="2">  1       -2 0.43216725E-01 0.13050502E+04</pdfrwt>
<totfact> 0.61840484E+01</totfact>
</mgrwt>
</event>
<event>
12    1  0.1472088E-007  0.1581067E+04  0.7818608E-02  0.8832264E-01
         -1   -1    0    0    0  501 -0.00000000000E+00  0.00000000000E+00  0.57364318637E+03  0.57364318637E+03  0.00000000000E+00 0.  1.
          1   -1    0    0  501    0  0.00000000000E+00 -0.00000000000E+00 -0.10894288466E+04  0.10894288466E+04  0.00000000000E+00 0. -1.
         23    2    1    2    0    0  0.37966644340E+03 -0.19542142759E+03  0.15149613946E+03  0.46234313416E+03  0.92054064731E+02 0.  0.
        254    2    1    2    0    0 -0.37966644340E+03  0.19542142759E+03 -0.66728179971E+03  0.12007288988E+04  0.90230191491E+03 0.  0.
        -24    2    4    4    0    0  0.23530605715E+03  0.18165112764E+03 -0.26852662414E+02  0.30910175099E+03  0.80353931329E+02 0.  0.
         24    2    4    4    0    0 -0.61497250055E+03  0.13770299946E+02 -0.64042913730E+03  0.89162714784E+03  0.80428187102E+02 0.  0.
         13    1    3    3    0    0  0.37029918126E+03 -0.19549912268E+03  0.16134877790E+03  0.44874805709E+03  0.00000000000E+00 0.  1.
        -13    1    3    3    0    0  0.93672621377E+01  0.77695087120E-01 -0.98526384405E+01  0.13595077077E+02  0.00000000000E+00 0. -1.
          4    1    6    6  502    0 -0.44574398597E+03  0.43086933407E+02 -0.44237084248E+03  0.62947291216E+03  0.00000000000E+00 0. -1.
          1    1    5    5  503    0  0.21413725274E+03  0.13803804864E+03 -0.42215276409E+02  0.25824677238E+03  0.00000000000E+00 0. -1.
         -2    1    5    5    0  503  0.21168804412E+02  0.43613079008E+02  0.15362613995E+02  0.50854978611E+02  0.00000000000E+00 0.  1.
         -3    1    6    6    0  502 -0.16922851457E+03 -0.29316633461E+02 -0.19805829482E+03  0.26215423569E+03  0.00000000000E+00 0.  1.
<mgrwt>
<rscale>  0 0.15810673E+04</rscale>
<asrwt>0</asrwt>
<pdfrwt beam="1">  1        1 0.16760444E+00 0.15810673E+04</pdfrwt>
<pdfrwt beam="2">  1       -1 0.88252799E-01 0.15810673E+04</pdfrwt>
<totfact> 0.15655919E+01</totfact>
</mgrwt>
</event>
<event>
12    1  0.1472088E-007  0.1490556E+04  0.7818608E-02  0.8890758E-01
         -1   -1    0    0    0  501 -0.00000000000E+00  0.00000000000E+00  0.41100406498E+03  0.41100406498E+03  0.00000000000E+00 0.  1.
          1   -1    0    0  501    0  0.00000000000E+00 -0.00000000000E+00 -0.13514198904E+04  0.13514198904E+04  0.00000000000E+00 0. -1.
         23    2    1    2    0    0  0.98462570500E+02 -0.48919071868E+03 -0.35150950365E+03  0.61704423799E+03  0.90455643591E+02 0.  0.
        254    2    1    2    0    0 -0.98462570500E+02  0.48919071868E+03 -0.58890632179E+03  0.11453797174E+04  0.84621605054E+03 0.  0.
        -24    2    4    4    0    0  0.12019658037E+03  0.36936531901E+02  0.17347522072E+03  0.22853785007E+03  0.79525916475E+02 0.  0.
         24    2    4    4    0    0 -0.21865915087E+03  0.45225418677E+03 -0.76238154251E+03  0.91684186734E+03  0.83831495455E+02 0.  0.
         13    1    3    3    0    0  0.95327219790E+00 -0.95537802803E+01  0.56477675754E+01  0.11139152756E+02  0.00000000000E+00 0.  1.
        -13    1    3    3    0    0  0.97509298302E+02 -0.47963693840E+03 -0.35715727122E+03  0.60590508524E+03  0.00000000000E+00 0. -1.
          4    1    6    6  502    0 -0.91253255421E+02  0.28324530670E+03 -0.45207141374E+03  0.54122418970E+03  0.00000000000E+00 0. -1.
          1    1    5    5  503    0  0.12479037705E+03  0.18760669854E+02  0.16560443905E+03  0.20820526211E+03  0.00000000000E+00 0. -1.
         -2    1    5    5    0  503 -0.45937966819E+01  0.18175862047E+02  0.78707816682E+01  0.20332587961E+02  0.00000000000E+00 0.  1.
         -3    1    6    6    0  502 -0.12740589545E+03  0.16900888007E+03 -0.31031012878E+03  0.37561767764E+03  0.00000000000E+00 0.  1.
<mgrwt>
<rscale>  0 0.14905557E+04</rscale>
<asrwt>0</asrwt>
<pdfrwt beam="1">  1        1 0.20791075E+00 0.14905557E+04</pdfrwt>
<pdfrwt beam="2">  1       -1 0.63231394E-01 0.14905557E+04</pdfrwt>
<totfact> 0.20416896E+01</totfact>
</mgrwt>
</event>
<event>
12    1  0.1472088E-007  0.1687533E+04  0.7818608E-02  0.8768507E-01
          1   -1    0    0  501    0  0.00000000000E+00  0.00000000000E+00  0.21750270465E+04  0.21750270465E+04  0.00000000000E+00 0. -1.
         -1   -1    0    0    0  501 -0.00000000000E+00 -0.00000000000E+00 -0.32732567446E+03  0.32732567446E+03  0.00000000000E+00 0.  1.
         23    2    1    2    0    0 -0.42562505439E+03 -0.53895291877E+02  0.12812412434E+04  0.13541854838E+04  0.90431253001E+02 0.  0.
        254    2    1    2    0    0  0.42562505439E+03  0.53895291877E+02  0.56646012865E+03  0.11481672371E+04  0.90185893443E+03 0.  0.
        -24    2    4    4    0    0 -0.14580470803E+03  0.32238588338E+03  0.21461707342E+03  0.42126138742E+03  0.78797193109E+02 0.  0.
         24    2    4    4    0    0  0.57142976242E+03 -0.26849059150E+03  0.35184305523E+03  0.72690584968E+03  0.77326629902E+02 0.  0.
         11    1    3    3    0    0 -0.14373629784E+03 -0.44534095219E+01  0.56173898721E+03  0.57985398673E+03  0.00000000000E+00 0.  1.
        -11    1    3    3    0    0 -0.28188875654E+03 -0.49441882355E+02  0.71950225616E+03  0.77433149711E+03  0.00000000000E+00 0. -1.
          2    1    6    6  502    0  0.12800151109E+03 -0.30894342759E+02  0.54331334620E+02  0.14244557268E+03  0.00000000000E+00 0. -1.
          3    1    5    5  503    0 -0.52671949245E+02  0.21009128388E+03  0.12971841256E+03  0.25246692527E+03  0.00000000000E+00 0. -1.
         -4    1    5    5    0  503 -0.93132758784E+02  0.11229459950E+03  0.84898660867E+02  0.16879446215E+03  0.00000000000E+00 0.  1.
         -1    1    6    6    0  502  0.44342825133E+03 -0.23759624874E+03  0.29751172061E+03  0.58446027700E+03  0.00000000000E+00 0.  1.
<mgrwt>
<rscale>  0 0.16875333E+04</rscale>
<asrwt>0</asrwt>
<pdfrwt beam="1">  1        1 0.33461954E+00 0.16875333E+04</pdfrwt>
<pdfrwt beam="2">  1       -1 0.50357797E-01 0.16875333E+04</pdfrwt>
<totfact> 0.85513465E+00</totfact>
</mgrwt>
</event>
<event>
12    1  0.1472088E-007  0.1481160E+04  0.7818608E-02  0.8897079E-01
          1   -1    0    0  501    0  0.00000000000E+00  0.00000000000E+00  0.73824322859E+03  0.73824322859E+03  0.00000000000E+00 0. -1.
         -1   -1    0    0    0  501 -0.00000000000E+00 -0.00000000000E+00 -0.74292402618E+03  0.74292402618E+03  0.00000000000E+00 0.  1.
         23    2    1    2    0    0 -0.36559187755E+03 -0.14667579086E+03  0.23826453099E+03  0.46961525174E+03  0.92721569169E+02 0.  0.
        254    2    1    2    0    0  0.36559187755E+03  0.14667579086E+03 -0.24294532857E+03  0.10115520030E+04  0.89946862848E+03 0.  0.
        -24    2    4    4    0    0  0.36358784634E+03  0.48567674593E+03 -0.51556582965E+02  0.61431786000E+03  0.81549545230E+02 0.  0.
         24    2    4    4    0    0  0.20040312061E+01 -0.33900095507E+03 -0.19138874560E+03  0.39723414303E+03  0.78991447435E+02 0.  0.
         13    1    3    3    0    0 -0.36452464715E+03 -0.13666717434E+03  0.21606804470E+03  0.44524323112E+03  0.00000000000E+00 0. -1.
        -13    1    3    3    0    0 -0.10672303942E+01 -0.10008616518E+02  0.22196486287E+02  0.24372020614E+02  0.00000000000E+00 0.  1.
          2    1    6    6  502    0 -0.30816858995E+02 -0.26707213536E+03 -0.15320699210E+03  0.30943430112E+03  0.00000000000E+00 0. -1.
          1    1    5    5  503    0  0.34563057320E+03  0.41937678595E+03 -0.46999530767E+02  0.54547808170E+03  0.00000000000E+00 0. -1.
         -2    1    5    5    0  503  0.17957273142E+02  0.66299959975E+02 -0.45570521971E+01  0.68839778298E+02  0.00000000000E+00 0.  1.
         -1    1    6    6    0  502  0.32820890201E+02 -0.71928819711E+02 -0.38181753499E+02  0.87799841907E+02  0.00000000000E+00 0.  1.
<mgrwt>
<rscale>  0 0.14811599E+04</rscale>
<asrwt>0</asrwt>
<pdfrwt beam="1">  1        1 0.11357588E+00 0.14811599E+04</pdfrwt>
<pdfrwt beam="2">  1       -1 0.11429600E+00 0.14811599E+04</pdfrwt>
<totfact> 0.16947562E+01</totfact>
</mgrwt>
</event>
<event>
12    1  0.2407678E-007  0.2007350E+04  0.7818608E-02  0.8603192E-01
         -1   -1    0    0    0  501 -0.00000000000E+00  0.00000000000E+00  0.10093749414E+04  0.10093749414E+04  0.00000000000E+00 0.  1.
          1   -1    0    0  501    0  0.00000000000E+00 -0.00000000000E+00 -0.99800751113E+03  0.99800751113E+03  0.00000000000E+00 0. -1.
         23    2    1    2    0    0 -0.57819349501E+03 -0.29491124680E+03 -0.31406730035E+03  0.72686245122E+03  0.91708193092E+02 0.  0.
        254    2    1    2    0    0  0.57819349501E+03  0.29491124680E+03  0.32543473066E+03  0.12805200013E+04  0.10547717046E+04 0.  0.
        -24    2    4    4    0    0  0.18613333121E+03 -0.18267020096E+02  0.64776726908E+03  0.67892372474E+03  0.79722569689E+02 0.  0.
         24    2    4    4    0    0  0.39206016381E+03  0.31317826689E+03 -0.32233253841E+03  0.60159627661E+03  0.78917778789E+02 0.  0.
         11    1    3    3    0    0 -0.19511972858E+02 -0.82812855290E+00 -0.26963268325E+02  0.33292953015E+02  0.00000000000E+00 0.  1.
        -11    1    3    3    0    0 -0.55868152216E+03 -0.29408311825E+03 -0.28710403203E+03  0.69356949821E+03  0.00000000000E+00 0. -1.
          4    1    6    6  502    0  0.39164494248E+03  0.31269951804E+03 -0.31009727060E+03  0.58934460783E+03  0.00000000000E+00 0. -1.
          1    1    5    5  503    0  0.12852246545E+03  0.16099388557E+01  0.54030906030E+03  0.55538679916E+03  0.00000000000E+00 0. -1.
         -2    1    5    5    0  503  0.57610865756E+02 -0.19876958952E+02  0.10745820877E+03  0.12353692558E+03  0.00000000000E+00 0.  1.
         -3    1    6    6    0  502  0.41522132827E+00  0.47874885561E+00 -0.12235267816E+02  0.12251668774E+02  0.00000000000E+00 0.  1.
<mgrwt>
<rscale>  0 0.20073503E+04</rscale>
<asrwt>0</asrwt>
<pdfrwt beam="1">  1        1 0.15353962E+00 0.20073503E+04</pdfrwt>
<pdfrwt beam="2">  1       -1 0.15528845E+00 0.20073503E+04</pdfrwt>
<totfact> 0.44700206E+00</totfact>
</mgrwt>
</event>
<event>
12    1  0.1472088E-007  0.2373213E+04  0.7818608E-02  0.8449601E-01
         -1   -1    0    0    0  501 -0.00000000000E+00  0.00000000000E+00  0.41972570937E+03  0.41972570937E+03  0.00000000000E+00 0.  1.
          1   -1    0    0  501    0  0.00000000000E+00 -0.00000000000E+00 -0.33546562260E+04  0.33546562260E+04  0.00000000000E+00 0. -1.
         23    2    1    2    0    0  0.55772774965E+03  0.50402800923E+03 -0.18274712423E+03  0.77894961298E+03  0.90892856279E+02 0.  0.
        254    2    1    2    0    0 -0.55772774965E+03 -0.50402800923E+03 -0.27521833924E+04  0.29954323224E+04  0.91268663618E+03 0.  0.
        -24    2    4    4    0    0 -0.23341159990E+03  0.12974832327E+03 -0.19089760756E+03  0.33582617263E+03  0.70864090291E+02 0.  0.
         24    2    4    4    0    0 -0.32431614975E+03 -0.63377633250E+03 -0.25612857849E+04  0.26596061498E+04  0.80415145591E+02 0.  0.
         11    1    3    3    0    0  0.30836613793E+03  0.30966394139E+03 -0.66250705364E+02  0.44200745195E+03  0.00000000000E+00 0.  1.
        -11    1    3    3    0    0  0.24936161172E+03  0.19436406784E+03 -0.11649641887E+03  0.33694216102E+03  0.00000000000E+00 0. -1.
          4    1    6    6  502    0 -0.28401457801E+03 -0.59905232092E+03 -0.23500266299E+04  0.24417520605E+04  0.00000000000E+00 0. -1.
          1    1    5    5  503    0 -0.23440131306E+03  0.13515854938E+03 -0.18882080927E+03  0.32994712766E+03  0.00000000000E+00 0. -1.
         -2    1    5    5    0  503  0.98971316117E+00 -0.54102261082E+01 -0.20767982884E+01  0.58790449747E+01  0.00000000000E+00 0.  1.
         -3    1    6    6    0  502 -0.40301571737E+02 -0.34724011584E+02 -0.21125915498E+03  0.21785408931E+03  0.00000000000E+00 0.  1.
<mgrwt>
<rscale>  0 0.23732134E+04</rscale>
<asrwt>0</asrwt>
<pdfrwt beam="1">  1        1 0.51610095E+00 0.23732134E+04</pdfrwt>
<pdfrwt beam="2">  1       -1 0.64573187E-01 0.23732134E+04</pdfrwt>
<totfact> 0.70920175E-01</totfact>
</mgrwt>
</event>
<event>
12    1  0.1472088E-007  0.1157940E+04  0.7818608E-02  0.9150490E-01
         -2   -1    0    0    0  501 -0.00000000000E+00  0.00000000000E+00  0.17152875981E+03  0.17152875981E+03  0.00000000000E+00 0. -1.
          2   -1    0    0  501    0  0.00000000000E+00 -0.00000000000E+00 -0.19542271646E+04  0.19542271646E+04  0.00000000000E+00 0.  1.
         23    2    1    2    0    0 -0.15171075452E+03 -0.15084640936E+03 -0.20735312326E+03  0.31174525695E+03  0.91755082993E+02 0.  0.
        254    2    1    2    0    0  0.15171075452E+03  0.15084640936E+03 -0.15753452815E+04  0.18140106675E+04  0.87358522960E+03 0.  0.
        -24    2    4    4    0    0  0.89114833859E+02  0.50964649020E+03 -0.84336878168E+03  0.99262940139E+03  0.79757306882E+02 0.  0.
         24    2    4    4    0    0  0.62595920658E+02 -0.35880008085E+03 -0.73197649986E+03  0.82138126608E+03  0.78878644901E+02 0.  0.
         11    1    3    3    0    0  0.10646331028E+02 -0.15531388700E+01 -0.32606123340E+01  0.11242250553E+02  0.00000000000E+00 0.  1.
        -11    1    3    3    0    0 -0.16235708555E+03 -0.14929327049E+03 -0.20409251093E+03  0.30050300640E+03  0.00000000000E+00 0. -1.
          2    1    6    6  502    0  0.39330272901E+02 -0.14292038029E+03 -0.22015647469E+03  0.26540907825E+03  0.00000000000E+00 0. -1.
          1    1    5    5  503    0  0.26599712826E+02  0.25287377282E+03 -0.48176837522E+03  0.54475082108E+03  0.00000000000E+00 0. -1.
         -2    1    5    5    0  503  0.62515121033E+02  0.25677271739E+03 -0.36160040646E+03  0.44787858031E+03  0.00000000000E+00 0.  1.
         -1    1    6    6    0  502  0.23265647758E+02 -0.21587970056E+03 -0.51182002516E+03  0.55597218783E+03  0.00000000000E+00 0.  1.
<mgrwt>
<rscale>  0 0.11579398E+04</rscale>
<asrwt>0</asrwt>
<pdfrwt beam="1">  1        2 0.30065031E+00 0.11579398E+04</pdfrwt>
<pdfrwt beam="2">  1       -2 0.26389042E-01 0.11579398E+04</pdfrwt>
<totfact> 0.91236079E+01</totfact>
</mgrwt>
</event>
<event>
12    1  0.1472088E-007  0.2505980E+04  0.7818608E-02  0.8400858E-01
          1   -1    0    0  501    0  0.00000000000E+00  0.00000000000E+00  0.91872222869E+03  0.91872222869E+03  0.00000000000E+00 0. -1.
         -1   -1    0    0    0  501 -0.00000000000E+00 -0.00000000000E+00 -0.17088774340E+04  0.17088774340E+04  0.00000000000E+00 0.  1.
         23    2    1    2    0    0  0.15678097961E+03 -0.98414738552E+03  0.11815208469E+03  0.10072288243E+04  0.86160532931E+02 0.  0.
        254    2    1    2    0    0 -0.15678097961E+03  0.98414738552E+03 -0.90830729003E+03  0.16203708384E+04  0.89858397982E+03 0.  0.
        -24    2    4    4    0    0 -0.41079230505E+03  0.11784872967E+03 -0.31549929500E+03  0.53729956228E+03  0.80699278228E+02 0.  0.
         24    2    4    4    0    0  0.25401132544E+03  0.86629865585E+03 -0.59280799503E+03  0.10830712761E+04  0.81406115183E+02 0.  0.
         11    1    3    3    0    0  0.98021066667E+02 -0.82084266904E+03  0.93992357684E+02  0.83200082941E+03  0.00000000000E+00 0. -1.
        -11    1    3    3    0    0  0.58759912943E+02 -0.16330471648E+03  0.24159727005E+02  0.17522799492E+03  0.00000000000E+00 0.  1.
          2    1    6    6  502    0  0.97337068909E+02  0.37302850744E+03 -0.20729575247E+03  0.43771714764E+03  0.00000000000E+00 0. -1.
          1    1    5    5  503    0 -0.23141880310E+03  0.70473263725E+02 -0.22703944409E+03  0.33176505618E+03  0.00000000000E+00 0. -1.
         -2    1    5    5    0  503 -0.17937350194E+03  0.47375465948E+02 -0.88459850908E+02  0.20553450610E+03  0.00000000000E+00 0.  1.
         -1    1    6    6    0  502  0.15667425653E+03  0.49327014841E+03 -0.38551224256E+03  0.64535412847E+03  0.00000000000E+00 0.  1.
<mgrwt>
<rscale>  0 0.25059798E+04</rscale>
<asrwt>0</asrwt>
<pdfrwt beam="1">  1        1 0.14134188E+00 0.25059798E+04</pdfrwt>
<pdfrwt beam="2">  1       -1 0.26290422E+00 0.25059798E+04</pdfrwt>
<totfact> 0.89608503E-01</totfact>
</mgrwt>
</event>
<event>
12    1  0.1472088E-007  0.2397285E+04  0.7818608E-02  0.8440521E-01
          1   -1    0    0  501    0  0.00000000000E+00  0.00000000000E+00  0.13388260663E+04  0.13388260663E+04  0.00000000000E+00 0.  1.
         -1   -1    0    0    0  501 -0.00000000000E+00 -0.00000000000E+00 -0.10731368811E+04  0.10731368811E+04  0.00000000000E+00 0. -1.
         23    2    1    2    0    0  0.34925664062E+03 -0.52146871348E+03 -0.69917542779E+03  0.94331682564E+03  0.84205311934E+02 0.  0.
        254    2    1    2    0    0 -0.34925664062E+03  0.52146871348E+03  0.96486461297E+03  0.14686461217E+04  0.91216659076E+03 0.  0.
        -24    2    4    4    0    0  0.26788983775E+03  0.19173222683E+03  0.56413461554E+03  0.65826397339E+03  0.80854079890E+02 0.  0.
         24    2    4    4    0    0 -0.61714647837E+03  0.32973648665E+03  0.40072999743E+03  0.81038214832E+03  0.80862655658E+02 0.  0.
         13    1    3    3    0    0  0.26232995243E+03 -0.32072035728E+03 -0.44795869243E+03  0.61020123045E+03  0.00000000000E+00 0.  1.
        -13    1    3    3    0    0  0.86926688190E+02 -0.20074835620E+03 -0.25121673536E+03  0.33311559519E+03  0.00000000000E+00 0. -1.
          4    1    6    6  502    0 -0.41286163555E+02  0.34706210708E+02  0.53896861903E+02  0.76249197279E+02  0.00000000000E+00 0. -1.
          1    1    5    5  503    0  0.54343087529E+02  0.13024712156E+02  0.14158214988E+03  0.15221143010E+03  0.00000000000E+00 0. -1.
         -2    1    5    5    0  503  0.21354675022E+03  0.17870751467E+03  0.42255246566E+03  0.50605254329E+03  0.00000000000E+00 0.  1.
         -3    1    6    6    0  502 -0.57586031482E+03  0.29503027594E+03  0.34683313553E+03  0.73413295104E+03  0.00000000000E+00 0.  1.
<mgrwt>
<rscale>  0 0.23972848E+04</rscale>
<asrwt>0</asrwt>
<pdfrwt beam="1">  1        1 0.20597324E+00 0.23972848E+04</pdfrwt>
<pdfrwt beam="2">  1       -1 0.16509798E+00 0.23972848E+04</pdfrwt>
<totfact> 0.20353204E+00</totfact>
</mgrwt>
</event>
<event>
12    1  0.1472088E-007  0.1880175E+04  0.7818608E-02  0.8664788E-01
          2   -1    0    0  501    0  0.00000000000E+00  0.00000000000E+00  0.20471815237E+04  0.20471815237E+04  0.00000000000E+00 0. -1.
         -2   -1    0    0    0  501 -0.00000000000E+00 -0.00000000000E+00 -0.43169820099E+03  0.43169820099E+03  0.00000000000E+00 0.  1.
         23    2    1    2    0    0  0.56553390522E+03  0.35403242495E+03  0.67107071046E+03  0.95041030600E+03  0.88183305912E+02 0.  0.
        254    2    1    2    0    0 -0.56553390522E+03 -0.35403242495E+03  0.94441261225E+03  0.15284694187E+04  0.99956791958E+03 0.  0.
        -24    2    4    4    0    0 -0.79490403413E+03 -0.27994812902E+03  0.95258013511E+03  0.12742478208E+04  0.77815272437E+02 0.  0.
         24    2    4    4    0    0  0.22937012891E+03 -0.74084295929E+02 -0.81675228617E+01  0.25422159789E+03  0.80391376810E+02 0.  0.
         13    1    3    3    0    0  0.46160196097E+03  0.32226782414E+03  0.58388828629E+03  0.81108473769E+03  0.00000000000E+00 0. -1.
        -13    1    3    3    0    0  0.10393194425E+03  0.31764600802E+02  0.87182424173E+02  0.13932556831E+03  0.00000000000E+00 0.  1.
          4    1    6    6  502    0  0.81836123476E+01 -0.26613765245E+02 -0.19786640068E+01  0.27913780160E+02  0.00000000000E+00 0. -1.
          3    1    5    5  503    0 -0.53939474712E+03 -0.15579415165E+03  0.65880023081E+03  0.86558434310E+03  0.00000000000E+00 0. -1.
         -2    1    5    5    0  503 -0.25550928700E+03 -0.12415397736E+03  0.29377990430E+03  0.40866347771E+03  0.00000000000E+00 0.  1.
         -3    1    6    6    0  502  0.22118651656E+03 -0.47470530684E+02 -0.61888588549E+01  0.22630781773E+03  0.00000000000E+00 0.  1.
<mgrwt>
<rscale>  0 0.18801751E+04</rscale>
<asrwt>0</asrwt>
<pdfrwt beam="1">  1        2 0.31495100E+00 0.18801751E+04</pdfrwt>
<pdfrwt beam="2">  1       -2 0.66415109E-01 0.18801751E+04</pdfrwt>
<totfact> 0.12293881E+01</totfact>
</mgrwt>
</event>
<event>
12    1  0.1472088E-007  0.2870887E+04  0.7818608E-02  0.8281592E-01
          1   -1    0    0  501    0  0.00000000000E+00  0.00000000000E+00  0.21756021665E+04  0.21756021665E+04  0.00000000000E+00 0. -1.
         -1   -1    0    0    0  501 -0.00000000000E+00 -0.00000000000E+00 -0.94709345954E+03  0.94709345954E+03  0.00000000000E+00 0.  1.
         23    2    1    2    0    0  0.38650505633E+03  0.28184384473E+03 -0.75214969817E+03  0.89582088063E+03  0.89127831373E+02 0.  0.
        254    2    1    2    0    0 -0.38650505633E+03 -0.28184384473E+03  0.19806584052E+04  0.22268747454E+04  0.89841043103E+03 0.  0.
        -24    2    4    4    0    0 -0.26858062913E+03 -0.56380555095E+03  0.16669838853E+04  0.17819384224E+04  0.80355546326E+02 0.  0.
         24    2    4    4    0    0 -0.11792442721E+03  0.28196170622E+03  0.31367451986E+03  0.44493632302E+03  0.78536951993E+02 0.  0.
         13    1    3    3    0    0  0.79340636950E+02  0.34226433634E+02 -0.19328133834E+03  0.21171693645E+03  0.00000000000E+00 0. -1.
        -13    1    3    3    0    0  0.30716441938E+03  0.24761741109E+03 -0.55886835983E+03  0.68410394417E+03  0.00000000000E+00 0.  1.
          4    1    6    6  502    0 -0.29961345704E+02  0.53414479070E+02  0.11216930966E+03  0.12779961987E+03  0.00000000000E+00 0. -1.
          1    1    5    5  503    0 -0.50782996530E+02 -0.19239446460E+03  0.51122755379E+03  0.54858741737E+03  0.00000000000E+00 0. -1.
         -2    1    5    5    0  503 -0.21779763260E+03 -0.37141108635E+03  0.11557563315E+04  0.12333510051E+04  0.00000000000E+00 0.  1.
         -3    1    6    6    0  502 -0.87963081505E+02  0.22854722715E+03  0.20150521020E+03  0.31713670315E+03  0.00000000000E+00 0.  1.
<mgrwt>
<rscale>  0 0.28708874E+04</rscale>
<asrwt>0</asrwt>
<pdfrwt beam="1">  1        1 0.33470802E+00 0.28708874E+04</pdfrwt>
<pdfrwt beam="2">  1       -1 0.14570669E+00 0.28708874E+04</pdfrwt>
<totfact> 0.73452391E-01</totfact>
</mgrwt>
</event>
<event>
12    1  0.1472088E-007  0.1749511E+04  0.7818608E-02  0.8733620E-01
          2   -1    0    0  501    0  0.00000000000E+00  0.00000000000E+00  0.14077181701E+04  0.14077181701E+04  0.00000000000E+00 0. -1.
         -2   -1    0    0    0  501 -0.00000000000E+00 -0.00000000000E+00 -0.54357253591E+03  0.54357253591E+03  0.00000000000E+00 0.  1.
         23    2    1    2    0    0 -0.49987461739E+03 -0.67625529175E+02 -0.11324282055E+03  0.52531461967E+03  0.93186200315E+02 0.  0.
        254    2    1    2    0    0  0.49987461739E+03  0.67625529175E+02  0.97738845471E+03  0.14259760863E+04  0.90756364074E+03 0.  0.
        -24    2    4    4    0    0  0.31730159427E+03 -0.35744392407E+03  0.21464104526E+03  0.53041588588E+03  0.82606132386E+02 0.  0.
         24    2    4    4    0    0  0.18257302312E+03  0.42506945324E+03  0.76274740945E+03  0.89556020042E+03  0.78914593724E+02 0.  0.
         13    1    3    3    0    0 -0.30726204589E+03 -0.30054898169E+02 -0.23783276976E+02  0.30964319146E+03  0.00000000000E+00 0.  1.
        -13    1    3    3    0    0 -0.19261257149E+03 -0.37570631006E+02 -0.89459543579E+02  0.21567142822E+03  0.00000000000E+00 0. -1.
          2    1    6    6  502    0  0.24044170609E+02  0.13143521821E+03  0.18220469873E+03  0.22594665513E+03  0.00000000000E+00 0. -1.
          3    1    5    5  503    0  0.89794330135E+02 -0.62345932956E+02  0.74638876754E+02  0.13236691053E+03  0.00000000000E+00 0. -1.
         -4    1    5    5    0  503  0.22750726414E+03 -0.29509799111E+03  0.14000216851E+03  0.39804897535E+03  0.00000000000E+00 0.  1.
         -1    1    6    6    0  502  0.15852885251E+03  0.29363423503E+03  0.58054271072E+03  0.66961354528E+03  0.00000000000E+00 0.  1.
<mgrwt>
<rscale>  0 0.17495107E+04</rscale>
<asrwt>0</asrwt>
<pdfrwt beam="1">  1        2 0.21657202E+00 0.17495107E+04</pdfrwt>
<pdfrwt beam="2">  1       -2 0.83626545E-01 0.17495107E+04</pdfrwt>
<totfact> 0.16977833E+01</totfact>
</mgrwt>
</event>
<event>
12    1  0.1472088E-007  0.1863333E+04  0.7818608E-02  0.8673326E-01
          2   -1    0    0  501    0  0.00000000000E+00  0.00000000000E+00  0.93238156096E+03  0.93238156096E+03  0.00000000000E+00 0. -1.
         -2   -1    0    0    0  501 -0.00000000000E+00 -0.00000000000E+00 -0.93095196704E+03  0.93095196704E+03  0.00000000000E+00 0.  1.
         23    2    1    2    0    0  0.23339968247E+03  0.55139632479E+03 -0.41105351197E+03  0.73169881928E+03  0.88909243938E+02 0.  0.
        254    2    1    2    0    0 -0.23339968247E+03 -0.55139632479E+03  0.41248310590E+03  0.11316347087E+04  0.86714559478E+03 0.  0.
        -24    2    4    4    0    0 -0.43009861830E+03 -0.62457734319E+03  0.13391144065E+03  0.77390772723E+03  0.76936449346E+02 0.  0.
         24    2    4    4    0    0  0.19669893583E+03  0.73181018401E+02  0.27857166525E+03  0.35772698149E+03  0.79501495555E+02 0.  0.
         11    1    3    3    0    0  0.53122508548E+02  0.21124978491E+03 -0.18113754150E+03  0.28330069093E+03  0.00000000000E+00 0.  1.
        -11    1    3    3    0    0  0.18027717392E+03  0.34014653988E+03 -0.22991597047E+03  0.44839812835E+03  0.00000000000E+00 0. -1.
          2    1    6    6  502    0  0.16760745401E+02 -0.18040312147E+01 -0.10182346058E+01  0.16888277494E+02  0.00000000000E+00 0. -1.
          3    1    5    5  503    0 -0.17451664843E+03 -0.27557267125E+03  0.94164087852E+02  0.33950439343E+03  0.00000000000E+00 0. -1.
         -4    1    5    5    0  503 -0.25558196987E+03 -0.34900467194E+03  0.39747352798E+02  0.43440333380E+03  0.00000000000E+00 0.  1.
         -1    1    6    6    0  502  0.17993819043E+03  0.74985049616E+02  0.27958989985E+03  0.34083870399E+03  0.00000000000E+00 0.  1.
<mgrwt>
<rscale>  0 0.18633330E+04</rscale>
<asrwt>0</asrwt>
<pdfrwt beam="1">  1        2 0.14344332E+00 0.18633330E+04</pdfrwt>
<pdfrwt beam="2">  1       -2 0.14322338E+00 0.18633330E+04</pdfrwt>
<totfact> 0.88649087E+00</totfact>
</mgrwt>
</event>
<event>
12    1  0.1472088E-007  0.2299759E+04  0.7818608E-02  0.8478016E-01
          1   -1    0    0  501    0  0.00000000000E+00  0.00000000000E+00  0.12951906392E+04  0.12951906392E+04  0.00000000000E+00 0. -1.
         -1   -1    0    0    0  501 -0.00000000000E+00 -0.00000000000E+00 -0.10208710882E+04  0.10208710882E+04  0.00000000000E+00 0.  1.
         23    2    1    2    0    0 -0.44189087777E+03 -0.15997919507E+03 -0.73374318932E+03  0.88046979942E+03  0.12644014041E+03 0.  0.
        254    2    1    2    0    0  0.44189087777E+03  0.15997919507E+03  0.10080627403E+04  0.14355919280E+04  0.90767439359E+03 0.  0.
        -24    2    4    4    0    0  0.37374786102E+03 -0.19281299265E+03  0.97659322910E+03  0.10662320975E+04  0.79071087309E+02 0.  0.
         24    2    4    4    0    0  0.68143016744E+02  0.35279218772E+03  0.31469511161E+02  0.36935983053E+03  0.79564790107E+02 0.  0.
         11    1    3    3    0    0 -0.15051234324E+03 -0.11998916065E+03 -0.29773648908E+03  0.35453967489E+03  0.00000000000E+00 0. -1.
        -11    1    3    3    0    0 -0.29137853452E+03 -0.39990034425E+02 -0.43600670024E+03  0.52593012453E+03  0.00000000000E+00 0.  1.
          4    1    6    6  502    0  0.25776106034E+02  0.84457317512E+02 -0.25251193191E+02  0.91842631066E+02  0.00000000000E+00 0. -1.
          3    1    5    5  503    0  0.31043561894E+03 -0.16103968294E+03  0.87573932190E+03  0.94298643305E+03  0.00000000000E+00 0. -1.
         -4    1    5    5    0  503  0.63312242080E+02 -0.31773309712E+02  0.10085390720E+03  0.12324566444E+03  0.00000000000E+00 0.  1.
         -3    1    6    6    0  502  0.42366910710E+02  0.26833487021E+03  0.56720704352E+02  0.27751719946E+03  0.00000000000E+00 0.  1.
<mgrwt>
<rscale>  0 0.22997588E+04</rscale>
<asrwt>0</asrwt>
<pdfrwt beam="1">  1        1 0.19926010E+00 0.22997588E+04</pdfrwt>
<pdfrwt beam="2">  1       -1 0.15705709E+00 0.22997588E+04</pdfrwt>
<totfact> 0.25363053E+00</totfact>
</mgrwt>
</event>
<event>
12    1  0.1472088E-007  0.2228678E+04  0.7818608E-02  0.8506586E-01
          1   -1    0    0  501    0  0.00000000000E+00  0.00000000000E+00  0.19908655936E+04  0.19908655936E+04  0.00000000000E+00 0. -1.
         -1   -1    0    0    0  501 -0.00000000000E+00 -0.00000000000E+00 -0.62372413623E+03  0.62372413623E+03  0.00000000000E+00 0.  1.
         23    2    1    2    0    0 -0.81094903298E+03  0.63481705653E+02  0.44310714759E+02  0.81974564012E+03  0.91384976883E+02 0.  0.
        254    2    1    2    0    0  0.81094903298E+03 -0.63481705653E+02  0.13228307426E+04  0.17948440897E+04  0.89995326085E+03 0.  0.
        -24    2    4    4    0    0  0.45950338813E+03 -0.24486509101E+03  0.12865758366E+04  0.13902248966E+04  0.79659296188E+02 0.  0.
         24    2    4    4    0    0  0.35144564485E+03  0.18138338536E+03  0.36254906027E+02  0.40461919307E+03  0.77384103143E+02 0.  0.
         13    1    3    3    0    0 -0.49170268431E+03 -0.31977617703E+01  0.43213004805E+02  0.49360826495E+03  0.00000000000E+00 0. -1.
        -13    1    3    3    0    0 -0.31924634867E+03  0.66679467423E+02  0.10977099546E+01  0.32613737517E+03  0.00000000000E+00 0.  1.
          4    1    6    6  502    0  0.28586749473E+03  0.17900646234E+03  0.27332094928E+02  0.33839412158E+03  0.00000000000E+00 0. -1.
          1    1    5    5  503    0  0.20723452077E+03 -0.15543036319E+03  0.64071255846E+03  0.69109863766E+03  0.00000000000E+00 0. -1.
         -2    1    5    5    0  503  0.25226886736E+03 -0.89434727823E+02  0.64586327809E+03  0.69912625896E+03  0.00000000000E+00 0.  1.
         -3    1    6    6    0  502  0.65578150121E+02  0.23769230164E+01  0.89228110994E+01  0.66225071493E+02  0.00000000000E+00 0.  1.
<mgrwt>
<rscale>  0 0.22286776E+04</rscale>
<asrwt>0</asrwt>
<pdfrwt beam="1">  1        1 0.30628701E+00 0.22286776E+04</pdfrwt>
<pdfrwt beam="2">  1       -1 0.95957560E-01 0.22286776E+04</pdfrwt>
<totfact> 0.28773790E+00</totfact>
</mgrwt>
</event>
<event>
12    1  0.1472088E-007  0.1483597E+04  0.7818608E-02  0.8895434E-01
         -2   -1    0    0    0  501 -0.00000000000E+00  0.00000000000E+00  0.50463271783E+03  0.50463271783E+03  0.00000000000E+00 0.  1.
          2   -1    0    0  501    0  0.00000000000E+00 -0.00000000000E+00 -0.10904271944E+04  0.10904271944E+04  0.00000000000E+00 0. -1.
         23    2    1    2    0    0  0.66047129794E+02  0.17429320443E+03  0.21501139128E+03  0.29847087401E+03  0.90081184415E+02 0.  0.
        254    2    1    2    0    0 -0.66047129794E+02 -0.17429320443E+03 -0.80080586789E+03  0.12965890383E+04  0.10025531166E+04 0.  0.
        -24    2    4    4    0    0  0.22354004585E+03  0.32102455834E+03 -0.51126108582E+03  0.64884554619E+03  0.81152484696E+02 0.  0.
         24    2    4    4    0    0 -0.28958717564E+03 -0.49531776278E+03 -0.28954478207E+03  0.64774349207E+03  0.80839546478E+02 0.  0.
         11    1    3    3    0    0  0.38559205609E+02  0.78264034759E+02  0.16526867057E+03  0.18688446951E+03  0.00000000000E+00 0. -1.
        -11    1    3    3    0    0  0.27487924185E+02  0.96029169675E+02  0.49742720714E+02  0.11158640450E+03  0.00000000000E+00 0.  1.
          4    1    6    6  502    0 -0.25719342470E+03 -0.46707009046E+03 -0.24831923870E+03  0.58818821088E+03  0.00000000000E+00 0. -1.
          3    1    5    5  503    0  0.18199676913E+03  0.22445018743E+03 -0.32437705903E+03  0.43442051867E+03  0.00000000000E+00 0. -1.
         -4    1    5    5    0  503  0.41543276717E+02  0.96574370910E+02 -0.18688402679E+03  0.21442502752E+03  0.00000000000E+00 0.  1.
         -1    1    6    6    0  502 -0.32393750942E+02 -0.28247672319E+02 -0.41225543364E+02  0.59555281186E+02  0.00000000000E+00 0.  1.
<mgrwt>
<rscale>  0 0.14835973E+04</rscale>
<asrwt>0</asrwt>
<pdfrwt beam="1">  1        2 0.16775803E+00 0.14835973E+04</pdfrwt>
<pdfrwt beam="2">  1       -2 0.77635804E-01 0.14835973E+04</pdfrwt>
<totfact> 0.31594971E+01</totfact>
</mgrwt>
</event>
<event>
12    1  0.1472088E-007  0.1830218E+04  0.7818608E-02  0.8690393E-01
         -2   -1    0    0    0  501 -0.00000000000E+00  0.00000000000E+00  0.80951082718E+03  0.80951082718E+03  0.00000000000E+00 0. -1.
          2   -1    0    0  501    0  0.00000000000E+00 -0.00000000000E+00 -0.10344826723E+04  0.10344826723E+04  0.00000000000E+00 0.  1.
         23    2    1    2    0    0  0.29349588727E+03  0.47537484555E+03 -0.49463330808E+03  0.75168982378E+03  0.90853740056E+02 0.  0.
        254    2    1    2    0    0 -0.29349588727E+03 -0.47537484555E+03  0.26966146292E+03  0.10923036757E+04  0.89904890623E+03 0.  0.
        -24    2    4    4    0    0 -0.37047763533E+03  0.11235780094E+03 -0.72823690765E+02  0.40307334487E+03  0.85363210445E+02 0.  0.
         24    2    4    4    0    0  0.76981748054E+02 -0.58773264649E+03  0.34248515369E+03  0.68923033086E+03  0.79915675538E+02 0.  0.
         13    1    3    3    0    0  0.28699406741E+03  0.41091293367E+03 -0.43972702116E+03  0.66676449135E+03  0.00000000000E+00 0.  1.
        -13    1    3    3    0    0  0.65018198634E+01  0.64461911887E+02 -0.54906286918E+02  0.84925332432E+02  0.00000000000E+00 0. -1.
          4    1    6    6  502    0 -0.16024974348E+02 -0.56062731844E+02  0.36412698187E+02  0.68743830951E+02  0.00000000000E+00 0. -1.
          1    1    5    5  503    0 -0.18847205382E+03  0.82399872110E+02 -0.74033475185E+02  0.21861475120E+03  0.00000000000E+00 0. -1.
         -2    1    5    5    0  503 -0.18200558150E+03  0.29957928829E+02  0.12097844199E+01  0.18445859367E+03  0.00000000000E+00 0.  1.
         -3    1    6    6    0  502  0.93006722402E+02 -0.53166991465E+03  0.30607245550E+03  0.62048649991E+03  0.00000000000E+00 0.  1.
<mgrwt>
<rscale>  0 0.18302185E+04</rscale>
<asrwt>0</asrwt>
<pdfrwt beam="1">  1        2 0.15915118E+00 0.18302185E+04</pdfrwt>
<pdfrwt beam="2">  1       -2 0.12454013E+00 0.18302185E+04</pdfrwt>
<totfact> 0.10913191E+01</totfact>
</mgrwt>
</event>
<event>
12    1  0.1472088E-007  0.1377647E+04  0.7818608E-02  0.8970160E-01
         -1   -1    0    0    0  501 -0.00000000000E+00  0.00000000000E+00  0.16108553075E+03  0.16108553075E+03  0.00000000000E+00 0.  1.
          1   -1    0    0  501    0  0.00000000000E+00 -0.00000000000E+00 -0.29455017678E+04  0.29455017678E+04  0.00000000000E+00 0. -1.
         23    2    1    2    0    0 -0.28750781948E+03  0.26335379340E+03 -0.75630780756E+03  0.85584071561E+03  0.91901381716E+02 0.  0.
        254    2    1    2    0    0  0.28750781948E+03 -0.26335379340E+03 -0.20281084295E+04  0.22507465829E+04  0.89477394470E+03 0.  0.
        -24    2    4    4    0    0  0.45658060335E+03 -0.24615325001E+03 -0.19904593059E+04  0.20585472933E+04  0.81433656923E+02 0.  0.
         24    2    4    4    0    0 -0.16907278386E+03 -0.17200543385E+02 -0.37649123524E+02  0.19219928958E+03  0.81496291181E+02 0.  0.
         13    1    3    3    0    0 -0.27999884593E+03  0.26950122557E+03 -0.74853682049E+03  0.84340834471E+03  0.00000000000E+00 0.  1.
        -13    1    3    3    0    0 -0.75089735594E+01 -0.61474321678E+01 -0.77709870735E+01  0.12432370903E+02  0.00000000000E+00 0. -1.
          4    1    6    6  502    0 -0.12332900065E+03  0.22418656123E+02 -0.40174677364E+02  0.13163070783E+03  0.00000000000E+00 0. -1.
          3    1    5    5  503    0  0.38509557582E+03 -0.21729125480E+03 -0.17892192272E+04  0.18430462650E+04  0.00000000000E+00 0. -1.
         -4    1    5    5    0  503  0.71485027524E+02 -0.28861995212E+02 -0.20124007876E+03  0.21550102837E+03  0.00000000000E+00 0.  1.
         -3    1    6    6    0  502 -0.45743783218E+02 -0.39619199509E+02  0.25255538405E+01  0.60568581748E+02  0.00000000000E+00 0.  1.
<mgrwt>
<rscale>  0 0.13776469E+04</rscale>
<asrwt>0</asrwt>
<pdfrwt beam="1">  1        1 0.45315410E+00 0.13776469E+04</pdfrwt>
<pdfrwt beam="2">  1       -1 0.24782390E-01 0.13776469E+04</pdfrwt>
<totfact> 0.91666524E+00</totfact>
</mgrwt>
</event>
<event>
12    1  0.1472088E-007  0.2966521E+04  0.7818608E-02  0.8253356E-01
         -1   -1    0    0    0  501 -0.00000000000E+00  0.00000000000E+00  0.17011544605E+04  0.17011544605E+04  0.00000000000E+00 0.  1.
          1   -1    0    0  501    0  0.00000000000E+00 -0.00000000000E+00 -0.12932755783E+04  0.12932755783E+04  0.00000000000E+00 0. -1.
         23    2    1    2    0    0 -0.56242716662E+03  0.91832178289E+03 -0.63131383219E+03  0.12515809971E+04  0.90876965540E+02 0.  0.
        254    2    1    2    0    0  0.56242716662E+03 -0.91832178289E+03  0.10391927144E+04  0.17428490417E+04  0.89328722695E+03 0.  0.
        -24    2    4    4    0    0  0.48006917724E+02 -0.26674189149E+03  0.83868019621E+03  0.88504785209E+03  0.80432133819E+02 0.  0.
         24    2    4    4    0    0  0.51442024890E+03 -0.65157989139E+03  0.20051251818E+03  0.85780118961E+03  0.80206381282E+02 0.  0.
         13    1    3    3    0    0 -0.54452904891E+03  0.87049057080E+03 -0.58037380571E+03  0.11794488006E+04  0.00000000000E+00 0. -1.
        -13    1    3    3    0    0 -0.17898117719E+02  0.47831212089E+02 -0.50940026478E+02  0.72132196454E+02  0.00000000000E+00 0.  1.
          4    1    6    6  502    0  0.20690278311E+03 -0.28030864371E+03  0.12327169900E+03  0.36956407993E+03  0.00000000000E+00 0. -1.
          1    1    5    5  503    0 -0.21108730159E+02 -0.47649192531E+02  0.12985962022E+03  0.13992692737E+03  0.00000000000E+00 0. -1.
         -2    1    5    5    0  503  0.69115647883E+02 -0.21909269896E+03  0.70882057599E+03  0.74512092473E+03  0.00000000000E+00 0.  1.
         -3    1    6    6    0  502  0.30751746579E+03 -0.37127124769E+03  0.77240819177E+02  0.48823710968E+03  0.00000000000E+00 0.  1.
<mgrwt>
<rscale>  0 0.29665209E+04</rscale>
<asrwt>0</asrwt>
<pdfrwt beam="1">  1        1 0.19896547E+00 0.29665209E+04</pdfrwt>
<pdfrwt beam="2">  1       -1 0.26171607E+00 0.29665209E+04</pdfrwt>
<totfact> 0.45650525E-01</totfact>
</mgrwt>
</event>
<event>
12    1  0.1472088E-007  0.1172191E+04  0.7818608E-02  0.9137552E-01
         -2   -1    0    0    0  501 -0.00000000000E+00  0.00000000000E+00  0.11131847166E+03  0.11131847166E+03  0.00000000000E+00 0.  1.
          2   -1    0    0  501    0  0.00000000000E+00 -0.00000000000E+00 -0.30858126531E+04  0.30858126531E+04  0.00000000000E+00 0. -1.
         23    2    1    2    0    0  0.10460608761E+03  0.21343908202E+03 -0.20969211125E+03  0.33055440490E+03  0.93791032546E+02 0.  0.
        254    2    1    2    0    0 -0.10460608761E+03 -0.21343908202E+03 -0.27648020702E+04  0.28665767199E+04  0.71877181926E+03 0.  0.
        -24    2    4    4    0    0  0.12384812173E+03  0.21380079118E+03 -0.11417906468E+04  0.11709759008E+04  0.80309050600E+02 0.  0.
         24    2    4    4    0    0 -0.22845420934E+03 -0.42723987319E+03 -0.16230114234E+04  0.16956008191E+04  0.78554580069E+02 0.  0.
         11    1    3    3    0    0 -0.36665974611E+01 -0.56195791534E+01 -0.20346241207E+02  0.21424125141E+02  0.00000000000E+00 0. -1.
        -11    1    3    3    0    0  0.10827268507E+03  0.21905866117E+03 -0.18934587004E+03  0.30913027976E+03  0.00000000000E+00 0.  1.
          4    1    6    6  502    0 -0.29389076758E+02 -0.17611693365E+02 -0.14602099005E+03  0.14998672978E+03  0.00000000000E+00 0. -1.
          3    1    5    5  503    0  0.58099400012E+02  0.33102057298E+02 -0.33219617969E+03  0.33885924553E+03  0.00000000000E+00 0. -1.
         -4    1    5    5    0  503  0.65748721715E+02  0.18069873388E+03 -0.80959446714E+03  0.83211665531E+03  0.00000000000E+00 0.  1.
         -3    1    6    6    0  502 -0.19906513258E+03 -0.40962817983E+03 -0.14769904334E+04  0.15456140893E+04  0.00000000000E+00 0.  1.
<mgrwt>
<rscale>  0 0.11721910E+04</rscale>
<asrwt>0</asrwt>
<pdfrwt beam="1">  1        2 0.47474032E+00 0.11721910E+04</pdfrwt>
<pdfrwt beam="2">  1       -2 0.17125922E-01 0.11721910E+04</pdfrwt>
<totfact> 0.43276407E+01</totfact>
</mgrwt>
</event>
<event>
12    1  0.1472088E-007  0.1579562E+04  0.7818608E-02  0.8833203E-01
         -1   -1    0    0    0  501 -0.00000000000E+00  0.00000000000E+00  0.32095888482E+03  0.32095888482E+03  0.00000000000E+00 0.  1.
          1   -1    0    0  501    0  0.00000000000E+00 -0.00000000000E+00 -0.19434082711E+04  0.19434082711E+04  0.00000000000E+00 0. -1.
         23    2    1    2    0    0  0.23272502659E+03 -0.47754967035E+03 -0.45758821733E+03  0.70700156094E+03  0.90827335506E+02 0.  0.
        254    2    1    2    0    0 -0.23272502659E+03  0.47754967035E+03 -0.11648611689E+04  0.15573655949E+04  0.88671947528E+03 0.  0.
        -24    2    4    4    0    0 -0.33159475723E+02  0.66213708752E+03 -0.49897724851E+03  0.83368796772E+03  0.80822394748E+02 0.  0.
         24    2    4    4    0    0 -0.19956555086E+03 -0.18458741717E+03 -0.66588392040E+03  0.72367762722E+03  0.80056161749E+02 0.  0.
         13    1    3    3    0    0  0.23325896314E+03 -0.42992528288E+03 -0.39718768758E+03  0.63008217869E+03  0.00000000000E+00 0. -1.
        -13    1    3    3    0    0 -0.53393655032E+00 -0.47624387470E+02 -0.60400529757E+02  0.76919382246E+02  0.00000000000E+00 0.  1.
          2    1    6    6  502    0 -0.21190141742E+01  0.39873724091E+01 -0.60977414457E+00  0.45564442613E+01  0.00000000000E+00 0. -1.
          3    1    5    5  503    0  0.87813936488E+01  0.64082766838E+02 -0.76931398913E+02  0.10050947228E+03  0.00000000000E+00 0. -1.
         -4    1    5    5    0  503 -0.41940869372E+02  0.59805432068E+03 -0.42204584960E+03  0.73317849544E+03  0.00000000000E+00 0.  1.
         -1    1    6    6    0  502 -0.19744653669E+03 -0.18857478958E+03 -0.66527414625E+03  0.71912118296E+03  0.00000000000E+00 0.  1.
<mgrwt>
<rscale>  0 0.15795622E+04</rscale>
<asrwt>0</asrwt>
<pdfrwt beam="1">  1        1 0.29898589E+00 0.15795622E+04</pdfrwt>
<pdfrwt beam="2">  1       -1 0.49378289E-01 0.15795622E+04</pdfrwt>
<totfact> 0.12867060E+01</totfact>
</mgrwt>
</event>
<event>
12    1  0.1472088E-007  0.1775861E+04  0.7818608E-02  0.8719243E-01
         -2   -1    0    0    0  501 -0.00000000000E+00  0.00000000000E+00  0.58054326204E+03  0.58054326204E+03  0.00000000000E+00 0.  1.
          2   -1    0    0  501    0  0.00000000000E+00 -0.00000000000E+00 -0.13580730793E+04  0.13580730793E+04  0.00000000000E+00 0. -1.
         23    2    1    2    0    0 -0.23457219347E+03 -0.38455223574E+03  0.23145407119E+03  0.51463453553E+03  0.91505093447E+02 0.  0.
        254    2    1    2    0    0  0.23457219347E+03  0.38455223574E+03 -0.10089838885E+04  0.14239818058E+04  0.89820440890E+03 0.  0.
        -24    2    4    4    0    0 -0.48787313884E+02 -0.26997959726E+03 -0.26947322815E+03  0.39370861579E+03  0.84388793835E+02 0.  0.
         24    2    4    4    0    0  0.28335950735E+03  0.65453183300E+03 -0.73951066031E+03  0.10302731900E+04  0.76696144360E+02 0.  0.
         11    1    3    3    0    0 -0.96123510943E+02 -0.92383325763E+02  0.95007005980E+02  0.16370931379E+03  0.00000000000E+00 0. -1.
        -11    1    3    3    0    0 -0.13844868253E+03 -0.29216890998E+03  0.13644706521E+03  0.35092522174E+03  0.00000000000E+00 0.  1.
          2    1    6    6  502    0  0.55688737584E+02  0.20954228054E+03 -0.20337879728E+03  0.29727451625E+03  0.00000000000E+00 0. -1.
          1    1    5    5  503    0 -0.23121914015E+01  0.29494450216E+01  0.33414420379E+01  0.50210247863E+01  0.00000000000E+00 0. -1.
         -2    1    5    5    0  503 -0.46475122482E+02 -0.27292904228E+03 -0.27281467018E+03  0.38868759100E+03  0.00000000000E+00 0.  1.
         -1    1    6    6    0  502  0.22767076977E+03  0.44498955246E+03 -0.53613186303E+03  0.73299867378E+03  0.00000000000E+00 0.  1.
<mgrwt>
<rscale>  0 0.17758606E+04</rscale>
<asrwt>0</asrwt>
<pdfrwt beam="1">  1        2 0.20893432E+00 0.17758606E+04</pdfrwt>
<pdfrwt beam="2">  1       -2 0.89314349E-01 0.17758606E+04</pdfrwt>
<totfact> 0.15564673E+01</totfact>
</mgrwt>
</event>
<event>
12    1  0.1472088E-007  0.1530274E+04  0.7818608E-02  0.8864567E-01
         -1   -1    0    0    0  501 -0.00000000000E+00  0.00000000000E+00  0.80378829323E+03  0.80378829323E+03  0.00000000000E+00 0.  1.
          1   -1    0    0  501    0  0.00000000000E+00 -0.00000000000E+00 -0.72834472287E+03  0.72834472287E+03  0.00000000000E+00 0. -1.
         23    2    1    2    0    0  0.17080827805E+03  0.45350832834E+03  0.52604995215E+02  0.49590726587E+03  0.91167204087E+02 0.  0.
        254    2    1    2    0    0 -0.17080827805E+03 -0.45350832834E+03  0.22838575151E+02  0.10362257502E+04  0.91564017671E+03 0.  0.
        -24    2    4    4    0    0 -0.13995892719E+03 -0.71293059172E+03 -0.97392269305E+02  0.73752992061E+03  0.81280992668E+02 0.  0.
         24    2    4    4    0    0 -0.30849350861E+02  0.25942226339E+03  0.12023084446E+03  0.29869582962E+03  0.80697890208E+02 0.  0.
         13    1    3    3    0    0  0.87110617642E+01  0.10632489592E+03  0.35250212655E+02  0.11235409909E+03  0.00000000000E+00 0. -1.
        -13    1    3    3    0    0  0.16209721629E+03  0.34718343242E+03  0.17354782559E+02  0.38355316679E+03  0.00000000000E+00 0.  1.
          2    1    6    6  502    0  0.23476610836E+01  0.22095601169E+03  0.11012652985E+03  0.24689050851E+03  0.00000000000E+00 0. -1.
          1    1    5    5  503    0 -0.85947984477E+02 -0.52767576837E+03 -0.10309045467E+03  0.54447811196E+03  0.00000000000E+00 0. -1.
         -2    1    5    5    0  503 -0.54010942713E+02 -0.18525482335E+03  0.56981853686E+01  0.19305180865E+03  0.00000000000E+00 0.  1.
         -1    1    6    6    0  502 -0.33197011945E+02  0.38466251695E+02  0.10104314602E+02  0.51805321108E+02  0.00000000000E+00 0.  1.
<mgrwt>
<rscale>  0 0.15302744E+04</rscale>
<asrwt>0</asrwt>
<pdfrwt beam="1">  1        1 0.11205303E+00 0.15302744E+04</pdfrwt>
<pdfrwt beam="2">  1       -1 0.12365974E+00 0.15302744E+04</pdfrwt>
<totfact> 0.14223433E+01</totfact>
</mgrwt>
</event>
<event>
12    1  0.1472088E-007  0.1175556E+04  0.7818608E-02  0.9134525E-01
         -2   -1    0    0    0  501 -0.00000000000E+00  0.00000000000E+00  0.62055716926E+03  0.62055716926E+03  0.00000000000E+00 0.  1.
          2   -1    0    0  501    0  0.00000000000E+00 -0.00000000000E+00 -0.55673033018E+03  0.55673033018E+03  0.00000000000E+00 0. -1.
         23    2    1    2    0    0  0.17712545390E+03 -0.12182977208E+03  0.91654690964E+02  0.25052058558E+03  0.90244454893E+02 0.  0.
        254    2    1    2    0    0 -0.17712545390E+03  0.12182977208E+03 -0.27827851885E+02  0.92676691387E+03  0.90105860160E+03 0.  0.
        -24    2    4    4    0    0  0.30660300574E+03  0.24923593340E+03  0.74928223530E+02  0.40994531338E+03  0.79479353655E+02 0.  0.
         24    2    4    4    0    0 -0.48372845964E+03 -0.12740616132E+03 -0.10275607542E+03  0.51682160049E+03  0.79499704952E+02 0.  0.
         11    1    3    3    0    0  0.28521933050E+02 -0.44849479661E+02  0.60068378829E+02  0.80207148223E+02  0.00000000000E+00 0.  1.
        -11    1    3    3    0    0  0.14860352085E+03 -0.76980292420E+02  0.31586312134E+02  0.17031343736E+03  0.00000000000E+00 0. -1.
          4    1    6    6  502    0 -0.40401813441E+03 -0.12993215102E+03 -0.67932471668E+02  0.42979976444E+03  0.00000000000E+00 0. -1.
          1    1    5    5  503    0  0.84154422064E+02  0.11741952045E+03  0.25740538255E+02  0.14673747254E+03  0.00000000000E+00 0. -1.
         -2    1    5    5    0  503  0.22244858367E+03  0.13181641295E+03  0.49187685275E+02  0.26320784085E+03  0.00000000000E+00 0.  1.
         -3    1    6    6    0  502 -0.79710325225E+02  0.25259896971E+01 -0.34823603748E+02  0.87021836049E+02  0.00000000000E+00 0.  1.
<mgrwt>
<rscale>  0 0.11755560E+04</rscale>
<asrwt>0</asrwt>
<pdfrwt beam="1">  1        2 0.85650820E-01 0.11755560E+04</pdfrwt>
<pdfrwt beam="2">  1       -2 0.95470334E-01 0.11755560E+04</pdfrwt>
<totfact> 0.49422178E+01</totfact>
</mgrwt>
</event>
<event>
12    1  0.1472088E-007  0.2942058E+04  0.7818608E-02  0.8260473E-01
         -1   -1    0    0    0  501 -0.00000000000E+00  0.00000000000E+00  0.15160021206E+04  0.15160021206E+04  0.00000000000E+00 0.  1.
          1   -1    0    0  501    0  0.00000000000E+00 -0.00000000000E+00 -0.14273895842E+04  0.14273895842E+04  0.00000000000E+00 0. -1.
         23    2    1    2    0    0 -0.50781649299E+03  0.73907992085E+03 -0.94468494998E+03  0.13059158046E+04  0.94179159338E+02 0.  0.
        254    2    1    2    0    0  0.50781649299E+03 -0.73907992085E+03  0.10332974864E+04  0.16374759002E+04  0.89972601842E+03 0.  0.
        -24    2    4    4    0    0  0.34315858810E+03 -0.93459383775E+03  0.86824535458E+03  0.13233863528E+04  0.79233735498E+02 0.  0.
         24    2    4    4    0    0  0.16465790489E+03  0.19551391690E+03  0.16505213186E+03  0.31408954739E+03  0.77923810232E+02 0.  0.
         11    1    3    3    0    0 -0.77697591494E+02  0.89830375938E+02 -0.85831984420E+02  0.14653853321E+03  0.00000000000E+00 0.  1.
        -11    1    3    3    0    0 -0.43011890150E+03  0.64924954491E+03 -0.85885296556E+03  0.11593772714E+04  0.00000000000E+00 0. -1.
          2    1    6    6  502    0  0.17146394284E+03  0.17356692193E+03  0.15467705981E+03  0.28887774735E+03  0.00000000000E+00 0. -1.
          1    1    5    5  503    0  0.11405376632E+03 -0.42467695902E+03  0.38397064786E+03  0.58377413402E+03  0.00000000000E+00 0. -1.
         -2    1    5    5    0  503  0.22910482178E+03 -0.50991687874E+03  0.48427470672E+03  0.73961221877E+03  0.00000000000E+00 0.  1.
         -1    1    6    6    0  502 -0.68060379526E+01  0.21946994977E+02  0.10375072047E+02  0.25211800037E+02  0.00000000000E+00 0.  1.
<mgrwt>
<rscale>  0 0.29420575E+04</rscale>
<asrwt>0</asrwt>
<pdfrwt beam="1">  1        1 0.21959840E+00 0.29420575E+04</pdfrwt>
<pdfrwt beam="2">  1       -1 0.23323110E+00 0.29420575E+04</pdfrwt>
<totfact> 0.56486046E-01</totfact>
</mgrwt>
</event>
<event>
12    1  0.1529940E-007  0.1472303E+04  0.7818608E-02  0.8903083E-01
         -2   -1    0    0    0  501 -0.00000000000E+00  0.00000000000E+00  0.26015438967E+03  0.26015438967E+03  0.00000000000E+00 0. -1.
          2   -1    0    0  501    0  0.00000000000E+00 -0.00000000000E+00 -0.20830666024E+04  0.20830666024E+04  0.00000000000E+00 0.  1.
         23    2    1    2    0    0  0.34998636869E+02  0.18200702933E+03 -0.12388819864E+04  0.12565829126E+04  0.99098823320E+02 0.  0.
        254    2    1    2    0    0 -0.34998636869E+02 -0.18200702933E+03 -0.58403022641E+03  0.10866380795E+04  0.89740712455E+03 0.  0.
        -24    2    4    4    0    0  0.26943248855E+03  0.14062067560E+03  0.40824928374E+02  0.31682623842E+03  0.79650174407E+02 0.  0.
         24    2    4    4    0    0 -0.30443112542E+03 -0.32262770493E+03 -0.62485515479E+03  0.76981184110E+03  0.73480338327E+02 0.  0.
         11    1    3    3    0    0  0.83131698476E+01  0.84810402295E+02 -0.87048425158E+03  0.87464549698E+03  0.00000000000E+00 0.  1.
        -11    1    3    3    0    0  0.26685467022E+02  0.97196627034E+02 -0.36839773478E+03  0.38193741561E+03  0.00000000000E+00 0. -1.
          2    1    6    6  502    0 -0.28161730495E+03 -0.31746909230E+03 -0.60573726543E+03  0.73960297846E+03  0.00000000000E+00 0. -1.
          3    1    5    5  503    0  0.19959632003E+03  0.13025137907E+03  0.55506043444E+02  0.24471418752E+03  0.00000000000E+00 0. -1.
         -4    1    5    5    0  503  0.69836168527E+02  0.10369296529E+02 -0.14681115070E+02  0.72112050898E+02  0.00000000000E+00 0.  1.
         -1    1    6    6    0  502 -0.22813820469E+02 -0.51586126289E+01 -0.19117889361E+02  0.30208862645E+02  0.00000000000E+00 0.  1.
<mgrwt>
<rscale>  0 0.14723029E+04</rscale>
<asrwt>0</asrwt>
<pdfrwt beam="1">  1        2 0.32047179E+00 0.14723029E+04</pdfrwt>
<pdfrwt beam="2">  1       -2 0.40023752E-01 0.14723029E+04</pdfrwt>
<totfact> 0.34371742E+01</totfact>
</mgrwt>
</event>
<event>
12    1  0.1472088E-007  0.1968351E+04  0.7818608E-02  0.8621562E-01
         -2   -1    0    0    0  501 -0.00000000000E+00  0.00000000000E+00  0.65569669210E+03  0.65569669210E+03  0.00000000000E+00 0. -1.
          2   -1    0    0  501    0  0.00000000000E+00 -0.00000000000E+00 -0.14772088941E+04  0.14772088941E+04  0.00000000000E+00 0.  1.
         23    2    1    2    0    0 -0.35927107584E+03 -0.52668956192E+03 -0.80770151221E+03  0.10339111388E+04  0.10056296308E+03 0.  0.
        254    2    1    2    0    0  0.35927107584E+03  0.52668956192E+03 -0.13810689819E+02  0.10989944474E+04  0.89505332788E+03 0.  0.
        -24    2    4    4    0    0  0.34433601807E+02 -0.10788249102E+03  0.28877528894E+03  0.32052087548E+03  0.80735118213E+02 0.  0.
         24    2    4    4    0    0  0.32483747403E+03  0.63457205294E+03 -0.30258597876E+03  0.77847357195E+03  0.79131237664E+02 0.  0.
         11    1    3    3    0    0 -0.51306331678E+02 -0.11419862541E+03 -0.21570880076E+03  0.24940720206E+03  0.00000000000E+00 0. -1.
        -11    1    3    3    0    0 -0.30796474416E+03 -0.41249093651E+03 -0.59199271145E+03  0.78450393674E+03  0.00000000000E+00 0.  1.
          2    1    6    6  502    0  0.29087892402E+03  0.50585066442E+03 -0.25875928387E+03  0.63831952040E+03  0.00000000000E+00 0. -1.
          3    1    5    5  503    0  0.12346347721E+02 -0.95428898814E+02  0.27566358099E+03  0.29197519915E+03  0.00000000000E+00 0. -1.
         -4    1    5    5    0  503  0.22087254085E+02 -0.12453592206E+02  0.13111707944E+02  0.28545676329E+02  0.00000000000E+00 0.  1.
         -1    1    6    6    0  502  0.33958550018E+02  0.12872138852E+03 -0.43826694881E+02  0.14015405155E+03  0.00000000000E+00 0.  1.
<mgrwt>
<rscale>  0 0.19683506E+04</rscale>
<asrwt>0</asrwt>
<pdfrwt beam="1">  1        2 0.22726291E+00 0.19683506E+04</pdfrwt>
<pdfrwt beam="2">  1       -2 0.10087641E+00 0.19683506E+04</pdfrwt>
<totfact> 0.98552489E+00</totfact>
</mgrwt>
</event>
<event>
12    1  0.1472088E-007  0.2751013E+04  0.7818608E-02  0.8318640E-01
         -2   -1    0    0    0  501 -0.00000000000E+00  0.00000000000E+00  0.41208967018E+03  0.41208967018E+03  0.00000000000E+00 0.  1.
          2   -1    0    0  501    0  0.00000000000E+00 -0.00000000000E+00 -0.45912784499E+04  0.45912784499E+04  0.00000000000E+00 0. -1.
         23    2    1    2    0    0 -0.13578588080E+02  0.11971482028E+04 -0.13768062147E+04  0.18268000926E+04  0.90857184312E+02 0.  0.
        254    2    1    2    0    0  0.13578588080E+02 -0.11971482028E+04 -0.28023825651E+04  0.31765680275E+04  0.89659812345E+03 0.  0.
        -24    2    4    4    0    0  0.41607257694E+03 -0.75485969727E+03 -0.13482145243E+04  0.16022176032E+04  0.80556145785E+02 0.  0.
         24    2    4    4    0    0 -0.40249398886E+03 -0.44228850552E+03 -0.14541680408E+04  0.15743504243E+04  0.79712198466E+02 0.  0.
         13    1    3    3    0    0  0.17193258719E+02  0.21357817607E+03 -0.29172315503E+03  0.36195807025E+03  0.00000000000E+00 0. -1.
        -13    1    3    3    0    0 -0.30771846799E+02  0.98357002672E+03 -0.10850830596E+04  0.14648420223E+04  0.00000000000E+00 0.  1.
          4    1    6    6  502    0 -0.28488920034E+03 -0.36035054456E+03 -0.10775299365E+04  0.11713603781E+04  0.00000000000E+00 0. -1.
          3    1    5    5  503    0  0.27753102764E+03 -0.42590947676E+03 -0.76789502609E+03  0.92091537330E+03  0.00000000000E+00 0. -1.
         -4    1    5    5    0  503  0.13854154930E+03 -0.32895022051E+03 -0.58031949817E+03  0.68130222986E+03  0.00000000000E+00 0.  1.
         -3    1    6    6    0  502 -0.11760478851E+03 -0.81937960958E+02 -0.37663810434E+03  0.40299004624E+03  0.00000000000E+00 0.  1.
<mgrwt>
<rscale>  0 0.27510132E+04</rscale>
<asrwt>0</asrwt>
<pdfrwt beam="1">  1        2 0.70635055E+00 0.27510132E+04</pdfrwt>
<pdfrwt beam="2">  1       -2 0.63398410E-01 0.27510132E+04</pdfrwt>
<totfact> 0.20119900E-01</totfact>
</mgrwt>
</event>
<event>
12    1  0.1472088E-007  0.1571071E+04  0.7818608E-02  0.8838520E-01
         -1   -1    0    0    0  501 -0.00000000000E+00  0.00000000000E+00  0.18548325753E+03  0.18548325753E+03  0.00000000000E+00 0.  1.
          1   -1    0    0  501    0  0.00000000000E+00 -0.00000000000E+00 -0.33268034734E+04  0.33268034734E+04  0.00000000000E+00 0. -1.
         23    2    1    2    0    0  0.38293674975E+03 -0.32665076409E+03 -0.72534743939E+03  0.88748360771E+03  0.90315946126E+02 0.  0.
        254    2    1    2    0    0 -0.38293674975E+03  0.32665076409E+03 -0.24159727765E+04  0.26248031233E+04  0.89405016806E+03 0.  0.
        -24    2    4    4    0    0 -0.62375828543E+03  0.16317430615E+03 -0.20481347020E+04  0.21487214278E+04  0.80297969565E+02 0.  0.
         24    2    4    4    0    0  0.24082153567E+03  0.16347645794E+03 -0.36783807449E+03  0.47608169544E+03  0.81420926912E+02 0.  0.
         13    1    3    3    0    0  0.23596461475E+03 -0.25282114466E+03 -0.51780283261E+03  0.62266973915E+03  0.00000000000E+00 0.  1.
        -13    1    3    3    0    0  0.14697213501E+03 -0.73829619429E+02 -0.20754460678E+03  0.26481386855E+03  0.00000000000E+00 0. -1.
          2    1    6    6  502    0  0.19297996046E+03  0.86896665370E+02 -0.26743738194E+03  0.34104992135E+03  0.00000000000E+00 0. -1.
          3    1    5    5  503    0 -0.48578279538E+03  0.15508957282E+03 -0.15471624034E+04  0.16290332110E+04  0.00000000000E+00 0. -1.
         -4    1    5    5    0  503 -0.13797549005E+03  0.80847333363E+01 -0.50097229859E+03  0.51968821684E+03  0.00000000000E+00 0.  1.
         -1    1    6    6    0  502  0.47841575213E+02  0.76579792571E+02 -0.10040069255E+03  0.13503177409E+03  0.00000000000E+00 0.  1.
<mgrwt>
<rscale>  0 0.15710714E+04</rscale>
<asrwt>0</asrwt>
<pdfrwt beam="1">  1        1 0.51181589E+00 0.15710714E+04</pdfrwt>
<pdfrwt beam="2">  1       -1 0.28535887E-01 0.15710714E+04</pdfrwt>
<totfact> 0.36802111E+00</totfact>
</mgrwt>
</event>
<event>
12    1  0.1472088E-007  0.1591559E+04  0.7818608E-02  0.8825751E-01
         -2   -1    0    0    0  501 -0.00000000000E+00  0.00000000000E+00  0.53813177727E+03  0.53813177727E+03  0.00000000000E+00 0.  1.
          2   -1    0    0  501    0  0.00000000000E+00 -0.00000000000E+00 -0.11767839666E+04  0.11767839666E+04  0.00000000000E+00 0. -1.
         23    2    1    2    0    0 -0.44665362207E+03  0.15831013926E+03  0.62212612906E+02  0.48650218581E+03  0.90842772397E+02 0.  0.
        254    2    1    2    0    0  0.44665362207E+03 -0.15831013926E+03 -0.70086480221E+03  0.12284135580E+04  0.89063283134E+03 0.  0.
        -24    2    4    4    0    0 -0.18352518352E+03  0.13265924473E+03 -0.17998369386E+01  0.23997588304E+03  0.79405395469E+02 0.  0.
         24    2    4    4    0    0  0.63017880559E+03 -0.29096938399E+03 -0.69906496527E+03  0.98843767498E+03  0.80800384983E+02 0.  0.
         11    1    3    3    0    0 -0.23925744808E+03  0.49961229404E+02  0.63397112650E+02  0.25250632625E+03  0.00000000000E+00 0. -1.
        -11    1    3    3    0    0 -0.20739617399E+03  0.10834890985E+03 -0.11844997441E+01  0.23399585956E+03  0.00000000000E+00 0.  1.
          4    1    6    6  502    0  0.20641520069E+03 -0.82219380822E+02 -0.17450394595E+03  0.28252236869E+03  0.00000000000E+00 0. -1.
          3    1    5    5  503    0 -0.90460389233E+02  0.87457922371E+02 -0.36228107637E+02  0.13093680151E+03  0.00000000000E+00 0. -1.
         -4    1    5    5    0  503 -0.93064794288E+02  0.45201322364E+02  0.34428270699E+02  0.10903908154E+03  0.00000000000E+00 0.  1.
         -3    1    6    6    0  502  0.42376360490E+03 -0.20875000317E+03 -0.52456101932E+03  0.70591530629E+03  0.00000000000E+00 0.  1.
<mgrwt>
<rscale>  0 0.15915588E+04</rscale>
<asrwt>0</asrwt>
<pdfrwt beam="1">  1        2 0.18104368E+00 0.15915588E+04</pdfrwt>
<pdfrwt beam="2">  1       -2 0.82789506E-01 0.15915588E+04</pdfrwt>
<totfact> 0.24012699E+01</totfact>
</mgrwt>
</event>
<event>
12    1  0.1472088E-007  0.1491626E+04  0.7818608E-02  0.8890041E-01
         -1   -1    0    0    0  501 -0.00000000000E+00  0.00000000000E+00  0.15446263544E+04  0.15446263544E+04  0.00000000000E+00 0.  1.
          1   -1    0    0  501    0  0.00000000000E+00 -0.00000000000E+00 -0.36011116203E+03  0.36011116203E+03  0.00000000000E+00 0. -1.
         23    2    1    2    0    0 -0.43288310869E+03 -0.57725978537E+02  0.16057202707E+03  0.47410757219E+03  0.90964497154E+02 0.  0.
        254    2    1    2    0    0  0.43288310869E+03  0.57725978537E+02  0.10239431653E+04  0.14306299442E+04  0.89862247757E+03 0.  0.
        -24    2    4    4    0    0  0.52535189671E+03 -0.27348464489E+03  0.84586121900E+03  0.10355205706E+04  0.77673573162E+02 0.  0.
         24    2    4    4    0    0 -0.92468788020E+02  0.33121062343E+03  0.17808194628E+03  0.39510937362E+03  0.78404615318E+02 0.  0.
         13    1    3    3    0    0 -0.39753869389E+03 -0.44100042337E+02  0.17072661961E+03  0.43489010741E+03  0.00000000000E+00 0. -1.
        -13    1    3    3    0    0 -0.35344414794E+02 -0.13625936200E+02 -0.10154592533E+02  0.39217464782E+02  0.00000000000E+00 0.  1.
          2    1    6    6  502    0 -0.14134298312E+02  0.89378109722E+02  0.11570272307E+02  0.91225523224E+02  0.00000000000E+00 0. -1.
          3    1    5    5  503    0  0.22465183626E+03 -0.10710433231E+03  0.42108704472E+03  0.48913605957E+03  0.00000000000E+00 0. -1.
         -4    1    5    5    0  503  0.30070006044E+03 -0.16638031258E+03  0.42477417428E+03  0.54638451104E+03  0.00000000000E+00 0.  1.
         -1    1    6    6    0  502 -0.78334489708E+02  0.24183251371E+03  0.16651167397E+03  0.30388385040E+03  0.00000000000E+00 0.  1.
<mgrwt>
<rscale>  0 0.14916262E+04</rscale>
<asrwt>0</asrwt>
<pdfrwt beam="1">  1        1 0.55401718E-01 0.14916262E+04</pdfrwt>
<pdfrwt beam="2">  1       -1 0.23763482E+00 0.14916262E+04</pdfrwt>
<totfact> 0.56128059E+00</totfact>
</mgrwt>
</event>
<event>
12    1  0.1472088E-007  0.1777438E+04  0.7818608E-02  0.8718391E-01
          1   -1    0    0  501    0  0.00000000000E+00  0.00000000000E+00  0.10364658043E+04  0.10364658043E+04  0.00000000000E+00 0. -1.
         -1   -1    0    0    0  501 -0.00000000000E+00 -0.00000000000E+00 -0.76203297941E+03  0.76203297941E+03  0.00000000000E+00 0.  1.
         23    2    1    2    0    0  0.61674176172E+03  0.12426677205E+03  0.30171705107E+03  0.70335081600E+03  0.88637239204E+02 0.  0.
        254    2    1    2    0    0 -0.61674176172E+03 -0.12426677205E+03 -0.27284226187E+02  0.10951479677E+04  0.89598661311E+03 0.  0.
        -24    2    4    4    0    0 -0.45313862176E+03  0.33945424231E+03  0.10139400720E+03  0.58161445517E+03  0.86202300550E+02 0.  0.
         24    2    4    4    0    0 -0.16360313997E+03 -0.46372101436E+03 -0.12867823339E+03  0.51353351253E+03  0.73180695387E+02 0.  0.
         13    1    3    3    0    0  0.13939859350E+03  0.45030881677E+02  0.10862808948E+03  0.18237272274E+03  0.00000000000E+00 0. -1.
        -13    1    3    3    0    0  0.47734316822E+03  0.79235890373E+02  0.19308896158E+03  0.52097809326E+03  0.00000000000E+00 0.  1.
          4    1    6    6  502    0 -0.13015328934E+03 -0.26064926577E+03 -0.76432607342E+02  0.30119738037E+03  0.00000000000E+00 0. -1.
          3    1    5    5  503    0 -0.31886889503E+03  0.24075213896E+03  0.31120391364E+02  0.40075858493E+03  0.00000000000E+00 0. -1.
         -4    1    5    5    0  503 -0.13426972672E+03  0.98702103355E+02  0.70273615835E+02  0.18085587025E+03  0.00000000000E+00 0.  1.
         -3    1    6    6    0  502 -0.33449850624E+02 -0.20307174859E+03 -0.52245626044E+02  0.21233613216E+03  0.00000000000E+00 0.  1.
<mgrwt>
<rscale>  0 0.17774376E+04</rscale>
<asrwt>0</asrwt>
<pdfrwt beam="1">  1        1 0.15945628E+00 0.17774376E+04</pdfrwt>
<pdfrwt beam="2">  1       -1 0.11723584E+00 0.17774376E+04</pdfrwt>
<totfact> 0.87830502E+00</totfact>
</mgrwt>
</event>
<event>
12    1  0.1472088E-007  0.1159758E+04  0.7818608E-02  0.9148829E-01
         -2   -1    0    0    0  501 -0.00000000000E+00  0.00000000000E+00  0.44170156124E+03  0.44170156124E+03  0.00000000000E+00 0.  1.
          2   -1    0    0  501    0  0.00000000000E+00 -0.00000000000E+00 -0.76128206400E+03  0.76128206400E+03  0.00000000000E+00 0. -1.
         23    2    1    2    0    0 -0.20076570834E+03  0.21483836200E+02 -0.11866769891E+03  0.25094141096E+03  0.90117390709E+02 0.  0.
        254    2    1    2    0    0  0.20076570834E+03 -0.21483836200E+02 -0.20091280385E+03  0.95204221428E+03  0.90843271527E+03 0.  0.
        -24    2    4    4    0    0 -0.33553368335E+03 -0.10442360868E+03  0.22230892872E+02  0.35987672807E+03  0.74363324912E+02 0.  0.
         24    2    4    4    0    0  0.53629939169E+03  0.82939772480E+02 -0.22314369672E+03  0.59216548622E+03  0.79817355825E+02 0.  0.
         11    1    3    3    0    0 -0.18388901150E+03  0.47626443647E+02 -0.10353803585E+03  0.21634133113E+03  0.00000000000E+00 0. -1.
        -11    1    3    3    0    0 -0.16876696836E+02 -0.26142607447E+02 -0.15129663054E+02  0.34600079832E+02  0.00000000000E+00 0.  1.
          4    1    6    6  502    0  0.32385019914E+03  0.26171471435E+02 -0.16650325365E+03  0.36508523782E+03  0.00000000000E+00 0. -1.
          3    1    5    5  503    0 -0.42683566172E+02  0.97371506317E+01  0.12001818836E+02  0.45395402619E+02  0.00000000000E+00 0. -1.
         -4    1    5    5    0  503 -0.29285011718E+03 -0.11416075931E+03  0.10229074036E+02  0.31448132545E+03  0.00000000000E+00 0.  1.
         -3    1    6    6    0  502  0.21244919255E+03  0.56768301045E+02 -0.56640443077E+02  0.22708024839E+03  0.00000000000E+00 0.  1.
<mgrwt>
<rscale>  0 0.11597577E+04</rscale>
<asrwt>0</asrwt>
<pdfrwt beam="1">  1        2 0.11712032E+00 0.11597577E+04</pdfrwt>
<pdfrwt beam="2">  1       -2 0.67954087E-01 0.11597577E+04</pdfrwt>
<totfact> 0.72184402E+01</totfact>
</mgrwt>
</event>
<event>
12    1  0.1841850E-007  0.1926367E+04  0.7818608E-02  0.8641842E-01
         -2   -1    0    0    0  501 -0.00000000000E+00  0.00000000000E+00  0.42455461328E+03  0.42455461328E+03  0.00000000000E+00 0.  1.
          2   -1    0    0  501    0  0.00000000000E+00 -0.00000000000E+00 -0.21851661569E+04  0.21851661569E+04  0.00000000000E+00 0. -1.
         23    2    1    2    0    0 -0.46431651639E+03 -0.13223457380E+02  0.10772490756E+03  0.48374453345E+03  0.81482701901E+02 0.  0.
        254    2    1    2    0    0  0.46431651639E+03  0.13223457380E+02 -0.18683364511E+04  0.21259762367E+04  0.90184764627E+03 0.  0.
        -24    2    4    4    0    0  0.50717853736E+02 -0.40378556759E+03 -0.64148457773E+03  0.76378429020E+03  0.79049941285E+02 0.  0.
         24    2    4    4    0    0  0.41359866266E+03  0.41700902497E+03 -0.12268518734E+04  0.13621919465E+04  0.73763128456E+02 0.  0.
         13    1    3    3    0    0 -0.92115218052E+02  0.13618528087E+02  0.51366762807E+02  0.10634482604E+03  0.00000000000E+00 0. -1.
        -13    1    3    3    0    0 -0.37220129834E+03 -0.26841985467E+02  0.56358144757E+02  0.37739970741E+03  0.00000000000E+00 0.  1.
          2    1    6    6  502    0  0.42648909809E+02  0.21272416268E+02 -0.72605426105E+02  0.86850406457E+02  0.00000000000E+00 0. -1.
          1    1    5    5  503    0  0.30036386008E+02 -0.76115043658E+02 -0.17675704754E+03  0.19477869034E+03  0.00000000000E+00 0. -1.
         -2    1    5    5    0  503  0.20681467727E+02 -0.32767052393E+03 -0.46472753018E+03  0.56900559986E+03  0.00000000000E+00 0.  1.
         -1    1    6    6    0  502  0.37094975285E+03  0.39573660870E+03 -0.11542464473E+04  0.12753415400E+04  0.00000000000E+00 0.  1.
<mgrwt>
<rscale>  0 0.19263669E+04</rscale>
<asrwt>0</asrwt>
<pdfrwt beam="1">  1        2 0.33617940E+00 0.19263669E+04</pdfrwt>
<pdfrwt beam="2">  1       -2 0.65316096E-01 0.19263669E+04</pdfrwt>
<totfact> 0.10629686E+01</totfact>
</mgrwt>
</event>
<event>
12    1  0.1472088E-007  0.1404434E+04  0.7818608E-02  0.8950615E-01
          3   -1    0    0  501    0  0.00000000000E+00  0.00000000000E+00  0.34391626283E+03  0.34391626283E+03  0.00000000000E+00 0. -1.
         -3   -1    0    0    0  501 -0.00000000000E+00 -0.00000000000E+00 -0.14338049953E+04  0.14338049953E+04  0.00000000000E+00 0.  1.
         23    2    1    2    0    0 -0.38956236012E+03 -0.87547431847E+02 -0.18683214947E+03  0.45031009856E+03  0.91921420495E+02 0.  0.
        254    2    1    2    0    0  0.38956236012E+03  0.87547431847E+02 -0.90305658298E+03  0.13274111595E+04  0.88717856668E+03 0.  0.
        -24    2    4    4    0    0  0.22172161038E+03  0.20329934688E+03  0.79462906016E+02  0.32080986061E+03  0.78188978009E+02 0.  0.
         24    2    4    4    0    0  0.16784074974E+03 -0.11575191503E+03 -0.98251948899E+03  0.10066012989E+04  0.79577670627E+02 0.  0.
         13    1    3    3    0    0 -0.26601246491E+03 -0.34343188881E+02 -0.16250922133E+03  0.31361016108E+03  0.00000000000E+00 0. -1.
        -13    1    3    3    0    0 -0.12354989520E+03 -0.53204242966E+02 -0.24322928132E+02  0.13669993748E+03  0.00000000000E+00 0.  1.
          4    1    6    6  502    0  0.14802224320E+03 -0.75816169541E+02 -0.86639736513E+03  0.88221486632E+03  0.00000000000E+00 0. -1.
          1    1    5    5  503    0  0.17670962896E+03  0.15497851195E+03  0.27233368887E+02  0.23661421875E+03  0.00000000000E+00 0. -1.
         -2    1    5    5    0  503  0.45011981412E+02  0.48320834927E+02  0.52229537129E+02  0.84195641855E+02  0.00000000000E+00 0.  1.
         -3    1    6    6    0  502  0.19818506547E+02 -0.39935745490E+02 -0.11612212386E+03  0.12438643262E+03  0.00000000000E+00 0.  1.
<mgrwt>
<rscale>  0 0.14044342E+04</rscale>
<asrwt>0</asrwt>
<pdfrwt beam="1">  1        3 0.52910195E-01 0.14044342E+04</pdfrwt>
<pdfrwt beam="2">  1       -3 0.22058538E+00 0.14044342E+04</pdfrwt>
<totfact> 0.98412497E-01</totfact>
</mgrwt>
</event>
<event>
12    1  0.1472088E-007  0.1309466E+04  0.7818608E-02  0.9022092E-01
          1   -1    0    0  501    0  0.00000000000E+00  0.00000000000E+00  0.57675776395E+03  0.57675776395E+03  0.00000000000E+00 0. -1.
         -1   -1    0    0    0  501 -0.00000000000E+00 -0.00000000000E+00 -0.74324995838E+03  0.74324995838E+03  0.00000000000E+00 0.  1.
         23    2    1    2    0    0  0.45155866683E+02 -0.27406355357E+03  0.12357723394E+03  0.31859187762E+03  0.95286767400E+02 0.  0.
        254    2    1    2    0    0 -0.45155866683E+02  0.27406355357E+03 -0.29006942837E+03  0.10014158447E+04  0.91735682102E+03 0.  0.
        -24    2    4    4    0    0  0.31656157235E+03  0.44275790756E+03 -0.14056799934E+03  0.56763524006E+03  0.78769343810E+02 0.  0.
         24    2    4    4    0    0 -0.36171743904E+03 -0.16869435399E+03 -0.14950142903E+03  0.43378060464E+03  0.80731932431E+02 0.  0.
         11    1    3    3    0    0  0.37002844202E+02 -0.43246999784E+02  0.51198493723E+02  0.76555856920E+02  0.00000000000E+00 0.  1.
        -11    1    3    3    0    0  0.81530224806E+01 -0.23081655379E+03  0.72378740221E+02  0.24203602070E+03  0.00000000000E+00 0. -1.
          4    1    6    6  502    0 -0.33552664143E+03 -0.13228871046E+03 -0.14495295859E+03  0.38870270160E+03  0.00000000000E+00 0. -1.
          1    1    5    5  503    0  0.31765973198E+03  0.43658085111E+03 -0.13000321053E+03  0.55534798066E+03  0.00000000000E+00 0. -1.
         -2    1    5    5    0  503 -0.10981596245E+01  0.61770564543E+01 -0.10564788815E+02  0.12287259406E+02  0.00000000000E+00 0.  1.
         -3    1    6    6    0  502 -0.26190797602E+02 -0.36405643524E+02 -0.45484704381E+01  0.45077903043E+02  0.00000000000E+00 0.  1.
<mgrwt>
<rscale>  0 0.13094658E+04</rscale>
<asrwt>0</asrwt>
<pdfrwt beam="1">  1        1 0.88731964E-01 0.13094658E+04</pdfrwt>
<pdfrwt beam="2">  1       -1 0.11434615E+00 0.13094658E+04</pdfrwt>
<totfact> 0.24780308E+01</totfact>
</mgrwt>
</event>
<event>
12    1  0.1472088E-007  0.1510552E+04  0.7818608E-02  0.8877466E-01
          2   -1    0    0  501    0  0.00000000000E+00  0.00000000000E+00  0.50424885949E+03  0.50424885949E+03  0.00000000000E+00 0. -1.
         -2   -1    0    0    0  501 -0.00000000000E+00 -0.00000000000E+00 -0.11312698864E+04  0.11312698864E+04  0.00000000000E+00 0.  1.
         23    2    1    2    0    0  0.33028439091E+03  0.23389240595E+03  0.79890587408E+02  0.42250542441E+03  0.91295625598E+02 0.  0.
        254    2    1    2    0    0 -0.33028439091E+03 -0.23389240595E+03 -0.70691161430E+03  0.12130133215E+04  0.89882359292E+03 0.  0.
        -24    2    4    4    0    0 -0.34068705309E+03 -0.51010214015E+03 -0.23802976998E+03  0.66297408389E+03  0.81268708491E+02 0.  0.
         24    2    4    4    0    0  0.10402662180E+02  0.27620973420E+03 -0.46888184432E+03  0.55003923758E+03  0.79328092718E+02 0.  0.
         13    1    3    3    0    0  0.17584805833E+03  0.78805671185E+02  0.10834300494E+02  0.19300325256E+03  0.00000000000E+00 0.  1.
        -13    1    3    3    0    0  0.15443633258E+03  0.15508673476E+03  0.69056286914E+02  0.22950217185E+03  0.00000000000E+00 0. -1.
          2    1    6    6  502    0  0.26591701312E+02  0.27341054907E+02 -0.64893014301E+02  0.75271210745E+02  0.00000000000E+00 0. -1.
          1    1    5    5  503    0 -0.25153873350E+03 -0.30653641602E+03 -0.15080371128E+03  0.42423822097E+03  0.00000000000E+00 0. -1.
         -2    1    5    5    0  503 -0.89148319597E+02 -0.20356572413E+03 -0.87226058692E+02  0.23873586292E+03  0.00000000000E+00 0.  1.
         -1    1    6    6    0  502 -0.16189039132E+02  0.24886867930E+03 -0.40398883002E+03  0.47476802684E+03  0.00000000000E+00 0.  1.
<mgrwt>
<rscale>  0 0.15105516E+04</rscale>
<asrwt>0</asrwt>
<pdfrwt beam="1">  1        2 0.77576749E-01 0.15105516E+04</pdfrwt>
<pdfrwt beam="2">  1       -2 0.17404152E+00 0.15105516E+04</pdfrwt>
<totfact> 0.11734576E+01</totfact>
</mgrwt>
</event>
<event>
12    1  0.1472088E-007  0.2007297E+04  0.7818608E-02  0.8603217E-01
         -1   -1    0    0    0  501 -0.00000000000E+00  0.00000000000E+00  0.37910465737E+03  0.37910465737E+03  0.00000000000E+00 0.  1.
          1   -1    0    0  501    0  0.00000000000E+00 -0.00000000000E+00 -0.26570770466E+04  0.26570770466E+04  0.00000000000E+00 0. -1.
         23    2    1    2    0    0 -0.38043995970E+03 -0.14400629559E+03  0.13113211773E+03  0.43712953619E+03  0.91729073907E+02 0.  0.
        254    2    1    2    0    0  0.38043995970E+03  0.14400629559E+03 -0.24091045069E+04  0.25990521677E+04  0.88646222101E+03 0.  0.
        -24    2    4    4    0    0  0.42821863702E+03 -0.24920780618E+03 -0.17975344231E+04  0.18664084738E+04  0.82914758579E+02 0.  0.
         24    2    4    4    0    0 -0.47778677320E+02  0.39321410177E+03 -0.61157008382E+03  0.73264369391E+03  0.76476682524E+02 0.  0.
         11    1    3    3    0    0 -0.26207003502E+03 -0.12799470939E+03  0.12560700511E+03  0.31755388301E+03  0.00000000000E+00 0.  1.
        -11    1    3    3    0    0 -0.11836992469E+03 -0.16011586209E+02  0.55251126206E+01  0.11957565318E+03  0.00000000000E+00 0. -1.
          2    1    6    6  502    0 -0.39083477083E+02  0.91173922184E+02 -0.18466368539E+03  0.20962079803E+03  0.00000000000E+00 0. -1.
          1    1    5    5  503    0  0.10418016497E+02 -0.26166614728E+02 -0.12330518659E+03  0.12648081212E+03  0.00000000000E+00 0. -1.
         -2    1    5    5    0  503  0.41780062053E+03 -0.22304119145E+03 -0.16742292365E+04  0.17399276617E+04  0.00000000000E+00 0.  1.
         -1    1    6    6    0  502 -0.86952002368E+01  0.30204017959E+03 -0.42690639843E+03  0.52302289588E+03  0.00000000000E+00 0.  1.
<mgrwt>
<rscale>  0 0.20072970E+04</rscale>
<asrwt>0</asrwt>
<pdfrwt beam="1">  1        1 0.40878108E+00 0.20072970E+04</pdfrwt>
<pdfrwt beam="2">  1       -1 0.58323794E-01 0.20072970E+04</pdfrwt>
<totfact> 0.29079587E+00</totfact>
</mgrwt>
</event>
<event>
12    1  0.1472088E-007  0.1788217E+04  0.7818608E-02  0.8712591E-01
          1   -1    0    0  501    0  0.00000000000E+00  0.00000000000E+00  0.68244617731E+03  0.68244617731E+03  0.00000000000E+00 0. -1.
         -1   -1    0    0    0  501 -0.00000000000E+00 -0.00000000000E+00 -0.11714188621E+04  0.11714188621E+04  0.00000000000E+00 0.  1.
         23    2    1    2    0    0  0.48538833102E+03 -0.39755047140E+03 -0.39973799912E+03  0.74887732841E+03  0.85898637158E+02 0.  0.
        254    2    1    2    0    0 -0.48538833102E+03  0.39755047140E+03 -0.89234685708E+02  0.11049877110E+04  0.90519986921E+03 0.  0.
        -24    2    4    4    0    0  0.18982993708E+03  0.11777057876E+03 -0.25806053040E+03  0.35055890958E+03  0.79943714590E+02 0.  0.
         24    2    4    4    0    0 -0.67521826810E+03  0.27977989264E+03  0.16882584469E+03  0.75442880146E+03  0.80399954832E+02 0.  0.
         13    1    3    3    0    0  0.33916094533E+03 -0.31287621436E+03 -0.32327769570E+03  0.56340939013E+03  0.00000000000E+00 0.  1.
        -13    1    3    3    0    0  0.14622738569E+03 -0.84674257041E+02 -0.76460303427E+02  0.18546793829E+03  0.00000000000E+00 0. -1.
          2    1    6    6  502    0 -0.36363479257E+03  0.15149126108E+03  0.49799067477E+02  0.39706398939E+03  0.00000000000E+00 0. -1.
          1    1    5    5  503    0  0.39203921436E+02 -0.79406374650E+01 -0.31924586255E+02  0.51177928709E+02  0.00000000000E+00 0. -1.
         -2    1    5    5    0  503  0.15062601565E+03  0.12571121622E+03 -0.22613594414E+03  0.29938098087E+03  0.00000000000E+00 0.  1.
         -1    1    6    6    0  502 -0.31158347553E+03  0.12828863156E+03  0.11902677721E+03  0.35736481207E+03  0.00000000000E+00 0.  1.
<mgrwt>
<rscale>  0 0.17882174E+04</rscale>
<asrwt>0</asrwt>
<pdfrwt beam="1">  1        1 0.10499172E+00 0.17882174E+04</pdfrwt>
<pdfrwt beam="2">  1       -1 0.18021829E+00 0.17882174E+04</pdfrwt>
<totfact> 0.55450837E+00</totfact>
</mgrwt>
</event>
<event>
12    1  0.1472088E-007  0.3408363E+04  0.7818608E-02  0.8135857E-01
          2   -1    0    0  501    0  0.00000000000E+00  0.00000000000E+00  0.19458658564E+04  0.19458658564E+04  0.00000000000E+00 0. -1.
         -2   -1    0    0    0  501 -0.00000000000E+00 -0.00000000000E+00 -0.14925157084E+04  0.14925157084E+04  0.00000000000E+00 0.  1.
         23    2    1    2    0    0 -0.87758614691E+03  0.89168150999E+03 -0.77300264649E+03  0.14734489071E+04  0.90913309426E+02 0.  0.
        254    2    1    2    0    0  0.87758614691E+03 -0.89168150999E+03  0.12263527945E+04  0.19649326577E+04  0.88981223419E+03 0.  0.
        -24    2    4    4    0    0  0.76842014372E+03 -0.26491850888E+03  0.98556441709E+03  0.12800207397E+04  0.80402363800E+02 0.  0.
         24    2    4    4    0    0  0.10916600319E+03 -0.62676300111E+03  0.24078837745E+03  0.68491191804E+03  0.79851217547E+02 0.  0.
         11    1    3    3    0    0 -0.58259115706E+03  0.64887125024E+03 -0.52279627700E+03  0.10167410206E+04  0.00000000000E+00 0.  1.
        -11    1    3    3    0    0 -0.29499498984E+03  0.24281025974E+03 -0.25020636950E+03  0.45670788652E+03  0.00000000000E+00 0. -1.
          4    1    6    6  502    0  0.35408743073E+02 -0.40511021037E+03  0.17062618906E+03  0.44100040593E+03  0.00000000000E+00 0. -1.
          3    1    5    5  503    0  0.67724594344E+03 -0.20923124677E+03  0.83298521459E+03  0.10937568972E+04  0.00000000000E+00 0. -1.
         -4    1    5    5    0  503  0.91174200277E+02 -0.55687262109E+02  0.15257920251E+03  0.18626384242E+03  0.00000000000E+00 0.  1.
         -3    1    6    6    0  502  0.73757260112E+02 -0.22165279074E+03  0.70162188392E+02  0.24391151211E+03  0.00000000000E+00 0.  1.
<mgrwt>
<rscale>  0 0.34083635E+04</rscale>
<asrwt>0</asrwt>
<pdfrwt beam="1">  1        2 0.29936398E+00 0.34083635E+04</pdfrwt>
<pdfrwt beam="2">  1       -2 0.22961780E+00 0.34083635E+04</pdfrwt>
<totfact> 0.50969566E-01</totfact>
</mgrwt>
</event>
<event>
12    1  0.1472088E-007  0.1732295E+04  0.7818608E-02  0.8743157E-01
          1   -1    0    0  501    0  0.00000000000E+00  0.00000000000E+00  0.12724819104E+04  0.12724819104E+04  0.00000000000E+00 0. -1.
         -1   -1    0    0    0  501 -0.00000000000E+00 -0.00000000000E+00 -0.58956524873E+03  0.58956524873E+03  0.00000000000E+00 0.  1.
         23    2    1    2    0    0 -0.54159073832E+02 -0.10198327434E+03 -0.41716006610E+03  0.44133925669E+03  0.86162783293E+02 0.  0.
        254    2    1    2    0    0  0.54159073832E+02  0.10198327434E+03  0.11000767278E+04  0.14207079025E+04  0.89157632516E+03 0.  0.
        -24    2    4    4    0    0  0.18041523021E+03 -0.82862981391E+02 -0.71063238022E+02  0.22559501420E+03  0.80169805130E+02 0.  0.
         24    2    4    4    0    0 -0.12625615638E+03  0.18484625573E+03  0.11711399658E+04  0.11951128883E+04  0.81346425203E+02 0.  0.
         13    1    3    3    0    0 -0.22053180673E+02  0.11887227160E+02 -0.57528228783E+02  0.62746681620E+02  0.00000000000E+00 0. -1.
        -13    1    3    3    0    0 -0.32105893159E+02 -0.11387050150E+03 -0.35963183732E+03  0.37859257507E+03  0.00000000000E+00 0.  1.
          2    1    6    6  502    0 -0.12476011432E+03  0.15315235056E+03  0.10941922934E+04  0.11118801660E+04  0.00000000000E+00 0. -1.
          3    1    5    5  503    0  0.17160217039E+03 -0.81707881521E+02 -0.85685024698E+02  0.20848358747E+03  0.00000000000E+00 0. -1.
         -4    1    5    5    0  503  0.88130598239E+01 -0.11550998692E+01  0.14621786676E+02  0.17111426731E+02  0.00000000000E+00 0.  1.
         -1    1    6    6    0  502 -0.14960420654E+01  0.31693905164E+02  0.76947672451E+02  0.83232722303E+02  0.00000000000E+00 0.  1.
<mgrwt>
<rscale>  0 0.17322946E+04</rscale>
<asrwt>0</asrwt>
<pdfrwt beam="1">  1        1 0.19576645E+00 0.17322946E+04</pdfrwt>
<pdfrwt beam="2">  1       -1 0.90702346E-01 0.17322946E+04</pdfrwt>
<totfact> 0.10667815E+01</totfact>
</mgrwt>
</event>
<event>
12    1  0.1472088E-007  0.1918716E+04  0.7818608E-02  0.8645596E-01
          1   -1    0    0  501    0  0.00000000000E+00  0.00000000000E+00  0.83020748234E+03  0.83020748234E+03  0.00000000000E+00 0. -1.
         -1   -1    0    0    0  501 -0.00000000000E+00 -0.00000000000E+00 -0.11086002793E+04  0.11086002793E+04  0.00000000000E+00 0.  1.
         23    2    1    2    0    0 -0.12472810559E+03  0.19897975271E+02 -0.84307446018E+03  0.85736658011E+03  0.91377664291E+02 0.  0.
        254    2    1    2    0    0  0.12472810559E+03 -0.19897975271E+02  0.56468166322E+03  0.10814411815E+04  0.91361732614E+03 0.  0.
        -24    2    4    4    0    0 -0.23576321235E+03 -0.17854113660E+03  0.60487456034E+03  0.67804709537E+03  0.80083706408E+02 0.  0.
         24    2    4    4    0    0  0.36049131794E+03  0.15864316133E+03 -0.40192897120E+02  0.40339408618E+03  0.77393002502E+02 0.  0.
         13    1    3    3    0    0 -0.47882240358E+02 -0.14449358591E+02 -0.55493614641E+03  0.55718544444E+03  0.00000000000E+00 0.  1.
        -13    1    3    3    0    0 -0.76845865231E+02  0.34347333861E+02 -0.28813831377E+03  0.30018113567E+03  0.00000000000E+00 0. -1.
          2    1    6    6  502    0  0.33551823695E+03  0.13311056365E+03 -0.18128926944E+02  0.36141329178E+03  0.00000000000E+00 0. -1.
          1    1    5    5  503    0 -0.20049119590E+03 -0.17484035561E+03  0.56616785454E+03  0.62554928591E+03  0.00000000000E+00 0. -1.
         -2    1    5    5    0  503 -0.35272016447E+02 -0.37007809953E+01  0.38706705796E+02  0.52497809457E+02  0.00000000000E+00 0.  1.
         -1    1    6    6    0  502  0.24973080990E+02  0.25532597681E+02 -0.22063970176E+02  0.41980794400E+02  0.00000000000E+00 0.  1.
<mgrwt>
<rscale>  0 0.19187165E+04</rscale>
<asrwt>0</asrwt>
<pdfrwt beam="1">  1        1 0.12772423E+00 0.19187165E+04</pdfrwt>
<pdfrwt beam="2">  1       -1 0.17055389E+00 0.19187165E+04</pdfrwt>
<totfact> 0.47406511E+00</totfact>
</mgrwt>
</event>
<event>
12    1  0.1472088E-007  0.1750680E+04  0.7818608E-02  0.8732976E-01
         -2   -1    0    0    0  501 -0.00000000000E+00  0.00000000000E+00  0.44849437479E+03  0.44849437479E+03  0.00000000000E+00 0. -1.
          2   -1    0    0  501    0  0.00000000000E+00 -0.00000000000E+00 -0.17084274144E+04  0.17084274144E+04  0.00000000000E+00 0.  1.
         23    2    1    2    0    0 -0.29272290482E+03  0.55146447288E+03 -0.67072086357E+03  0.92164897063E+03  0.98846266363E+02 0.  0.
        254    2    1    2    0    0  0.29272290482E+03 -0.55146447288E+03 -0.58921217602E+03  0.12352728185E+04  0.88821629348E+03 0.  0.
        -24    2    4    4    0    0  0.29792016010E+03 -0.34289155294E+03  0.13235194504E+03  0.47975408715E+03  0.79472686564E+02 0.  0.
         24    2    4    4    0    0 -0.51972552832E+01 -0.20857291994E+03 -0.72156412105E+03  0.75551873139E+03  0.81388563643E+02 0.  0.
         11    1    3    3    0    0 -0.24526851328E+03  0.47226835402E+03 -0.51461968263E+03  0.74028876769E+03  0.00000000000E+00 0.  1.
        -11    1    3    3    0    0 -0.47454391538E+02  0.79196118863E+02 -0.15610118094E+03  0.18136020294E+03  0.00000000000E+00 0. -1.
          4    1    6    6  502    0 -0.22001696858E+02 -0.15325082753E+03 -0.61599820147E+03  0.63515641776E+03  0.00000000000E+00 0. -1.
          1    1    5    5  503    0  0.27912743102E+03 -0.29422682493E+03  0.13521098350E+03  0.42750854648E+03  0.00000000000E+00 0. -1.
         -4    1    5    5    0  503  0.18792729077E+02 -0.48664728015E+02 -0.28590384600E+01  0.52245540669E+02  0.00000000000E+00 0.  1.
         -3    1    6    6    0  502  0.16804441575E+02 -0.55322092409E+02 -0.10556591958E+03  0.12036231363E+03  0.00000000000E+00 0.  1.
<mgrwt>
<rscale>  0 0.17506800E+04</rscale>
<asrwt>0</asrwt>
<pdfrwt beam="1">  1        2 0.26283499E+00 0.17506800E+04</pdfrwt>
<pdfrwt beam="2">  1       -2 0.68999134E-01 0.17506800E+04</pdfrwt>
<totfact> 0.17636534E+01</totfact>
</mgrwt>
</event>
<event>
12    1  0.1472088E-007  0.1896943E+04  0.7818608E-02  0.8656380E-01
          2   -1    0    0  501    0  0.00000000000E+00  0.00000000000E+00  0.16989325188E+04  0.16989325188E+04  0.00000000000E+00 0. -1.
         -2   -1    0    0    0  501 -0.00000000000E+00 -0.00000000000E+00 -0.52950767955E+03  0.52950767955E+03  0.00000000000E+00 0.  1.
         23    2    1    2    0    0  0.60754239688E+03 -0.14740752282E+03  0.29398197874E+02  0.63209405797E+03  0.88554515929E+02 0.  0.
        254    2    1    2    0    0 -0.60754239688E+03  0.14740752282E+03  0.11400266413E+04  0.15963461403E+04  0.92618762409E+03 0.  0.
        -24    2    4    4    0    0  0.57113548481E+02  0.36280929784E+03  0.60582367016E+03  0.71295323355E+03  0.79921523295E+02 0.  0.
         24    2    4    4    0    0 -0.66465594536E+03 -0.21540177502E+03  0.53420297118E+03  0.88339290679E+03  0.82733082594E+02 0.  0.
         11    1    3    3    0    0  0.36203080830E+03 -0.73917786229E+02 -0.24137285763E+02  0.37028739358E+03  0.00000000000E+00 0. -1.
        -11    1    3    3    0    0  0.24551158859E+03 -0.73489736588E+02  0.53535483637E+02  0.26180666440E+03  0.00000000000E+00 0.  1.
          2    1    6    6  502    0 -0.60662194630E+03 -0.22016159203E+03  0.48932546734E+03  0.80987698160E+03  0.00000000000E+00 0. -1.
          3    1    5    5  503    0  0.18577194572E+02  0.26749198638E+03  0.38275263191E+03  0.46732927596E+03  0.00000000000E+00 0. -1.
         -4    1    5    5    0  503  0.38536353909E+02  0.95317311459E+02  0.22307103825E+03  0.24562395759E+03  0.00000000000E+00 0.  1.
         -1    1    6    6    0  502 -0.58033999062E+02  0.47598170092E+01  0.44877503831E+02  0.73515925181E+02  0.00000000000E+00 0.  1.
<mgrwt>
<rscale>  0 0.18969426E+04</rscale>
<asrwt>0</asrwt>
<pdfrwt beam="1">  1        2 0.26137423E+00 0.18969426E+04</pdfrwt>
<pdfrwt beam="2">  1       -2 0.81462721E-01 0.18969426E+04</pdfrwt>
<totfact> 0.12206671E+01</totfact>
</mgrwt>
</event>
<event>
12    1  0.1472088E-007  0.1234691E+04  0.7818608E-02  0.9083022E-01
         -1   -1    0    0    0  501 -0.00000000000E+00  0.00000000000E+00  0.47285689189E+03  0.47285689189E+03  0.00000000000E+00 0.  1.
          1   -1    0    0  501    0  0.00000000000E+00 -0.00000000000E+00 -0.80598498183E+03  0.80598498183E+03  0.00000000000E+00 0. -1.
         23    2    1    2    0    0 -0.19166766204E+03 -0.15588694662E+03  0.69877187871E+02  0.27397143433E+03  0.95604877742E+02 0.  0.
        254    2    1    2    0    0  0.19166766204E+03  0.15588694662E+03 -0.40300527781E+03  0.10048704394E+04  0.88674354422E+03 0.  0.
        -24    2    4    4    0    0 -0.15914997443E+03  0.29870898363E+03  0.10671129708E+03  0.36390570868E+03  0.80525105540E+02 0.  0.
         24    2    4    4    0    0  0.35081763647E+03 -0.14282203701E+03 -0.50971657489E+03  0.64096473070E+03  0.86911742477E+02 0.  0.
         13    1    3    3    0    0 -0.55646642108E+02 -0.10343289650E+03  0.15937699808E+02  0.11852815333E+03  0.00000000000E+00 0. -1.
        -13    1    3    3    0    0 -0.13602101993E+03 -0.52454050119E+02  0.53939488063E+02  0.15544328100E+03  0.00000000000E+00 0.  1.
          2    1    6    6  502    0  0.57603259616E+01  0.68563993320E+01 -0.21185443906E+01  0.92021626435E+01  0.00000000000E+00 0. -1.
          1    1    5    5  503    0 -0.46923818546E+00 -0.47453561165E+00 -0.67210704694E+01  0.67541214659E+01  0.00000000000E+00 0. -1.
         -2    1    5    5    0  503 -0.15868073625E+03  0.29918351924E+03  0.11343236755E+03  0.35715158721E+03  0.00000000000E+00 0.  1.
         -1    1    6    6    0  502  0.34505731051E+03 -0.14967843634E+03 -0.50759803050E+03  0.63176256806E+03  0.00000000000E+00 0.  1.
<mgrwt>
<rscale>  0 0.12346911E+04</rscale>
<asrwt>0</asrwt>
<pdfrwt beam="1">  1        1 0.12399769E+00 0.12346911E+04</pdfrwt>
<pdfrwt beam="2">  1       -1 0.72747215E-01 0.12346911E+04</pdfrwt>
<totfact> 0.41107527E+01</totfact>
</mgrwt>
</event>
<event>
12    1  0.1472088E-007  0.1789391E+04  0.7818608E-02  0.8711962E-01
          1   -1    0    0  501    0  0.00000000000E+00  0.00000000000E+00  0.48834656381E+03  0.48834656381E+03  0.00000000000E+00 0. -1.
         -1   -1    0    0    0  501 -0.00000000000E+00 -0.00000000000E+00 -0.16391632960E+04  0.16391632960E+04  0.00000000000E+00 0.  1.
         23    2    1    2    0    0  0.42065242473E+03  0.41303436134E+03 -0.87190977193E+03  0.10562606153E+04  0.88960614602E+02 0.  0.
        254    2    1    2    0    0 -0.42065242473E+03 -0.41303436134E+03 -0.27890696028E+03  0.10712492445E+04  0.84984704821E+03 0.  0.
        -24    2    4    4    0    0 -0.30770200260E+03  0.16953029223E+03 -0.30348367398E+03  0.47165213594E+03  0.83260762578E+02 0.  0.
         24    2    4    4    0    0 -0.11295042213E+03 -0.58256465357E+03  0.24576713695E+02  0.59959710860E+03  0.82300087078E+02 0.  0.
         13    1    3    3    0    0  0.17051687795E+03  0.21646833238E+03 -0.35664130082E+03  0.45069675175E+03  0.00000000000E+00 0. -1.
        -13    1    3    3    0    0  0.25013554678E+03  0.19656602896E+03 -0.51526847112E+03  0.60556386354E+03  0.00000000000E+00 0.  1.
          4    1    6    6  502    0 -0.10390964439E+03 -0.55607770449E+03  0.55053576217E+01  0.56572956135E+03  0.00000000000E+00 0. -1.
          1    1    5    5  503    0 -0.20854844419E+03  0.15029249179E+03 -0.24406203111E+03  0.35446658755E+03  0.00000000000E+00 0. -1.
         -2    1    5    5    0  503 -0.99153558409E+02  0.19237800439E+02 -0.59421642867E+02  0.11718554839E+03  0.00000000000E+00 0.  1.
         -3    1    6    6    0  502 -0.90407777443E+01 -0.26486949083E+02  0.19071356074E+02  0.33867547246E+02  0.00000000000E+00 0.  1.
<mgrwt>
<rscale>  0 0.17893907E+04</rscale>
<asrwt>0</asrwt>
<pdfrwt beam="1">  1        1 0.75130243E-01 0.17893907E+04</pdfrwt>
<pdfrwt beam="2">  1       -1 0.25217896E+00 0.17893907E+04</pdfrwt>
<totfact> 0.29182894E+00</totfact>
</mgrwt>
</event>
<event>
12    1  0.1472088E-007  0.1616805E+04  0.7818608E-02  0.8810290E-01
          2   -1    0    0  501    0  0.00000000000E+00  0.00000000000E+00  0.26487401384E+03  0.26487401384E+03  0.00000000000E+00 0. -1.
         -2   -1    0    0    0  501 -0.00000000000E+00 -0.00000000000E+00 -0.24672664615E+04  0.24672664615E+04  0.00000000000E+00 0.  1.
         23    2    1    2    0    0 -0.16328506344E+03 -0.50109507869E+03 -0.94070933602E+03  0.10821920272E+04  0.91908862246E+02 0.  0.
        254    2    1    2    0    0  0.16328506344E+03  0.50109507869E+03 -0.12616831116E+04  0.16499484481E+04  0.92343235679E+03 0.  0.
        -24    2    4    4    0    0 -0.11118366263E+03  0.81302526918E+02  0.10531984688E+03  0.19177848515E+03  0.81943941203E+02 0.  0.
         24    2    4    4    0    0  0.27446872607E+03  0.41979255177E+03 -0.13670029585E+04  0.14581699630E+04  0.77483445617E+02 0.  0.
         13    1    3    3    0    0 -0.28425080915E+01  0.12417404187E+01 -0.27396261438E+02  0.27571305959E+02  0.00000000000E+00 0.  1.
        -13    1    3    3    0    0 -0.16044255535E+03 -0.50233681911E+03 -0.91331307458E+03  0.10546207212E+04  0.00000000000E+00 0. -1.
          4    1    6    6  502    0  0.26888449500E+03  0.41608869845E+03 -0.13060862857E+04  0.13968858444E+04  0.00000000000E+00 0. -1.
          1    1    5    5  503    0 -0.80149334341E+02  0.56071363532E+02  0.11465112591E+03  0.15070764505E+03  0.00000000000E+00 0. -1.
         -2    1    5    5    0  503 -0.31034328287E+02  0.25231163386E+02 -0.93312790304E+01  0.41070840099E+02  0.00000000000E+00 0.  1.
         -3    1    6    6    0  502  0.55842310708E+01  0.37038533191E+01 -0.60916672828E+02  0.61284118616E+02  0.00000000000E+00 0.  1.
<mgrwt>
<rscale>  0 0.16168052E+04</rscale>
<asrwt>0</asrwt>
<pdfrwt beam="1">  1        2 0.40749848E-01 0.16168052E+04</pdfrwt>
<pdfrwt beam="2">  1       -2 0.37957946E+00 0.16168052E+04</pdfrwt>
<totfact> 0.12256619E+00</totfact>
</mgrwt>
</event>
<event>
12    1  0.1472088E-007  0.1947078E+04  0.7818608E-02  0.8631771E-01
         -2   -1    0    0    0  501 -0.00000000000E+00  0.00000000000E+00  0.59481801303E+03  0.59481801303E+03  0.00000000000E+00 0.  1.
          2   -1    0    0  501    0  0.00000000000E+00 -0.00000000000E+00 -0.15933918420E+04  0.15933918420E+04  0.00000000000E+00 0. -1.
         23    2    1    2    0    0  0.54787352624E+03 -0.50186351103E+03 -0.53952237812E+03  0.92280844584E+03  0.91970901800E+02 0.  0.
        254    2    1    2    0    0 -0.54787352624E+03  0.50186351103E+03 -0.45905145084E+03  0.12654014092E+04  0.91568559418E+03 0.  0.
        -24    2    4    4    0    0  0.82288464130E+02  0.81175653396E-01 -0.44061569145E+03  0.45561261750E+03  0.81665609411E+02 0.  0.
         24    2    4    4    0    0 -0.63016199037E+03  0.50178233537E+03 -0.18435759397E+02  0.80978879168E+03  0.80798290256E+02 0.  0.
         11    1    3    3    0    0  0.31199357277E+03 -0.34586927477E+03 -0.32966785609E+03  0.57065439630E+03  0.00000000000E+00 0. -1.
        -11    1    3    3    0    0  0.23587995347E+03 -0.15599423626E+03 -0.20985452203E+03  0.35215404955E+03  0.00000000000E+00 0.  1.
          4    1    6    6  502    0 -0.60387450115E+03  0.45845588519E+03 -0.89956030369E+01  0.75823949560E+03  0.00000000000E+00 0. -1.
          3    1    5    5  503    0  0.43001239037E+02  0.21161729148E+02 -0.36261453291E+03  0.36576799315E+03  0.00000000000E+00 0. -1.
         -4    1    5    5    0  503  0.39287225093E+02 -0.21080553495E+02 -0.78001158539E+02  0.89844624350E+02  0.00000000000E+00 0.  1.
         -3    1    6    6    0  502 -0.26287489219E+02  0.43326450182E+02 -0.94401563605E+01  0.51549296086E+02  0.00000000000E+00 0.  1.
<mgrwt>
<rscale>  0 0.19470780E+04</rscale>
<asrwt>0</asrwt>
<pdfrwt beam="1">  1        2 0.24513721E+00 0.19470780E+04</pdfrwt>
<pdfrwt beam="2">  1       -2 0.91510464E-01 0.19470780E+04</pdfrwt>
<totfact> 0.10671653E+01</totfact>
</mgrwt>
</event>
<event>
12    1  0.1472088E-007  0.1419324E+04  0.7818608E-02  0.8939949E-01
          2   -1    0    0  501    0  0.00000000000E+00  0.00000000000E+00  0.58822216131E+04  0.58822216131E+04  0.00000000000E+00 0. -1.
         -2   -1    0    0    0  501 -0.00000000000E+00 -0.00000000000E+00 -0.85617310225E+02  0.85617310225E+02  0.00000000000E+00 0.  1.
         23    2    1    2    0    0 -0.22098099616E+03 -0.99721907947E+02  0.31265130571E+04  0.31371935435E+04  0.90124211701E+02 0.  0.
        254    2    1    2    0    0  0.22098099616E+03  0.99721907947E+02  0.26700912458E+04  0.28306453799E+04  0.90795866978E+03 0.  0.
        -24    2    4    4    0    0  0.44988002569E+03  0.21249649765E+03  0.23862245380E+04  0.24388716650E+04  0.80502506836E+02 0.  0.
         24    2    4    4    0    0 -0.22889902952E+03 -0.11277458970E+03  0.28386670780E+03  0.39177371485E+03  0.88280587049E+02 0.  0.
         11    1    3    3    0    0 -0.22358436553E+03 -0.80212046776E+02  0.29614420294E+04  0.29709531862E+04  0.00000000000E+00 0. -1.
        -11    1    3    3    0    0  0.26033693696E+01 -0.19509861171E+02  0.16507102769E+03  0.16624035730E+03  0.00000000000E+00 0.  1.
          4    1    6    6  502    0  0.49306620140E+01 -0.13036549013E+02  0.60267364225E+01  0.15185012017E+02  0.00000000000E+00 0. -1.
          1    1    5    5  503    0  0.52413895337E+02  0.56108774013E+02  0.38174401666E+03  0.38938914366E+03  0.00000000000E+00 0. -1.
         -2    1    5    5    0  503  0.39746613035E+03  0.15638772364E+03  0.20044805214E+04  0.20494825214E+04  0.00000000000E+00 0.  1.
         -3    1    6    6    0  502 -0.23382969154E+03 -0.99738040688E+02  0.27783997138E+03  0.37658870283E+03  0.00000000000E+00 0.  1.
<mgrwt>
<rscale>  0 0.14193238E+04</rscale>
<asrwt>0</asrwt>
<pdfrwt beam="1">  1        2 0.90495686E+00 0.14193238E+04</pdfrwt>
<pdfrwt beam="2">  1       -2 0.13171898E-01 0.14193238E+04</pdfrwt>
<totfact> 0.37826825E-02</totfact>
</mgrwt>
</event>
<event>
12    1  0.1472088E-007  0.1804175E+04  0.7818608E-02  0.8704082E-01
          2   -1    0    0  501    0  0.00000000000E+00  0.00000000000E+00  0.61098870618E+03  0.61098870618E+03  0.00000000000E+00 0. -1.
         -2   -1    0    0    0  501 -0.00000000000E+00 -0.00000000000E+00 -0.13318772294E+04  0.13318772294E+04  0.00000000000E+00 0.  1.
         23    2    1    2    0    0 -0.31441905526E+03 -0.11026234236E+03 -0.90113874309E+03  0.96516559174E+03  0.92067685584E+02 0.  0.
        254    2    1    2    0    0  0.31441905526E+03  0.11026234236E+03  0.18025021983E+03  0.97770034387E+03  0.90132718488E+03 0.  0.
        -24    2    4    4    0    0  0.42986580345E+03  0.30356397434E+03  0.38988822515E+03  0.65987116769E+03  0.80507355890E+02 0.  0.
         24    2    4    4    0    0 -0.11544674819E+03 -0.19330163198E+03 -0.20963800531E+03  0.31782917618E+03  0.79836203346E+02 0.  0.
         13    1    3    3    0    0 -0.24794756383E+03 -0.56496770737E+02 -0.74421300195E+03  0.78646225070E+03  0.00000000000E+00 0.  1.
        -13    1    3    3    0    0 -0.66471491425E+02 -0.53765571626E+02 -0.15692574115E+03  0.17870334104E+03  0.00000000000E+00 0. -1.
          2    1    6    6  502    0 -0.46218235788E+02 -0.30273539311E+02 -0.21092068522E+02  0.59139562531E+02  0.00000000000E+00 0. -1.
          3    1    5    5  503    0  0.13101550953E+03  0.13968725323E+03  0.14317934542E+03  0.23911904443E+03  0.00000000000E+00 0. -1.
         -4    1    5    5    0  503  0.29885029391E+03  0.16387672111E+03  0.24670887972E+03  0.42075212326E+03  0.00000000000E+00 0.  1.
         -1    1    6    6    0  502 -0.69228512400E+02 -0.16302809267E+03 -0.18854593679E+03  0.25868961364E+03  0.00000000000E+00 0.  1.
<mgrwt>
<rscale>  0 0.18041751E+04</rscale>
<asrwt>0</asrwt>
<pdfrwt beam="1">  1        2 0.93998263E-01 0.18041751E+04</pdfrwt>
<pdfrwt beam="2">  1       -2 0.20490419E+00 0.18041751E+04</pdfrwt>
<totfact> 0.56517343E+00</totfact>
</mgrwt>
</event>
<event>
12    1  0.1472088E-007  0.1509612E+04  0.7818608E-02  0.8878086E-01
          1   -1    0    0  501    0  0.00000000000E+00  0.00000000000E+00  0.48086706983E+03  0.48086706983E+03  0.00000000000E+00 0. -1.
         -1   -1    0    0    0  501 -0.00000000000E+00 -0.00000000000E+00 -0.11848009180E+04  0.11848009180E+04  0.00000000000E+00 0.  1.
         23    2    1    2    0    0 -0.12070377898E+02 -0.55194222808E+02 -0.72714670855E+03  0.73754624603E+03  0.10972708423E+03 0.  0.
        254    2    1    2    0    0  0.12070377898E+02  0.55194222808E+02  0.23212860357E+02  0.92812174184E+03  0.92610962339E+03 0.  0.
        -24    2    4    4    0    0 -0.93464288981E+02 -0.41290894073E+03  0.79779103088E+02  0.43820583982E+03  0.80189064783E+02 0.  0.
         24    2    4    4    0    0  0.10553466688E+03  0.46810316354E+03 -0.56566242731E+02  0.48991590202E+03  0.80992058893E+02 0.  0.
         11    1    3    3    0    0 -0.23282734126E+02 -0.73504623914E+02 -0.69254848252E+03  0.69682739332E+03  0.00000000000E+00 0.  1.
        -11    1    3    3    0    0  0.11212356228E+02  0.18310401105E+02 -0.34598226033E+02  0.40718852704E+02  0.00000000000E+00 0. -1.
          2    1    6    6  502    0  0.15259470257E+02  0.53097800464E+02  0.19223653918E+02  0.58495954703E+02  0.00000000000E+00 0. -1.
          3    1    5    5  503    0  0.86445797857E+01 -0.49045982381E+02  0.26909369228E+02  0.56606989848E+02  0.00000000000E+00 0. -1.
         -4    1    5    5    0  503 -0.10210886877E+03 -0.36386295835E+03  0.52869733860E+02  0.38159884997E+03  0.00000000000E+00 0.  1.
         -1    1    6    6    0  502  0.90275196622E+02  0.41500536308E+03 -0.75789896649E+02  0.43141994731E+03  0.00000000000E+00 0.  1.
<mgrwt>
<rscale>  0 0.15096115E+04</rscale>
<asrwt>0</asrwt>
<pdfrwt beam="1">  1        1 0.73979549E-01 0.15096115E+04</pdfrwt>
<pdfrwt beam="2">  1       -1 0.18227706E+00 0.15096115E+04</pdfrwt>
<totfact> 0.90599120E+00</totfact>
</mgrwt>
</event>
<event>
12    1  0.2190602E-007  0.1635400E+04  0.7818608E-02  0.8799091E-01
         -1   -1    0    0    0  501 -0.00000000000E+00  0.00000000000E+00  0.56981100645E+03  0.56981100645E+03  0.00000000000E+00 0.  1.
          1   -1    0    0  501    0  0.00000000000E+00 -0.00000000000E+00 -0.11734294352E+04  0.11734294352E+04  0.00000000000E+00 0. -1.
         23    2    1    2    0    0 -0.56377283846E+03  0.73936470883E+02 -0.26532939181E+03  0.63375580073E+03  0.89108437810E+02 0.  0.
        254    2    1    2    0    0  0.56377283846E+03 -0.73936470883E+02 -0.33828903697E+03  0.11094846409E+04  0.89062353487E+03 0.  0.
        -24    2    4    4    0    0  0.76661435358E+03  0.99636507296E+02 -0.24442111446E+03  0.81473496902E+03  0.80164754428E+02 0.  0.
         24    2    4    4    0    0 -0.20284151512E+03 -0.17357297818E+03 -0.93867922502E+02  0.29474967193E+03  0.82425258378E+02 0.  0.
         13    1    3    3    0    0 -0.49435689568E+03  0.53905666120E+02 -0.19883310352E+03  0.53556434179E+03  0.00000000000E+00 0. -1.
        -13    1    3    3    0    0 -0.69415942785E+02  0.20030804763E+02 -0.66496288295E+02  0.98191458942E+02  0.00000000000E+00 0.  1.
          4    1    6    6  502    0 -0.20142170528E+03 -0.13886371569E+03 -0.81200848873E+02  0.25777395669E+03  0.00000000000E+00 0. -1.
          3    1    5    5  503    0  0.68980862691E+03  0.64877260600E+02 -0.21502943006E+03  0.72545341442E+03  0.00000000000E+00 0. -1.
         -4    1    5    5    0  503  0.76805726668E+02  0.34759246696E+02 -0.29391684401E+02  0.89281554600E+02  0.00000000000E+00 0.  1.
         -3    1    6    6    0  502 -0.14198098353E+01 -0.34709262492E+02 -0.12667073630E+02  0.36975715234E+02  0.00000000000E+00 0.  1.
<mgrwt>
<rscale>  0 0.16353997E+04</rscale>
<asrwt>0</asrwt>
<pdfrwt beam="1">  1        1 0.18052760E+00 0.16353997E+04</pdfrwt>
<pdfrwt beam="2">  1       -1 0.87663233E-01 0.16353997E+04</pdfrwt>
<totfact> 0.13688985E+01</totfact>
</mgrwt>
</event>
<event>
12    1  0.1472088E-007  0.2261309E+04  0.7818608E-02  0.8493335E-01
          2   -1    0    0  501    0  0.00000000000E+00  0.00000000000E+00  0.34180065722E+04  0.34180065722E+04  0.00000000000E+00 0. -1.
         -2   -1    0    0    0  501 -0.00000000000E+00 -0.00000000000E+00 -0.37401309953E+03  0.37401309953E+03  0.00000000000E+00 0.  1.
         23    2    1    2    0    0  0.73447200560E+03 -0.22940171762E+02  0.27165032361E+03  0.78865068720E+03  0.90557327753E+02 0.  0.
        254    2    1    2    0    0 -0.73447200560E+03  0.22940171762E+02  0.27723431490E+04  0.30033689845E+04  0.89127063377E+03 0.  0.
        -24    2    4    4    0    0  0.14087500978E+02 -0.17089610909E+03  0.87059121886E+02  0.20791100748E+03  0.79017457202E+02 0.  0.
         24    2    4    4    0    0 -0.74855950658E+03  0.19383628085E+03  0.26852840271E+04  0.27954579770E+04  0.76949049440E+02 0.  0.
         11    1    3    3    0    0  0.22359540613E+03 -0.29157459818E+02  0.46040763693E+02  0.23014085910E+03  0.00000000000E+00 0. -1.
        -11    1    3    3    0    0  0.51087659947E+03  0.62172880562E+01  0.22560955992E+03  0.55850982810E+03  0.00000000000E+00 0.  1.
          4    1    6    6  502    0 -0.14140166292E+03  0.63102876981E+01  0.47504125072E+03  0.49567977556E+03  0.00000000000E+00 0. -1.
          3    1    5    5  503    0  0.17526983344E+02 -0.34536520330E+02  0.55881119050E+02  0.67990189351E+02  0.00000000000E+00 0. -1.
         -4    1    5    5    0  503 -0.34394823659E+01 -0.13635958876E+03  0.31178002836E+02  0.13992081813E+03  0.00000000000E+00 0.  1.
         -3    1    6    6    0  502 -0.60715784366E+03  0.18752599315E+03  0.22102427764E+04  0.22997782015E+04  0.00000000000E+00 0.  1.
<mgrwt>
<rscale>  0 0.22613087E+04</rscale>
<asrwt>0</asrwt>
<pdfrwt beam="1">  1        2 0.52584714E+00 0.22613087E+04</pdfrwt>
<pdfrwt beam="2">  1       -2 0.57540479E-01 0.22613087E+04</pdfrwt>
<totfact> 0.23903642E+00</totfact>
</mgrwt>
</event>
<event>
12    1  0.1472088E-007  0.1484950E+04  0.7818608E-02  0.8894523E-01
          1   -1    0    0  501    0  0.00000000000E+00  0.00000000000E+00  0.15813697776E+04  0.15813697776E+04  0.00000000000E+00 0. -1.
         -1   -1    0    0    0  501 -0.00000000000E+00 -0.00000000000E+00 -0.34860244565E+03  0.34860244565E+03  0.00000000000E+00 0.  1.
         23    2    1    2    0    0  0.19138720790E+03 -0.42790234370E+03  0.46273543666E+03  0.66657897741E+03  0.10234241399E+03 0.  0.
        254    2    1    2    0    0 -0.19138720790E+03  0.42790234370E+03  0.77003189532E+03  0.12633932459E+04  0.88514625616E+03 0.  0.
        -24    2    4    4    0    0  0.23882826700E+03  0.47781942026E+03  0.29510943869E+03  0.61567081602E+03  0.81305801798E+02 0.  0.
         24    2    4    4    0    0 -0.43021547490E+03 -0.49917076557E+02  0.47492245663E+03  0.64772242984E+03  0.80099543914E+02 0.  0.
         11    1    3    3    0    0  0.15878858753E+03 -0.41390968668E+03  0.41631728915E+03  0.60815715856E+03  0.00000000000E+00 0. -1.
        -11    1    3    3    0    0  0.32598620371E+02 -0.13992657016E+02  0.46418147508E+02  0.58421818857E+02  0.00000000000E+00 0.  1.
          4    1    6    6  502    0 -0.14567530710E+03 -0.11611394185E+02  0.10744275633E+03  0.18138375192E+03  0.00000000000E+00 0. -1.
          1    1    5    5  503    0  0.31031413082E+02  0.49925233092E+02  0.61588012652E+01  0.59105061798E+02  0.00000000000E+00 0. -1.
         -2    1    5    5    0  503  0.20779685392E+03  0.42789418716E+03  0.28895063743E+03  0.55656575422E+03  0.00000000000E+00 0.  1.
         -3    1    6    6    0  502 -0.28454016780E+03 -0.38305682372E+02  0.36747970030E+03  0.46633867792E+03  0.00000000000E+00 0.  1.
<mgrwt>
<rscale>  0 0.14849503E+04</rscale>
<asrwt>0</asrwt>
<pdfrwt beam="1">  1        1 0.24328765E+00 0.14849503E+04</pdfrwt>
<pdfrwt beam="2">  1       -1 0.53631146E-01 0.14849503E+04</pdfrwt>
<totfact> 0.19528200E+01</totfact>
</mgrwt>
</event>
<event>
12    1  0.1472088E-007  0.1697287E+04  0.7818608E-02  0.8762913E-01
          2   -1    0    0  501    0  0.00000000000E+00  0.00000000000E+00  0.17570226650E+04  0.17570226650E+04  0.00000000000E+00 0. -1.
         -2   -1    0    0    0  501 -0.00000000000E+00 -0.00000000000E+00 -0.40989555110E+03  0.40989555110E+03  0.00000000000E+00 0.  1.
         23    2    1    2    0    0  0.13348852509E+03 -0.41436973164E+03  0.10361276723E+04  0.11274445979E+04  0.89717932128E+02 0.  0.
        254    2    1    2    0    0 -0.13348852509E+03  0.41436973164E+03  0.31099944165E+03  0.10394736182E+04  0.89121450243E+03 0.  0.
        -24    2    4    4    0    0  0.53556985291E+02  0.62028749425E+03  0.39191017291E+03  0.73995177268E+03  0.79436239026E+02 0.  0.
         24    2    4    4    0    0 -0.18704551038E+03 -0.20591776260E+03 -0.80910731259E+02  0.29952184550E+03  0.76017376881E+02 0.  0.
         11    1    3    3    0    0  0.96947610087E+02 -0.26547966220E+03  0.77118447767E+03  0.82134267437E+03  0.00000000000E+00 0. -1.
        -11    1    3    3    0    0  0.36540915000E+02 -0.14889006944E+03  0.26494319461E+03  0.30610192358E+03  0.00000000000E+00 0.  1.
          2    1    6    6  502    0 -0.13642461153E+02  0.55202055835E+01 -0.67711012818E+01  0.16199914462E+02  0.00000000000E+00 0. -1.
          1    1    5    5  503    0  0.10935876111E+02  0.20437949031E+03  0.17316641280E+03  0.26809919054E+03  0.00000000000E+00 0. -1.
         -2    1    5    5    0  503  0.42621109180E+02  0.41590800394E+03  0.21874376011E+03  0.47185258214E+03  0.00000000000E+00 0.  1.
         -1    1    6    6    0  502 -0.17340304923E+03 -0.21143796819E+03 -0.74139629978E+02  0.28332193103E+03  0.00000000000E+00 0.  1.
<mgrwt>
<rscale>  0 0.16972870E+04</rscale>
<asrwt>0</asrwt>
<pdfrwt beam="1">  1        2 0.27031118E+00 0.16972870E+04</pdfrwt>
<pdfrwt beam="2">  1       -2 0.63060855E-01 0.16972870E+04</pdfrwt>
<totfact> 0.20211869E+01</totfact>
</mgrwt>
</event>
<event>
12    1  0.1472088E-007  0.2209889E+04  0.7818608E-02  0.8514323E-01
         -2   -1    0    0    0  501 -0.00000000000E+00  0.00000000000E+00  0.40453137928E+03  0.40453137928E+03  0.00000000000E+00 0.  1.
          2   -1    0    0  501    0  0.00000000000E+00 -0.00000000000E+00 -0.30180649353E+04  0.30180649353E+04  0.00000000000E+00 0. -1.
         23    2    1    2    0    0 -0.47582884728E+03 -0.44120507750E+03 -0.83175303249E+02  0.66066098170E+03  0.92085771683E+02 0.  0.
        254    2    1    2    0    0  0.47582884728E+03  0.44120507750E+03 -0.25303582528E+04  0.27619353329E+04  0.89693861740E+03 0.  0.
        -24    2    4    4    0    0  0.62213837692E+03  0.39461897177E+03 -0.24693728924E+04  0.25781759402E+04  0.80052509513E+02 0.  0.
         24    2    4    4    0    0 -0.14630952963E+03  0.46586105730E+02 -0.60985360395E+02  0.18375939266E+03  0.80445984980E+02 0.  0.
         13    1    3    3    0    0 -0.42882344633E+03 -0.41866163765E+03 -0.56121569277E+02  0.60192752512E+03  0.00000000000E+00 0.  1.
        -13    1    3    3    0    0 -0.47005400956E+02 -0.22543439846E+02 -0.27053733972E+02  0.58733456573E+02  0.00000000000E+00 0. -1.
          2    1    6    6  502    0 -0.87363917963E+02  0.67829899154E+02 -0.41656800452E+02  0.11818899443E+03  0.00000000000E+00 0. -1.
          3    1    5    5  503    0  0.47479959117E+03  0.33464026711E+03 -0.18782323660E+04  0.19660049798E+04  0.00000000000E+00 0. -1.
         -4    1    5    5    0  503  0.14733878575E+03  0.59978704658E+02 -0.59114052642E+03  0.61217096042E+03  0.00000000000E+00 0.  1.
         -1    1    6    6    0  502 -0.58945611669E+02 -0.21243793423E+02 -0.19328559943E+02  0.65570398226E+02  0.00000000000E+00 0.  1.
<mgrwt>
<rscale>  0 0.22098887E+04</rscale>
<asrwt>0</asrwt>
<pdfrwt beam="1">  1        2 0.46431769E+00 0.22098887E+04</pdfrwt>
<pdfrwt beam="2">  1       -2 0.62235596E-01 0.22098887E+04</pdfrwt>
<totfact> 0.37167542E+00</totfact>
</mgrwt>
</event>
<event>
12    1  0.1472088E-007  0.1173036E+04  0.7818608E-02  0.9136791E-01
          3   -1    0    0  501    0  0.00000000000E+00  0.00000000000E+00  0.53841414948E+03  0.53841414948E+03  0.00000000000E+00 0. -1.
         -3   -1    0    0    0  501 -0.00000000000E+00 -0.00000000000E+00 -0.63891951710E+03  0.63891951710E+03  0.00000000000E+00 0.  1.
         23    2    1    2    0    0 -0.93892135545E+02  0.37672886596E+02  0.18641567339E+03  0.23142214220E+03  0.92576590520E+02 0.  0.
        254    2    1    2    0    0  0.93892135545E+02 -0.37672886596E+02 -0.28692104102E+03  0.94591152438E+03  0.89565057287E+03 0.  0.
        -24    2    4    4    0    0  0.32789258204E+03  0.13299858144E+03 -0.47035896979E+03  0.59398475365E+03  0.79863377636E+02 0.  0.
         24    2    4    4    0    0 -0.23400044650E+03 -0.17067146804E+03  0.18343792877E+03  0.35192677073E+03  0.79485969084E+02 0.  0.
         13    1    3    3    0    0  0.17797331849E+02  0.13108606448E+00  0.37656824933E+02  0.41650914379E+02  0.00000000000E+00 0.  1.
        -13    1    3    3    0    0 -0.11168946739E+03  0.37541800531E+02  0.14875884846E+03  0.18977122782E+03  0.00000000000E+00 0. -1.
          2    1    6    6  502    0 -0.16848157773E+03 -0.11456060612E+03  0.16847890451E+03  0.26437722249E+03  0.00000000000E+00 0. -1.
          3    1    5    5  503    0  0.17957841250E+03  0.84095085029E+02 -0.32452571124E+03  0.38031214392E+03  0.00000000000E+00 0. -1.
         -4    1    5    5    0  503  0.14831416955E+03  0.48903496413E+02 -0.14583325855E+03  0.21367260973E+03  0.00000000000E+00 0.  1.
         -1    1    6    6    0  502 -0.65518868772E+02 -0.56110861914E+02  0.14959024266E+02  0.87549548239E+02  0.00000000000E+00 0.  1.
<mgrwt>
<rscale>  0 0.11730359E+04</rscale>
<asrwt>0</asrwt>
<pdfrwt beam="1">  1        3 0.82832946E-01 0.11730359E+04</pdfrwt>
<pdfrwt beam="2">  1       -3 0.98295310E-01 0.11730359E+04</pdfrwt>
<totfact> 0.31726570E+00</totfact>
</mgrwt>
</event>
<event>
12    1  0.1472088E-007  0.1252503E+04  0.7818608E-02  0.9068103E-01
          4   -1    0    0  501    0  0.00000000000E+00  0.00000000000E+00  0.25162194683E+03  0.25162194683E+03  0.00000000000E+00 0. -1.
         -4   -1    0    0    0  501 -0.00000000000E+00 -0.00000000000E+00 -0.15586511835E+04  0.15586511835E+04  0.00000000000E+00 0.  1.
         23    2    1    2    0    0 -0.65497136769E+02  0.31819411522E+03 -0.42715821817E+03  0.54447066958E+03  0.91906456763E+02 0.  0.
        254    2    1    2    0    0  0.65497136769E+02 -0.31819411522E+03 -0.87987101846E+03  0.12658024607E+04  0.85002675872E+03 0.  0.
        -24    2    4    4    0    0 -0.34882617561E+03 -0.32637936529E+03 -0.52590486137E+03  0.71499479477E+03  0.80239905607E+02 0.  0.
         24    2    4    4    0    0  0.41432331238E+03  0.81852500664E+01 -0.35396615708E+03  0.55080766594E+03  0.79788714772E+02 0.  0.
         11    1    3    3    0    0  0.99505437329E+01  0.12301379697E+03 -0.11517512783E+03  0.16880970836E+03  0.00000000000E+00 0. -1.
        -11    1    3    3    0    0 -0.75447680501E+02  0.19518031825E+03 -0.31198309035E+03  0.37566096123E+03  0.00000000000E+00 0.  1.
          2    1    6    6  502    0  0.27286542077E+03 -0.16418726984E+02 -0.19023574536E+03  0.33303866331E+03  0.00000000000E+00 0. -1.
          1    1    5    5  503    0 -0.27250036242E+03 -0.28454926689E+03 -0.46101036753E+03  0.60642830721E+03  0.00000000000E+00 0. -1.
         -2    1    5    5    0  503 -0.76325813186E+02 -0.41830098395E+02 -0.64894493844E+02  0.10856648756E+03  0.00000000000E+00 0.  1.
         -3    1    6    6    0  502  0.14145789161E+03  0.24603977050E+02 -0.16373041172E+03  0.21776900264E+03  0.00000000000E+00 0.  1.
<mgrwt>
<rscale>  0 0.12525028E+04</rscale>
<asrwt>0</asrwt>
<pdfrwt beam="1">  1        4 0.38711069E-01 0.12525028E+04</pdfrwt>
<pdfrwt beam="2">  1       -4 0.23979249E+00 0.12525028E+04</pdfrwt>
<totfact> 0.93921487E-01</totfact>
</mgrwt>
</event>
<event>
12    1  0.1472088E-007  0.2699053E+04  0.7818608E-02  0.8335312E-01
          1   -1    0    0  501    0  0.00000000000E+00  0.00000000000E+00  0.22135260140E+04  0.22135260140E+04  0.00000000000E+00 0. -1.
         -1   -1    0    0    0  501 -0.00000000000E+00 -0.00000000000E+00 -0.82276957879E+03  0.82276957879E+03  0.00000000000E+00 0.  1.
         23    2    1    2    0    0  0.47553133312E+03 -0.10997267669E+04  0.56078438138E+03  0.13260066606E+04  0.91024892036E+02 0.  0.
        254    2    1    2    0    0 -0.47553133312E+03  0.10997267669E+04  0.82997205381E+03  0.17102889322E+04  0.89482155250E+03 0.  0.
        -24    2    4    4    0    0 -0.27785437455E+03  0.94119963891E+03  0.99363686861E+03  0.13984260415E+04  0.72258931929E+02 0.  0.
         24    2    4    4    0    0 -0.19767695858E+03  0.15852712797E+03 -0.16366481481E+03  0.31186289063E+03  0.79153399759E+02 0.  0.
         13    1    3    3    0    0  0.44933192446E+02 -0.15337844334E+03  0.49013724299E+02  0.16717142051E+03  0.00000000000E+00 0.  1.
        -13    1    3    3    0    0  0.43059814068E+03 -0.94634832354E+03  0.51177065708E+03  0.11588352401E+04  0.00000000000E+00 0. -1.
          2    1    6    6  502    0 -0.94822884522E+02  0.11937314479E+03 -0.71830776145E+02  0.16852592539E+03  0.00000000000E+00 0. -1.
          1    1    5    5  503    0 -0.13846312102E+02  0.37971961984E+02  0.22937718817E+02  0.46472886722E+02  0.00000000000E+00 0. -1.
         -2    1    5    5    0  503 -0.26400806244E+03  0.90322767693E+03  0.97069914979E+03  0.13519531548E+04  0.00000000000E+00 0.  1.
         -1    1    6    6    0  502 -0.10285407405E+03  0.39153983179E+02 -0.91834038660E+02  0.14333696524E+03  0.00000000000E+00 0.  1.
<mgrwt>
<rscale>  0 0.26990531E+04</rscale>
<asrwt>0</asrwt>
<pdfrwt beam="1">  1        1 0.34054246E+00 0.26990531E+04</pdfrwt>
<pdfrwt beam="2">  1       -1 0.12657994E+00 0.26990531E+04</pdfrwt>
<totfact> 0.10097496E+00</totfact>
</mgrwt>
</event>
<event>
12    1  0.1472088E-007  0.3249581E+04  0.7818608E-02  0.8175844E-01
         -2   -1    0    0    0  501 -0.00000000000E+00  0.00000000000E+00  0.13976331476E+04  0.13976331476E+04  0.00000000000E+00 0.  1.
          2   -1    0    0  501    0  0.00000000000E+00 -0.00000000000E+00 -0.18888673801E+04  0.18888673801E+04  0.00000000000E+00 0. -1.
         23    2    1    2    0    0  0.76967871849E+03  0.13307141215E+04 -0.27053089702E+03  0.15635067355E+04  0.90337937315E+02 0.  0.
        254    2    1    2    0    0 -0.76967871849E+03 -0.13307141215E+04 -0.22070333546E+03  0.17229937921E+04  0.74618512614E+03 0.  0.
        -24    2    4    4    0    0 -0.26182173099E+03 -0.10472264689E+04  0.32616061628E+02  0.10832883505E+04  0.84946729684E+02 0.  0.
         24    2    4    4    0    0 -0.50785698750E+03 -0.28348765262E+03 -0.25331939708E+03  0.63970544161E+03  0.82270080495E+02 0.  0.
         13    1    3    3    0    0  0.71182118476E+03  0.12670689363E+04 -0.24539880055E+03  0.14738974387E+04  0.00000000000E+00 0.  1.
        -13    1    3    3    0    0  0.57857533734E+02  0.63645185189E+02 -0.25132096466E+02  0.89609296841E+02  0.00000000000E+00 0. -1.
          4    1    6    6  502    0 -0.24347857771E+03 -0.92171518251E+02 -0.12829313442E+03  0.29023530957E+03  0.00000000000E+00 0. -1.
          3    1    5    5  503    0 -0.17053885098E+03 -0.51506013215E+03  0.29087862423E+02  0.54333833214E+03  0.00000000000E+00 0. -1.
         -4    1    5    5    0  503 -0.91282880005E+02 -0.53216633673E+03  0.35281992049E+01  0.53995001836E+03  0.00000000000E+00 0.  1.
         -3    1    6    6    0  502 -0.26437840979E+03 -0.19131613437E+03 -0.12502626266E+03  0.34947013204E+03  0.00000000000E+00 0.  1.
<mgrwt>
<rscale>  0 0.32495807E+04</rscale>
<asrwt>0</asrwt>
<pdfrwt beam="1">  1        2 0.29059498E+00 0.32495807E+04</pdfrwt>
<pdfrwt beam="2">  1       -2 0.21502049E+00 0.32495807E+04</pdfrwt>
<totfact> 0.68681927E-01</totfact>
</mgrwt>
</event>
<event>
12    1  0.1472088E-007  0.1390123E+04  0.7818608E-02  0.8960999E-01
         -2   -1    0    0    0  501 -0.00000000000E+00  0.00000000000E+00  0.32680204312E+03  0.32680204312E+03  0.00000000000E+00 0.  1.
          2   -1    0    0  501    0  0.00000000000E+00 -0.00000000000E+00 -0.14782979377E+04  0.14782979377E+04  0.00000000000E+00 0. -1.
         23    2    1    2    0    0  0.15905454244E+02 -0.24131721593E+03  0.77003852751E+02  0.26972975486E+03  0.91310268540E+02 0.  0.
        254    2    1    2    0    0 -0.15905454244E+02  0.24131721593E+03 -0.12284997474E+04  0.15353702260E+04  0.88862991137E+03 0.  0.
        -24    2    4    4    0    0  0.39617449888E+03  0.27035617247E+03 -0.79050497503E+03  0.92811374213E+03  0.80313817245E+02 0.  0.
         24    2    4    4    0    0 -0.41207995312E+03 -0.29038956543E+02 -0.43799477233E+03  0.60725648385E+03  0.79169866878E+02 0.  0.
         11    1    3    3    0    0 -0.32267203901E+02 -0.61691227653E+02  0.33454000556E+01  0.69700586213E+02  0.00000000000E+00 0. -1.
        -11    1    3    3    0    0  0.48172658144E+02 -0.17962598827E+03  0.73658452695E+02  0.20002916865E+03  0.00000000000E+00 0.  1.
          4    1    6    6  502    0 -0.33948566536E+03  0.67107129512E+01 -0.34725028200E+03  0.48567304743E+03  0.00000000000E+00 0. -1.
          1    1    5    5  503    0  0.31341935809E+03  0.22595170519E+03 -0.68816007991E+03  0.78920856729E+03  0.00000000000E+00 0. -1.
         -2    1    5    5    0  503  0.82755140789E+02  0.44404467279E+02 -0.10234489511E+03  0.13890517484E+03  0.00000000000E+00 0.  1.
         -3    1    6    6    0  502 -0.72594287760E+02 -0.35749669494E+02 -0.90744490332E+02  0.12158343641E+03  0.00000000000E+00 0.  1.
<mgrwt>
<rscale>  0 0.13901234E+04</rscale>
<asrwt>0</asrwt>
<pdfrwt beam="1">  1        2 0.22743045E+00 0.13901234E+04</pdfrwt>
<pdfrwt beam="2">  1       -2 0.50277238E-01 0.13901234E+04</pdfrwt>
<totfact> 0.47577628E+01</totfact>
</mgrwt>
</event>
<event>
12    1  0.1472088E-007  0.2556541E+04  0.7818608E-02  0.8383115E-01
         -1   -1    0    0    0  501 -0.00000000000E+00  0.00000000000E+00  0.51013995280E+03  0.51013995280E+03  0.00000000000E+00 0.  1.
          1   -1    0    0  501    0  0.00000000000E+00 -0.00000000000E+00 -0.32029936827E+04  0.32029936827E+04  0.00000000000E+00 0. -1.
         23    2    1    2    0    0 -0.63944498242E+03  0.50776156938E+03 -0.23018448804E+04  0.24441031284E+04  0.91861589500E+02 0.  0.
        254    2    1    2    0    0  0.63944498242E+03 -0.50776156938E+03 -0.39100884947E+03  0.12690305071E+04  0.88929118449E+03 0.  0.
        -24    2    4    4    0    0  0.46295787280E+03 -0.56065629694E+03  0.99821965189E+02  0.73832889584E+03  0.80620459031E+02 0.  0.
         24    2    4    4    0    0  0.17648710962E+03  0.52894727555E+02 -0.49083081466E+03  0.53070161131E+03  0.82363581527E+02 0.  0.
         11    1    3    3    0    0 -0.55947107668E+03  0.42473105236E+03 -0.20532635162E+04  0.21700911085E+04  0.00000000000E+00 0. -1.
        -11    1    3    3    0    0 -0.79973905737E+02  0.83030517021E+02 -0.24858136427E+03  0.27401201984E+03  0.00000000000E+00 0.  1.
          4    1    6    6  502    0  0.12491347222E+03  0.64291040054E+02 -0.41620219342E+03  0.43927323977E+03  0.00000000000E+00 0. -1.
          1    1    5    5  503    0  0.31005708670E+03 -0.32874150184E+03  0.36102187654E+02  0.45333182107E+03  0.00000000000E+00 0. -1.
         -2    1    5    5    0  503  0.15290078609E+03 -0.23191479510E+03  0.63719777535E+02  0.28499707476E+03  0.00000000000E+00 0.  1.
         -3    1    6    6    0  502  0.51573637406E+02 -0.11396312500E+02 -0.74628621236E+02  0.91428371535E+02  0.00000000000E+00 0.  1.
<mgrwt>
<rscale>  0 0.25565407E+04</rscale>
<asrwt>0</asrwt>
<pdfrwt beam="1">  1        1 0.49276827E+00 0.25565407E+04</pdfrwt>
<pdfrwt beam="2">  1       -1 0.78483069E-01 0.25565407E+04</pdfrwt>
<totfact> 0.60746588E-01</totfact>
</mgrwt>
</event>
<event>
12    1  0.1472088E-007  0.1464155E+04  0.7818608E-02  0.8908646E-01
          2   -1    0    0  501    0  0.00000000000E+00  0.00000000000E+00  0.23754242536E+04  0.23754242536E+04  0.00000000000E+00 0. -1.
         -2   -1    0    0    0  501 -0.00000000000E+00 -0.00000000000E+00 -0.22561754578E+03  0.22561754578E+03  0.00000000000E+00 0.  1.
         23    2    1    2    0    0 -0.22245756662E+02  0.41344761248E+03  0.35784731927E+03  0.55497693592E+03  0.92254504187E+02 0.  0.
        254    2    1    2    0    0  0.22245756662E+02 -0.41344761248E+03  0.17919593886E+04  0.20460648635E+04  0.89656520863E+03 0.  0.
        -24    2    4    4    0    0  0.29090078781E+03  0.19761781197E+02  0.17622490351E+03  0.34976982190E+03  0.79182797086E+02 0.  0.
         24    2    4    4    0    0 -0.26865503115E+03 -0.43320939367E+03  0.16157344851E+04  0.16962950416E+04  0.83504714308E+02 0.  0.
         11    1    3    3    0    0 -0.39979077625E+02  0.16580955792E+03  0.18981064996E+03  0.25518467623E+03  0.00000000000E+00 0. -1.
        -11    1    3    3    0    0  0.17733320963E+02  0.24763805455E+03  0.16803666932E+03  0.29979225969E+03  0.00000000000E+00 0.  1.
          4    1    6    6  502    0 -0.25923594022E+03 -0.37651729869E+03  0.13839893208E+04  0.14575304419E+04  0.00000000000E+00 0. -1.
          3    1    5    5  503    0  0.12727289614E+03  0.42502748145E+02  0.55734819088E+02  0.14529708790E+03  0.00000000000E+00 0. -1.
         -4    1    5    5    0  503  0.16362789167E+03 -0.22740966949E+02  0.12049008442E+03  0.20447273401E+03  0.00000000000E+00 0.  1.
         -3    1    6    6    0  502 -0.94190909333E+01 -0.56692094985E+02  0.23174516429E+03  0.23876459972E+03  0.00000000000E+00 0.  1.
<mgrwt>
<rscale>  0 0.14641549E+04</rscale>
<asrwt>0</asrwt>
<pdfrwt beam="1">  1        2 0.36544987E+00 0.14641549E+04</pdfrwt>
<pdfrwt beam="2">  1       -2 0.34710393E-01 0.14641549E+04</pdfrwt>
<totfact> 0.31033823E+01</totfact>
</mgrwt>
</event>
<event>
12    1  0.1472088E-007  0.2460456E+04  0.7818608E-02  0.8417210E-01
          2   -1    0    0  501    0  0.00000000000E+00  0.00000000000E+00  0.19386697302E+04  0.19386697302E+04  0.00000000000E+00 0. -1.
         -2   -1    0    0    0  501 -0.00000000000E+00 -0.00000000000E+00 -0.78066971114E+03  0.78066971114E+03  0.00000000000E+00 0.  1.
         23    2    1    2    0    0 -0.30919231754E+03 -0.36329477900E+03  0.15451470125E+04  0.16196172241E+04  0.89987092035E+02 0.  0.
        254    2    1    2    0    0  0.30919231754E+03  0.36329477900E+03 -0.38714699351E+03  0.10997222171E+04  0.91209822641E+03 0.  0.
        -24    2    4    4    0    0 -0.28084382123E+03  0.31756635194E+03 -0.18533852411E+03  0.46950539096E+03  0.79770319124E+02 0.  0.
         24    2    4    4    0    0  0.59003613877E+03  0.45728427067E+02 -0.20180846940E+03  0.63021682619E+03  0.78821669556E+02 0.  0.
         13    1    3    3    0    0 -0.22525211763E+03 -0.27558247571E+03  0.12688040429E+04  0.13177814374E+04  0.00000000000E+00 0. -1.
        -13    1    3    3    0    0 -0.83940199906E+02 -0.87712303292E+02  0.27634296966E+03  0.30183578679E+03  0.00000000000E+00 0.  1.
          4    1    6    6  502    0  0.46687463884E+03  0.52312355153E+02 -0.12980043686E+03  0.48739785012E+03  0.00000000000E+00 0. -1.
          1    1    5    5  503    0 -0.19908533055E+02  0.48976008725E+02 -0.45584618479E+02  0.69806565314E+02  0.00000000000E+00 0. -1.
         -2    1    5    5    0  503 -0.26093528818E+03  0.26859034321E+03 -0.13975390563E+03  0.39969882565E+03  0.00000000000E+00 0.  1.
         -3    1    6    6    0  502  0.12316149993E+03 -0.65839280867E+01 -0.72008032544E+02  0.14281897607E+03  0.00000000000E+00 0.  1.
<mgrwt>
<rscale>  0 0.24604558E+04</rscale>
<asrwt>0</asrwt>
<pdfrwt beam="1">  1        2 0.29825688E+00 0.24604558E+04</pdfrwt>
<pdfrwt beam="2">  1       -2 0.12010303E+00 0.24604558E+04</pdfrwt>
<totfact> 0.34265707E+00</totfact>
</mgrwt>
</event>
<event>
12    1  0.1472088E-007  0.1654189E+04  0.7818608E-02  0.8787932E-01
          4   -1    0    0  501    0  0.00000000000E+00  0.00000000000E+00  0.65965329519E+03  0.65965329519E+03  0.00000000000E+00 0. -1.
         -4   -1    0    0    0  501 -0.00000000000E+00 -0.00000000000E+00 -0.10370377158E+04  0.10370377158E+04  0.00000000000E+00 0.  1.
         23    2    1    2    0    0 -0.29541778829E+03 -0.38733276809E+03  0.15941530668E+03  0.52050648638E+03  0.90638951281E+02 0.  0.
        254    2    1    2    0    0  0.29541778829E+03  0.38733276809E+03 -0.53679972726E+03  0.11761845246E+04  0.92626008541E+03 0.  0.
        -24    2    4    4    0    0  0.27556511233E+02  0.63996658330E+03 -0.46093110748E+03  0.79323425763E+03  0.80290177377E+02 0.  0.
         24    2    4    4    0    0  0.26786127705E+03 -0.25263381522E+03 -0.75868619780E+02  0.38295026696E+03  0.72947591857E+02 0.  0.
         13    1    3    3    0    0 -0.35771330552E+02 -0.65517662971E+02 -0.65729464016E+01  0.74935678252E+02  0.00000000000E+00 0.  1.
        -13    1    3    3    0    0 -0.25964645773E+03 -0.32181510512E+03  0.16598825308E+03  0.44557080813E+03  0.00000000000E+00 0. -1.
          4    1    6    6  502    0  0.15654153796E+03 -0.17400843117E+03 -0.17571929071E+02  0.23471889553E+03  0.00000000000E+00 0. -1.
          3    1    5    5  503    0  0.43697502894E+02  0.34029200668E+03 -0.27967867695E+03  0.44263786994E+03  0.00000000000E+00 0. -1.
         -4    1    5    5    0  503 -0.16140991660E+02  0.29967457663E+03 -0.18125243053E+03  0.35059638769E+03  0.00000000000E+00 0.  1.
         -3    1    6    6    0  502  0.11131973909E+03 -0.78625384045E+02 -0.58296690710E+02  0.14823137143E+03  0.00000000000E+00 0.  1.
<mgrwt>
<rscale>  0 0.16541890E+04</rscale>
<asrwt>0</asrwt>
<pdfrwt beam="1">  1        4 0.10148512E+00 0.16541890E+04</pdfrwt>
<pdfrwt beam="2">  1       -4 0.15954426E+00 0.16541890E+04</pdfrwt>
<totfact> 0.38392554E-01</totfact>
</mgrwt>
</event>
<event>
12    1  0.1472088E-007  0.1694516E+04  0.7818608E-02  0.8764498E-01
          2   -1    0    0  501    0  0.00000000000E+00  0.00000000000E+00  0.89858306338E+03  0.89858306338E+03  0.00000000000E+00 0.  1.
         -2   -1    0    0    0  501 -0.00000000000E+00 -0.00000000000E+00 -0.79886472331E+03  0.79886472331E+03  0.00000000000E+00 0. -1.
         23    2    1    2    0    0  0.18071471890E+03  0.17984750558E+03 -0.47700412785E+03  0.55029599552E+03  0.10143869980E+03 0.  0.
        254    2    1    2    0    0 -0.18071471890E+03 -0.17984750558E+03  0.57672246791E+03  0.11471517912E+04  0.95830344468E+03 0.  0.
        -24    2    4    4    0    0  0.27733117572E+02  0.11950533073E+03 -0.22169206281E+03  0.26565463962E+03  0.79839632714E+02 0.  0.
         24    2    4    4    0    0 -0.20844783647E+03 -0.29935283631E+03  0.79841453073E+03  0.88149715155E+03  0.80677408078E+02 0.  0.
         13    1    3    3    0    0  0.76436320020E+02  0.39085373949E+02 -0.84433079039E+02  0.12041230133E+03  0.00000000000E+00 0.  1.
        -13    1    3    3    0    0  0.10427839888E+03  0.14076213163E+03 -0.39257104881E+03  0.42988369420E+03  0.00000000000E+00 0. -1.
          2    1    6    6  502    0 -0.12733302988E+02 -0.96779585442E+01  0.95208776247E+01  0.18613086722E+02  0.00000000000E+00 0. -1.
          1    1    5    5  503    0 -0.15896180733E+02  0.36735378804E+02 -0.12436383560E+03  0.13064662346E+03  0.00000000000E+00 0. -1.
         -2    1    5    5    0  503  0.43629298305E+02  0.82769951927E+02 -0.97328227216E+02  0.13500801615E+03  0.00000000000E+00 0.  1.
         -1    1    6    6    0  502 -0.19571453348E+03 -0.28967487776E+03  0.78889365310E+03  0.86288406483E+03  0.00000000000E+00 0.  1.
<mgrwt>
<rscale>  0 0.16945162E+04</rscale>
<asrwt>0</asrwt>
<pdfrwt beam="1">  1        2 0.13824355E+00 0.16945162E+04</pdfrwt>
<pdfrwt beam="2">  1       -2 0.12290227E+00 0.16945162E+04</pdfrwt>
<totfact> 0.13994408E+01</totfact>
</mgrwt>
</event>
<event>
12    1  0.1472088E-007  0.1675529E+04  0.7818608E-02  0.8775446E-01
         -2   -1    0    0    0  501 -0.00000000000E+00  0.00000000000E+00  0.14474631329E+04  0.14474631329E+04  0.00000000000E+00 0.  1.
          2   -1    0    0  501    0  0.00000000000E+00 -0.00000000000E+00 -0.48488230339E+03  0.48488230339E+03  0.00000000000E+00 0. -1.
         23    2    1    2    0    0  0.20663785199E+03 -0.50035213243E+03  0.46630932553E+03  0.72009322536E+03  0.89657168316E+02 0.  0.
        254    2    1    2    0    0 -0.20663785199E+03  0.50035213243E+03  0.49627150393E+03  0.12122522109E+04  0.96447838695E+03 0.  0.
        -24    2    4    4    0    0 -0.45395345321E+03  0.70495717680E+02  0.53366197382E+03  0.70862765531E+03  0.79464883304E+02 0.  0.
         24    2    4    4    0    0  0.24731560122E+03  0.42985641475E+03 -0.37390469888E+02  0.50362455558E+03  0.79360581140E+02 0.  0.
         11    1    3    3    0    0  0.46902061410E+02 -0.66405162927E+02  0.37785499446E+02  0.89650393174E+02  0.00000000000E+00 0.  1.
        -11    1    3    3    0    0  0.15973579058E+03 -0.43394696950E+03  0.42852382608E+03  0.63044283218E+03  0.00000000000E+00 0. -1.
          2    1    6    6  502    0  0.64294579890E+02  0.53144497034E+02 -0.58026328908E+01  0.83616990598E+02  0.00000000000E+00 0. -1.
          1    1    5    5  503    0 -0.21494674555E+03  0.62214106402E+02  0.21604834276E+03  0.31104595298E+03  0.00000000000E+00 0. -1.
         -2    1    5    5    0  503 -0.23900670767E+03  0.82816112784E+01  0.31761363106E+03  0.39758170233E+03  0.00000000000E+00 0.  1.
         -1    1    6    6    0  502  0.18302102133E+03  0.37671191771E+03 -0.31587836997E+02  0.42000756498E+03  0.00000000000E+00 0.  1.
<mgrwt>
<rscale>  0 0.16755289E+04</rscale>
<asrwt>0</asrwt>
<pdfrwt beam="1">  1        2 0.74597278E-01 0.16755289E+04</pdfrwt>
<pdfrwt beam="2">  1       -2 0.22268663E+00 0.16755289E+04</pdfrwt>
<totfact> 0.57786078E+00</totfact>
</mgrwt>
</event>
<event>
12    1  0.1472088E-007  0.1374718E+04  0.7818608E-02  0.8972325E-01
          2   -1    0    0  501    0  0.00000000000E+00  0.00000000000E+00  0.83312271645E+03  0.83312271645E+03  0.00000000000E+00 0.  1.
         -2   -1    0    0    0  501 -0.00000000000E+00 -0.00000000000E+00 -0.56709818900E+03  0.56709818900E+03  0.00000000000E+00 0. -1.
         23    2    1    2    0    0 -0.13853660470E+03 -0.30868776850E+03 -0.11725356825E+03  0.36733025952E+03  0.81869353395E+02 0.  0.
        254    2    1    2    0    0  0.13853660470E+03  0.30868776850E+03  0.38327809570E+03  0.10328906459E+04  0.89748563139E+03 0.  0.
        -24    2    4    4    0    0  0.41018641707E+02  0.17512849737E+03  0.66670157271E+03  0.69511289536E+03  0.79614261864E+02 0.  0.
         24    2    4    4    0    0  0.97517962996E+02  0.13355927114E+03 -0.28342347701E+03  0.33777775057E+03  0.80106862693E+02 0.  0.
         11    1    3    3    0    0 -0.29454594769E+01 -0.92941468106E+02 -0.24546136039E+02  0.96173307210E+02  0.00000000000E+00 0.  1.
        -11    1    3    3    0    0 -0.13559114523E+03 -0.21574630040E+03 -0.92707432208E+02  0.27115695231E+03  0.00000000000E+00 0. -1.
          4    1    6    6  502    0  0.26418368579E+02 -0.87646006605E+00 -0.18354583339E+02  0.32180570383E+02  0.00000000000E+00 0. -1.
          3    1    5    5  503    0  0.14157401611E+01 -0.26711267999E+01 -0.86157562034E+00  0.31434934602E+01  0.00000000000E+00 0. -1.
         -4    1    5    5    0  503  0.39602901546E+02  0.17779962417E+03  0.66756314833E+03  0.69196940190E+03  0.00000000000E+00 0.  1.
         -3    1    6    6    0  502  0.71099594417E+02  0.13443573120E+03 -0.26506889367E+03  0.30559718019E+03  0.00000000000E+00 0.  1.
<mgrwt>
<rscale>  0 0.13747180E+04</rscale>
<asrwt>0</asrwt>
<pdfrwt beam="1">  1        2 0.12817273E+00 0.13747180E+04</pdfrwt>
<pdfrwt beam="2">  1       -2 0.87245875E-01 0.13747180E+04</pdfrwt>
<totfact> 0.36115719E+01</totfact>
</mgrwt>
</event>
<event>
12    1  0.1472088E-007  0.1494204E+04  0.7818608E-02  0.8888316E-01
          2   -1    0    0  501    0  0.00000000000E+00  0.00000000000E+00  0.86430697450E+03  0.86430697450E+03  0.00000000000E+00 0.  1.
         -2   -1    0    0    0  501 -0.00000000000E+00 -0.00000000000E+00 -0.64579064724E+03  0.64579064724E+03  0.00000000000E+00 0. -1.
         23    2    1    2    0    0 -0.13873583772E+03 -0.43170610991E+03  0.21411386465E+03  0.50957794506E+03  0.90593250627E+02 0.  0.
        254    2    1    2    0    0  0.13873583772E+03  0.43170610991E+03  0.44024626069E+01  0.10005196767E+04  0.89185337569E+03 0.  0.
        -24    2    4    4    0    0  0.24129222573E+03  0.46595162572E+03  0.34613494521E+03  0.63334958805E+03  0.77391502638E+02 0.  0.
         24    2    4    4    0    0 -0.10255638802E+03 -0.34245515804E+02 -0.34173248260E+03  0.36717008863E+03  0.79638032635E+02 0.  0.
         11    1    3    3    0    0 -0.44703850398E+02 -0.14401127119E+03  0.11969235882E+03  0.19251997619E+03  0.00000000000E+00 0.  1.
        -11    1    3    3    0    0 -0.94031987318E+02 -0.28769483872E+03  0.94421505823E+02  0.31705796888E+03  0.00000000000E+00 0. -1.
          2    1    6    6  502    0 -0.85288738241E+02  0.24356066205E+01 -0.28459664366E+03  0.29711168041E+03  0.00000000000E+00 0. -1.
          3    1    5    5  503    0  0.15669187128E+03  0.22833933658E+03  0.20275247970E+03  0.34321970104E+03  0.00000000000E+00 0. -1.
         -4    1    5    5    0  503  0.84600354448E+02  0.23761228914E+03  0.14338246551E+03  0.29012988701E+03  0.00000000000E+00 0.  1.
         -1    1    6    6    0  502 -0.17267649776E+02 -0.36681122424E+02 -0.57135838938E+02  0.70058408220E+02  0.00000000000E+00 0.  1.
<mgrwt>
<rscale>  0 0.14942039E+04</rscale>
<asrwt>0</asrwt>
<pdfrwt beam="1">  1        2 0.13297030E+00 0.14942039E+04</pdfrwt>
<pdfrwt beam="2">  1       -2 0.99352407E-01 0.14942039E+04</pdfrwt>
<totfact> 0.25156461E+01</totfact>
</mgrwt>
</event>
<event>
12    1  0.1472088E-007  0.1911096E+04  0.7818608E-02  0.8649353E-01
         -2   -1    0    0    0  501 -0.00000000000E+00  0.00000000000E+00  0.97629644930E+03  0.97629644930E+03  0.00000000000E+00 0.  1.
          2   -1    0    0  501    0  0.00000000000E+00 -0.00000000000E+00 -0.93524043535E+03  0.93524043535E+03  0.00000000000E+00 0. -1.
         23    2    1    2    0    0 -0.59476403766E+03 -0.48339482871E+02  0.46930096644E+03  0.76519190610E+03  0.95886860235E+02 0.  0.
        254    2    1    2    0    0  0.59476403766E+03  0.48339482871E+02 -0.42824495248E+03  0.11463449786E+04  0.88013186763E+03 0.  0.
        -24    2    4    4    0    0  0.78809781818E+03  0.18330332110E+03 -0.30101821731E+03  0.86699423271E+03  0.79804472601E+02 0.  0.
         24    2    4    4    0    0 -0.19333378052E+03 -0.13496383823E+03 -0.12722673517E+03  0.27935074585E+03  0.79101256275E+02 0.  0.
         11    1    3    3    0    0 -0.55125200532E+03 -0.23313115679E+02  0.44775234545E+03  0.71056627952E+03  0.00000000000E+00 0.  1.
        -11    1    3    3    0    0 -0.43512032336E+02 -0.25026367191E+02  0.21548620988E+02  0.54625626580E+02  0.00000000000E+00 0. -1.
          4    1    6    6  502    0 -0.64500290307E+02 -0.45273498760E+02 -0.86828456433E+02  0.11725680358E+03  0.00000000000E+00 0. -1.
          3    1    5    5  503    0  0.13633887273E+03  0.35285567132E+02 -0.21159473055E+02  0.14241166654E+03  0.00000000000E+00 0. -1.
         -4    1    5    5    0  503  0.65175894544E+03  0.14801775397E+03 -0.27985874426E+03  0.72458256617E+03  0.00000000000E+00 0.  1.
         -3    1    6    6    0  502 -0.12883349021E+03 -0.89690339471E+02 -0.40398278736E+02  0.16209394227E+03  0.00000000000E+00 0.  1.
<mgrwt>
<rscale>  0 0.19110959E+04</rscale>
<asrwt>0</asrwt>
<pdfrwt beam="1">  1        2 0.14388314E+00 0.19110959E+04</pdfrwt>
<pdfrwt beam="2">  1       -2 0.15019945E+00 0.19110959E+04</pdfrwt>
<totfact> 0.77561291E+00</totfact>
</mgrwt>
</event>
<event>
12    1  0.1472088E-007  0.1468963E+04  0.7818608E-02  0.8905358E-01
          2   -1    0    0  501    0  0.00000000000E+00  0.00000000000E+00  0.16257469340E+04  0.16257469340E+04  0.00000000000E+00 0. -1.
         -2   -1    0    0    0  501 -0.00000000000E+00 -0.00000000000E+00 -0.33182485359E+03  0.33182485359E+03  0.00000000000E+00 0.  1.
         23    2    1    2    0    0 -0.33683617076E+03 -0.53894704648E+02 -0.36727708615E-01  0.35284663957E+03  0.90208118193E+02 0.  0.
        254    2    1    2    0    0  0.33683617076E+03  0.53894704648E+02  0.12939588081E+04  0.16047251480E+04  0.88569190943E+03 0.  0.
        -24    2    4    4    0    0  0.21337205182E+03 -0.40534459752E+03  0.58421665523E+03  0.74671659117E+03  0.80278839353E+02 0.  0.
         24    2    4    4    0    0  0.12346411894E+03  0.45923930216E+03  0.70974215286E+03  0.85800855682E+03  0.79376537522E+02 0.  0.
         11    1    3    3    0    0 -0.66383235134E+02 -0.31977180664E+02  0.30596023657E+02  0.79783398359E+02  0.00000000000E+00 0. -1.
        -11    1    3    3    0    0 -0.27045293563E+03 -0.21917523984E+02 -0.30632751366E+02  0.27306324121E+03  0.00000000000E+00 0.  1.
          4    1    6    6  502    0  0.12693133259E+03  0.40936755276E+03  0.59937664831E+03  0.73684850749E+03  0.00000000000E+00 0. -1.
          1    1    5    5  503    0  0.20255509438E+03 -0.39983588610E+03  0.58164553562E+03  0.73430840332E+03  0.00000000000E+00 0. -1.
         -2    1    5    5    0  503  0.10816957439E+02 -0.55087114189E+01  0.25711196033E+01  0.12408187851E+02  0.00000000000E+00 0.  1.
         -3    1    6    6    0  502 -0.34672136561E+01  0.49871749402E+02  0.11036550455E+03  0.12116004933E+03  0.00000000000E+00 0.  1.
<mgrwt>
<rscale>  0 0.14689632E+04</rscale>
<asrwt>0</asrwt>
<pdfrwt beam="1">  1        2 0.25011491E+00 0.14689632E+04</pdfrwt>
<pdfrwt beam="2">  1       -2 0.51049978E-01 0.14689632E+04</pdfrwt>
<totfact> 0.37882701E+01</totfact>
</mgrwt>
</event>
<event>
12    1  0.1472088E-007  0.1417325E+04  0.7818608E-02  0.8941373E-01
         -1   -1    0    0    0  501 -0.00000000000E+00  0.00000000000E+00  0.77625396568E+03  0.77625396568E+03  0.00000000000E+00 0.  1.
          1   -1    0    0  501    0  0.00000000000E+00 -0.00000000000E+00 -0.64695605871E+03  0.64695605871E+03  0.00000000000E+00 0. -1.
         23    2    1    2    0    0 -0.31011120895E+03  0.10973553981E+03 -0.21802781450E+03  0.40492042876E+03  0.90628776443E+02 0.  0.
        254    2    1    2    0    0  0.31011120895E+03 -0.10973553981E+03  0.34732572146E+03  0.10182895956E+04  0.89892585520E+03 0.  0.
        -24    2    4    4    0    0  0.41505081642E+03 -0.37367866393E+03  0.43379120869E+03  0.71161905487E+03  0.79523219458E+02 0.  0.
         24    2    4    4    0    0 -0.10493960746E+03  0.26394312412E+03 -0.86465487227E+02  0.30667054075E+03  0.76760967295E+02 0.  0.
         11    1    3    3    0    0 -0.52109657942E+02 -0.13937853490E+02 -0.22880807668E+02  0.58593613732E+02  0.00000000000E+00 0.  1.
        -11    1    3    3    0    0 -0.25800155101E+03  0.12367339330E+03 -0.19514700683E+03  0.34632681503E+03  0.00000000000E+00 0. -1.
          2    1    6    6  502    0  0.62943762103E+01 -0.38183950696E+00 -0.62689046920E+01  0.88918018041E+01  0.00000000000E+00 0. -1.
          1    1    5    5  503    0  0.20300985656E+03 -0.15169136571E+03  0.23698205720E+03  0.34696364035E+03  0.00000000000E+00 0. -1.
         -2    1    5    5    0  503  0.21204095986E+03 -0.22198729822E+03  0.19680915149E+03  0.36465541452E+03  0.00000000000E+00 0.  1.
         -3    1    6    6    0  502 -0.11123398367E+03  0.26432496362E+03 -0.80196582535E+02  0.29777873895E+03  0.00000000000E+00 0.  1.
<mgrwt>
<rscale>  0 0.14173245E+04</rscale>
<asrwt>0</asrwt>
<pdfrwt beam="1">  1        1 0.99531702E-01 0.14173245E+04</pdfrwt>
<pdfrwt beam="2">  1       -1 0.11942369E+00 0.14173245E+04</pdfrwt>
<totfact> 0.18714393E+01</totfact>
</mgrwt>
</event>
<event>
12    1  0.1472088E-007  0.1623000E+04  0.7818608E-02  0.8806541E-01
          2   -1    0    0  501    0  0.00000000000E+00  0.00000000000E+00  0.12926420905E+04  0.12926420905E+04  0.00000000000E+00 0.  1.
         -2   -1    0    0    0  501 -0.00000000000E+00 -0.00000000000E+00 -0.50944681881E+03  0.50944681881E+03  0.00000000000E+00 0. -1.
         23    2    1    2    0    0 -0.32658184486E+03 -0.31530240236E+03 -0.87055831800E+02  0.47198501325E+03  0.95497793459E+02 0.  0.
        254    2    1    2    0    0  0.32658184486E+03  0.31530240236E+03  0.87025110346E+03  0.13301038960E+04  0.89764585712E+03 0.  0.
        -24    2    4    4    0    0  0.49029031984E+02 -0.18063546597E+03  0.70374504025E+03  0.73250678410E+03  0.79221774311E+02 0.  0.
         24    2    4    4    0    0  0.27755281288E+03  0.49593786834E+03  0.16650606321E+03  0.59759711192E+03  0.80050645883E+02 0.  0.
         13    1    3    3    0    0 -0.71423566344E+02 -0.11558922763E+03  0.21990613067E+01  0.13589345549E+03  0.00000000000E+00 0.  1.
        -13    1    3    3    0    0 -0.25515827852E+03 -0.19971317473E+03 -0.89254893106E+02  0.33609155776E+03  0.00000000000E+00 0. -1.
          4    1    6    6  502    0  0.42826056751E+02  0.14755175909E+03  0.37489910361E+02  0.15814893654E+03  0.00000000000E+00 0. -1.
          1    1    5    5  503    0  0.31537018355E+02 -0.39364805894E+02  0.30437181605E+03  0.30852289036E+03  0.00000000000E+00 0. -1.
         -2    1    5    5    0  503  0.17492013629E+02 -0.14127066008E+03  0.39937322420E+03  0.42398389374E+03  0.00000000000E+00 0.  1.
         -3    1    6    6    0  502  0.23472675613E+03  0.34838610924E+03  0.12901615285E+03  0.43944817539E+03  0.00000000000E+00 0.  1.
<mgrwt>
<rscale>  0 0.16230002E+04</rscale>
<asrwt>0</asrwt>
<pdfrwt beam="1">  1        2 0.19886801E+00 0.16230002E+04</pdfrwt>
<pdfrwt beam="2">  1       -2 0.78376434E-01 0.16230002E+04</pdfrwt>
<totfact> 0.23134862E+01</totfact>
</mgrwt>
</event>
<event>
12    1  0.1472088E-007  0.1351634E+04  0.7818608E-02  0.8989592E-01
          2   -1    0    0  501    0  0.00000000000E+00  0.00000000000E+00  0.22116616625E+04  0.22116616625E+04  0.00000000000E+00 0. -1.
         -2   -1    0    0    0  501 -0.00000000000E+00 -0.00000000000E+00 -0.20650934051E+03  0.20650934051E+03  0.00000000000E+00 0.  1.
         23    2    1    2    0    0  0.56442539262E+02  0.34131325737E+03  0.39258134486E+03  0.53100455110E+03  0.90361612754E+02 0.  0.
        254    2    1    2    0    0 -0.56442539262E+02 -0.34131325737E+03  0.16125709771E+04  0.18871664519E+04  0.91724127744E+03 0.  0.
        -24    2    4    4    0    0  0.17179090572E+03 -0.35148364172E+03  0.15979727667E+04  0.16470066758E+04  0.77853459742E+02 0.  0.
         24    2    4    4    0    0 -0.22823344498E+03  0.10170384353E+02  0.14598210403E+02  0.24015977613E+03  0.72592480318E+02 0.  0.
         11    1    3    3    0    0  0.60745577182E+02  0.33643903947E+03  0.35496335879E+03  0.49282881258E+03  0.00000000000E+00 0.  1.
        -11    1    3    3    0    0 -0.43030379196E+01  0.48742179029E+01  0.37617986068E+02  0.38175738517E+02  0.00000000000E+00 0. -1.
          2    1    6    6  502    0 -0.23711195454E+02  0.24003398210E+02  0.97203244866E+01  0.35112228975E+02  0.00000000000E+00 0. -1.
          3    1    5    5  503    0  0.54337576283E+02 -0.64992206902E+02  0.25124549696E+03  0.26514309136E+03  0.00000000000E+00 0. -1.
         -2    1    5    5    0  503  0.11745332943E+03 -0.28649143482E+03  0.13467272697E+04  0.13818635844E+04  0.00000000000E+00 0.  1.
         -1    1    6    6    0  502 -0.20452224952E+03 -0.13833013856E+02  0.48778859161E+01  0.20504754715E+03  0.00000000000E+00 0.  1.
<mgrwt>
<rscale>  0 0.13516343E+04</rscale>
<asrwt>0</asrwt>
<pdfrwt beam="1">  1        2 0.34025562E+00 0.13516343E+04</pdfrwt>
<pdfrwt beam="2">  1       -2 0.31770669E-01 0.13516343E+04</pdfrwt>
<totfact> 0.45828330E+01</totfact>
</mgrwt>
</event>
<event>
12    1  0.1472088E-007  0.1875910E+04  0.7818608E-02  0.8666941E-01
         -2   -1    0    0    0  501 -0.00000000000E+00  0.00000000000E+00  0.33792748176E+03  0.33792748176E+03  0.00000000000E+00 0.  1.
          2   -1    0    0  501    0  0.00000000000E+00 -0.00000000000E+00 -0.26033986768E+04  0.26033986768E+04  0.00000000000E+00 0. -1.
         23    2    1    2    0    0  0.63342154284E+03 -0.31615303386E+03 -0.72747746623E+03  0.10191227617E+04  0.90620902047E+02 0.  0.
        254    2    1    2    0    0 -0.63342154284E+03  0.31615303386E+03 -0.15379937288E+04  0.19222033968E+04  0.91009098287E+03 0.  0.
        -24    2    4    4    0    0 -0.58646464301E+03  0.50192563425E+03 -0.15281965690E+04  0.17139916149E+04  0.80699334822E+02 0.  0.
         24    2    4    4    0    0 -0.46956899825E+02 -0.18577260040E+03 -0.97971597636E+01  0.20821178186E+03  0.80868734789E+02 0.  0.
         11    1    3    3    0    0  0.57191959292E+03 -0.28797541227E+03 -0.69172910763E+03  0.94260862354E+03  0.00000000000E+00 0.  1.
        -11    1    3    3    0    0  0.61501949919E+02 -0.28177621583E+02 -0.35748358598E+02  0.76514138200E+02  0.00000000000E+00 0. -1.
          4    1    6    6  502    0 -0.59959122271E+01 -0.91065701381E+02  0.32242912178E+02  0.96791106602E+02  0.00000000000E+00 0. -1.
          1    1    5    5  503    0 -0.46187449586E+03  0.38905500949E+03 -0.12638300199E+04  0.14006991717E+04  0.00000000000E+00 0. -1.
         -2    1    5    5    0  503 -0.12459014715E+03  0.11287062477E+03 -0.26436654911E+03  0.31329244324E+03  0.00000000000E+00 0.  1.
         -3    1    6    6    0  502 -0.40960987598E+02 -0.94706899018E+02 -0.42040071941E+02  0.11142067526E+03  0.00000000000E+00 0.  1.
<mgrwt>
<rscale>  0 0.18759104E+04</rscale>
<asrwt>0</asrwt>
<pdfrwt beam="1">  1        2 0.40052286E+00 0.18759104E+04</pdfrwt>
<pdfrwt beam="2">  1       -2 0.51988846E-01 0.18759104E+04</pdfrwt>
<totfact> 0.99425648E+00</totfact>
</mgrwt>
</event>
<event>
12    1  0.1472088E-007  0.1678061E+04  0.7818608E-02  0.8773977E-01
          2   -1    0    0  501    0  0.00000000000E+00  0.00000000000E+00  0.25280287805E+04  0.25280287805E+04  0.00000000000E+00 0. -1.
         -2   -1    0    0    0  501 -0.00000000000E+00 -0.00000000000E+00 -0.27846690630E+03  0.27846690630E+03  0.00000000000E+00 0.  1.
         23    2    1    2    0    0  0.18337134239E+03 -0.43502623106E+03  0.14446930476E+04  0.15225259162E+04  0.89857068637E+02 0.  0.
        254    2    1    2    0    0 -0.18337134239E+03  0.43502623106E+03  0.80486882659E+03  0.12839697706E+04  0.88198167379E+03 0.  0.
        -24    2    4    4    0    0 -0.52506641489E+02  0.34245654646E+01 -0.17666380155E+03  0.20090562341E+03  0.79901787776E+02 0.  0.
         24    2    4    4    0    0 -0.13086470090E+03  0.43160166559E+03  0.98153262814E+03  0.10830641472E+04  0.78842115351E+02 0.  0.
         13    1    3    3    0    0  0.66865444685E+02 -0.24423193653E+03  0.86190495723E+03  0.89833199977E+03  0.00000000000E+00 0. -1.
        -13    1    3    3    0    0  0.11650589770E+03 -0.19079429452E+03  0.58278809034E+03  0.62419391639E+03  0.00000000000E+00 0.  1.
          2    1    6    6  502    0  0.49470072581E+01  0.90025019073E+02  0.18455318058E+03  0.20539925366E+03  0.00000000000E+00 0. -1.
          1    1    5    5  503    0 -0.56796437423E+02 -0.28183622125E+02 -0.10899236375E+03  0.12609316879E+03  0.00000000000E+00 0. -1.
         -2    1    5    5    0  503  0.42897959343E+01  0.31608187590E+02 -0.67671437796E+02  0.74812454614E+02  0.00000000000E+00 0.  1.
         -1    1    6    6    0  502 -0.13581170816E+03  0.34157664652E+03  0.79697944756E+03  0.87766489354E+03  0.00000000000E+00 0.  1.
<mgrwt>
<rscale>  0 0.16780612E+04</rscale>
<asrwt>0</asrwt>
<pdfrwt beam="1">  1        2 0.38892749E+00 0.16780612E+04</pdfrwt>
<pdfrwt beam="2">  1       -2 0.42841064E-01 0.16780612E+04</pdfrwt>
<totfact> 0.16540055E+01</totfact>
</mgrwt>
</event>
<event>
12    1  0.1472088E-007  0.1350024E+04  0.7818608E-02  0.8990810E-01
         -2   -1    0    0    0  501 -0.00000000000E+00  0.00000000000E+00  0.35706081974E+03  0.35706081974E+03  0.00000000000E+00 0. -1.
          2   -1    0    0  501    0  0.00000000000E+00 -0.00000000000E+00 -0.12760882248E+04  0.12760882248E+04  0.00000000000E+00 0.  1.
         23    2    1    2    0    0 -0.34151894231E+03 -0.41756576666E+02 -0.11681192339E+03  0.37472121896E+03  0.91608770567E+02 0.  0.
        254    2    1    2    0    0  0.34151894231E+03  0.41756576666E+02 -0.80221548167E+03  0.12584278256E+04  0.90648337740E+03 0.  0.
        -24    2    4    4    0    0  0.58333076503E+03  0.19506380138E+03 -0.33596502485E+03  0.70565793270E+03  0.82194598543E+02 0.  0.
         24    2    4    4    0    0 -0.24181182272E+03 -0.15330722471E+03 -0.46625045681E+03  0.55276989287E+03  0.78670218153E+02 0.  0.
         11    1    3    3    0    0 -0.11559952499E+03 -0.46620951147E+02 -0.73289454685E+02  0.14459636037E+03  0.00000000000E+00 0.  1.
        -11    1    3    3    0    0 -0.22591941732E+03  0.48643744812E+01 -0.43522468703E+02  0.23012485860E+03  0.00000000000E+00 0. -1.
          4    1    6    6  502    0 -0.23000830946E+03 -0.16018711456E+03 -0.45753335576E+03  0.53656360827E+03  0.00000000000E+00 0. -1.
          1    1    5    5  503    0  0.46286199434E+03  0.18344526208E+03 -0.24941452071E+03  0.55686712340E+03  0.00000000000E+00 0. -1.
         -2    1    5    5    0  503  0.12046877069E+03  0.11618539301E+02 -0.86550504136E+02  0.14879080930E+03  0.00000000000E+00 0.  1.
         -3    1    6    6    0  502 -0.11803513262E+02  0.68798898418E+01 -0.87171010531E+01  0.16206284593E+02  0.00000000000E+00 0.  1.
<mgrwt>
<rscale>  0 0.13500239E+04</rscale>
<asrwt>0</asrwt>
<pdfrwt beam="1">  1        2 0.19632127E+00 0.13500239E+04</pdfrwt>
<pdfrwt beam="2">  1       -2 0.54932434E-01 0.13500239E+04</pdfrwt>
<totfact> 0.51972272E+01</totfact>
</mgrwt>
</event>
<event>
12    1  0.1472088E-007  0.1598804E+04  0.7818608E-02  0.8821283E-01
          2   -1    0    0  501    0  0.00000000000E+00  0.00000000000E+00  0.11045601869E+04  0.11045601869E+04  0.00000000000E+00 0. -1.
         -2   -1    0    0    0  501 -0.00000000000E+00 -0.00000000000E+00 -0.57855017862E+03  0.57855017862E+03  0.00000000000E+00 0.  1.
         23    2    1    2    0    0 -0.29716549051E+03 -0.34070700002E+03 -0.12925716552E+03  0.47913997799E+03  0.92082110423E+02 0.  0.
        254    2    1    2    0    0  0.29716549051E+03  0.34070700002E+03  0.65526717375E+03  0.12039703875E+04  0.90320597670E+03 0.  0.
        -24    2    4    4    0    0 -0.26663239763E+03  0.89766889097E+02  0.47132349317E+03  0.55511803459E+03  0.82820693520E+02 0.  0.
         24    2    4    4    0    0  0.56379788814E+03  0.25094011092E+03  0.18394368058E+03  0.64885235290E+03  0.79593343285E+02 0.  0.
         11    1    3    3    0    0 -0.28741926549E+03 -0.28997615315E+03 -0.12639949572E+03  0.42740242873E+03  0.00000000000E+00 0.  1.
        -11    1    3    3    0    0 -0.97462250143E+01 -0.50730846870E+02 -0.28576698028E+01  0.51737549255E+02  0.00000000000E+00 0. -1.
          2    1    6    6  502    0  0.13117197690E+03  0.34265922636E+02  0.66234301273E+02  0.15088811631E+03  0.00000000000E+00 0. -1.
          3    1    5    5  503    0 -0.19836294148E+03  0.88939931746E+02  0.29827734341E+03  0.36909015376E+03  0.00000000000E+00 0. -1.
         -4    1    5    5    0  503 -0.68269456155E+02  0.82695735153E+00  0.17304614976E+03  0.18602788083E+03  0.00000000000E+00 0.  1.
         -1    1    6    6    0  502  0.43262591124E+03  0.21667418828E+03  0.11770937931E+03  0.49796423659E+03  0.00000000000E+00 0.  1.
<mgrwt>
<rscale>  0 0.15988039E+04</rscale>
<asrwt>0</asrwt>
<pdfrwt beam="1">  1        2 0.16993234E+00 0.15988039E+04</pdfrwt>
<pdfrwt beam="2">  1       -2 0.89007721E-01 0.15988039E+04</pdfrwt>
<totfact> 0.22510211E+01</totfact>
</mgrwt>
</event>
<event>
12    1  0.1472088E-007  0.1610544E+04  0.7818608E-02  0.8814097E-01
         -1   -1    0    0    0  501 -0.00000000000E+00  0.00000000000E+00  0.24238917163E+03  0.24238917163E+03  0.00000000000E+00 0. -1.
          1   -1    0    0  501    0  0.00000000000E+00 -0.00000000000E+00 -0.26752964456E+04  0.26752964456E+04  0.00000000000E+00 0.  1.
         23    2    1    2    0    0  0.96326369631E+02 -0.11123461786E+03 -0.18034996058E+04  0.18118977759E+04  0.93331731956E+02 0.  0.
        254    2    1    2    0    0 -0.96326369631E+02  0.11123461786E+03 -0.62940766810E+03  0.11057878414E+04  0.89719609213E+03 0.  0.
        -24    2    4    4    0    0 -0.38548132671E+03  0.19117291425E+03 -0.66128079780E+03  0.79301783761E+03  0.80262449764E+02 0.  0.
         24    2    4    4    0    0  0.28915495708E+03 -0.79938296394E+02  0.31873129698E+02  0.31277000374E+03  0.82513383213E+02 0.  0.
         13    1    3    3    0    0  0.67805973853E+02 -0.96795096647E+02 -0.16857004781E+04  0.16898381705E+04  0.00000000000E+00 0.  1.
        -13    1    3    3    0    0  0.28520395778E+02 -0.14439521209E+02 -0.11779912776E+03  0.12205960532E+03  0.00000000000E+00 0. -1.
          2    1    6    6  502    0  0.23220803070E+03 -0.33189812992E+02  0.42321681431E+02  0.23835531865E+03  0.00000000000E+00 0. -1.
          3    1    5    5  503    0 -0.30209451785E+03  0.17421738288E+03 -0.57008007302E+03  0.66828443336E+03  0.00000000000E+00 0. -1.
         -4    1    5    5    0  503 -0.83386808862E+02  0.16955531369E+02 -0.91200724783E+02  0.12473340426E+03  0.00000000000E+00 0.  1.
         -1    1    6    6    0  502  0.56946926383E+02 -0.46748483402E+02 -0.10448551733E+02  0.74414685097E+02  0.00000000000E+00 0.  1.
<mgrwt>
<rscale>  0 0.16105439E+04</rscale>
<asrwt>0</asrwt>
<pdfrwt beam="1">  1        1 0.41158409E+00 0.16105439E+04</pdfrwt>
<pdfrwt beam="2">  1       -1 0.37290639E-01 0.16105439E+04</pdfrwt>
<totfact> 0.67978169E+00</totfact>
</mgrwt>
</event>
<event>
12    1  0.1472088E-007  0.2267179E+04  0.7818608E-02  0.8490976E-01
         -2   -1    0    0    0  501 -0.00000000000E+00  0.00000000000E+00  0.14782928843E+04  0.14782928843E+04  0.00000000000E+00 0.  1.
          2   -1    0    0  501    0  0.00000000000E+00 -0.00000000000E+00 -0.86926281191E+03  0.86926281191E+03  0.00000000000E+00 0. -1.
         23    2    1    2    0    0 -0.82100238496E+02  0.40036738927E+03 -0.63006580456E+03  0.75637866425E+03  0.89951487492E+02 0.  0.
        254    2    1    2    0    0  0.82100238496E+02 -0.40036738927E+03  0.12390958770E+04  0.15911770320E+04  0.91074214748E+03 0.  0.
        -24    2    4    4    0    0 -0.84730046725E+02  0.14011221772E+03 -0.43045868598E+02  0.18757293692E+03  0.80746798620E+02 0.  0.
         24    2    4    4    0    0  0.16683028522E+03 -0.54047960699E+03  0.12821417456E+04  0.14036040950E+04  0.79160913824E+02 0.  0.
         13    1    3    3    0    0 -0.10052944144E+03  0.36507416674E+03 -0.56933283620E+03  0.68375814013E+03  0.00000000000E+00 0. -1.
        -13    1    3    3    0    0  0.18429202941E+02  0.35293222528E+02 -0.60732968360E+02  0.72620524119E+02  0.00000000000E+00 0.  1.
          2    1    6    6  502    0  0.36292060120E+02 -0.20317935173E+03  0.39767539656E+03  0.44804540354E+03  0.00000000000E+00 0. -1.
          1    1    5    5  503    0 -0.80698645673E+02  0.13952014568E+03 -0.58595708579E+02  0.17149810357E+03  0.00000000000E+00 0. -1.
         -2    1    5    5    0  503 -0.40314010528E+01  0.59207204170E+00  0.15549839980E+02  0.16074833348E+02  0.00000000000E+00 0.  1.
         -3    1    6    6    0  502  0.13053822510E+03 -0.33730025526E+03  0.88446634899E+03  0.95555869150E+03  0.00000000000E+00 0.  1.
<mgrwt>
<rscale>  0 0.22671789E+04</rscale>
<asrwt>0</asrwt>
<pdfrwt beam="1">  1        2 0.13373274E+00 0.22671789E+04</pdfrwt>
<pdfrwt beam="2">  1       -2 0.22742967E+00 0.22671789E+04</pdfrwt>
<totfact> 0.24816204E+00</totfact>
</mgrwt>
</event>
<event>
12    1  0.1472088E-007  0.1811562E+04  0.7818608E-02  0.8700175E-01
          2   -1    0    0  501    0  0.00000000000E+00  0.00000000000E+00  0.10080245738E+04  0.10080245738E+04  0.00000000000E+00 0. -1.
         -2   -1    0    0    0  501 -0.00000000000E+00 -0.00000000000E+00 -0.81390752687E+03  0.81390752687E+03  0.00000000000E+00 0.  1.
         23    2    1    2    0    0 -0.16234713665E+03  0.54983618840E+03  0.43563117787E+03  0.72586734750E+03  0.91828406123E+02 0.  0.
        254    2    1    2    0    0  0.16234713665E+03 -0.54983618840E+03 -0.24151413092E+03  0.10960647532E+04  0.90241478317E+03 0.  0.
        -24    2    4    4    0    0 -0.11789760827E+03 -0.71770387552E+03 -0.18433728253E+03  0.75489428429E+03  0.82984623658E+02 0.  0.
         24    2    4    4    0    0  0.28024474492E+03  0.16786768711E+03 -0.57176848395E+02  0.34117046889E+03  0.80071339557E+02 0.  0.
         11    1    3    3    0    0 -0.54284864409E+02  0.24173128447E+03  0.24164310562E+03  0.34608127787E+03  0.00000000000E+00 0. -1.
        -11    1    3    3    0    0 -0.10806227224E+03  0.30810490393E+03  0.19398807225E+03  0.37978606963E+03  0.00000000000E+00 0.  1.
          4    1    6    6  502    0  0.61670233467E+02  0.66371785826E+02  0.95788609526E+01  0.91105357838E+02  0.00000000000E+00 0. -1.
          1    1    5    5  503    0 -0.81299432251E+01 -0.25373760639E+03 -0.86379391913E+02  0.26816089987E+03  0.00000000000E+00 0. -1.
         -2    1    5    5    0  503 -0.10976766505E+03 -0.46396626913E+03 -0.97957890614E+02  0.48673338442E+03  0.00000000000E+00 0.  1.
         -3    1    6    6    0  502  0.21857451146E+03  0.10149590129E+03 -0.66755709347E+02  0.25006511106E+03  0.00000000000E+00 0.  1.
<mgrwt>
<rscale>  0 0.18115615E+04</rscale>
<asrwt>0</asrwt>
<pdfrwt beam="1">  1        2 0.15508070E+00 0.18115615E+04</pdfrwt>
<pdfrwt beam="2">  1       -2 0.12521654E+00 0.18115615E+04</pdfrwt>
<totfact> 0.11208572E+01</totfact>
</mgrwt>
</event>
<event>
12    1  0.1472088E-007  0.1070784E+04  0.7818608E-02  0.9234145E-01
         -1   -1    0    0    0  501 -0.00000000000E+00  0.00000000000E+00  0.30063145510E+03  0.30063145510E+03  0.00000000000E+00 0.  1.
          1   -1    0    0  501    0  0.00000000000E+00 -0.00000000000E+00 -0.95347522145E+03  0.95347522145E+03  0.00000000000E+00 0. -1.
         23    2    1    2    0    0  0.31447371371E+02  0.34207433970E+02 -0.22585339459E+03  0.24793692948E+03  0.91125624529E+02 0.  0.
        254    2    1    2    0    0 -0.31447371371E+02 -0.34207433970E+02 -0.42699037176E+03  0.10061697471E+04  0.90988883752E+03 0.  0.
        -24    2    4    4    0    0 -0.21188498706E+03  0.22693110517E+03  0.14096720476E+03  0.35054626779E+03  0.81350837792E+02 0.  0.
         24    2    4    4    0    0  0.18043761569E+03 -0.26113853914E+03 -0.56795757653E+03  0.65562347928E+03  0.80717210511E+02 0.  0.
         11    1    3    3    0    0  0.56541678904E+02  0.45227607709E+02 -0.18574872993E+03  0.19936170300E+03  0.00000000000E+00 0. -1.
        -11    1    3    3    0    0 -0.25094307533E+02 -0.11020173739E+02 -0.40104664657E+02  0.48575226475E+02  0.00000000000E+00 0.  1.
          4    1    6    6  502    0  0.93038434903E+01 -0.53147923492E+02 -0.13911130464E+03  0.14920864034E+03  0.00000000000E+00 0. -1.
          1    1    5    5  503    0 -0.12317679485E+02  0.19036313375E+01 -0.80949015238E+01  0.14861913432E+02  0.00000000000E+00 0. -1.
         -2    1    5    5    0  503 -0.19956730757E+03  0.22502747383E+03  0.14906210629E+03  0.33568435436E+03  0.00000000000E+00 0.  1.
         -3    1    6    6    0  502  0.17113377220E+03 -0.20799061564E+03 -0.42884627189E+03  0.50641483894E+03  0.00000000000E+00 0.  1.
<mgrwt>
<rscale>  0 0.10707841E+04</rscale>
<asrwt>0</asrwt>
<pdfrwt beam="1">  1        1 0.14668849E+00 0.10707841E+04</pdfrwt>
<pdfrwt beam="2">  1       -1 0.46250994E-01 0.10707841E+04</pdfrwt>
<totfact> 0.76445949E+01</totfact>
</mgrwt>
</event>
<event>
12    1  0.1472088E-007  0.1355034E+04  0.7818608E-02  0.8987026E-01
         -2   -1    0    0    0  501 -0.00000000000E+00  0.00000000000E+00  0.22014622221E+03  0.22014622221E+03  0.00000000000E+00 0. -1.
          2   -1    0    0  501    0  0.00000000000E+00 -0.00000000000E+00 -0.20851107118E+04  0.20851107118E+04  0.00000000000E+00 0.  1.
         23    2    1    2    0    0  0.21372551593E+03 -0.22781528925E+03 -0.89439015797E+03  0.95187678808E+03  0.92505474651E+02 0.  0.
        254    2    1    2    0    0 -0.21372551593E+03  0.22781528925E+03 -0.97057433160E+03  0.13533801459E+04  0.88996903541E+03 0.  0.
        -24    2    4    4    0    0 -0.80415161405E+02 -0.31581018687E+03 -0.17394246809E+03  0.37650989150E+03  0.72808267922E+02 0.  0.
         24    2    4    4    0    0 -0.13331035452E+03  0.54362547613E+03 -0.79663186351E+03  0.97687025440E+03  0.79704824499E+02 0.  0.
         11    1    3    3    0    0  0.13503924944E+03 -0.20050693093E+03 -0.63592424155E+03  0.68032218047E+03  0.00000000000E+00 0. -1.
        -11    1    3    3    0    0  0.78686266488E+02 -0.27308358324E+02 -0.25846591641E+03  0.27155460761E+03  0.00000000000E+00 0.  1.
          2    1    6    6  502    0 -0.11101090599E+03  0.29571925033E+03 -0.46782628581E+03  0.56447739544E+03  0.00000000000E+00 0. -1.
          3    1    5    5  503    0 -0.16860266697E+02 -0.14308505019E+03 -0.42057559730E+02  0.15008810250E+03  0.00000000000E+00 0. -1.
         -2    1    5    5    0  503 -0.63554894707E+02 -0.17272513669E+03 -0.13188490836E+03  0.22642178901E+03  0.00000000000E+00 0.  1.
         -1    1    6    6    0  502 -0.22299448530E+02  0.24790622580E+03 -0.32880557770E+03  0.41239285896E+03  0.00000000000E+00 0.  1.
<mgrwt>
<rscale>  0 0.13550339E+04</rscale>
<asrwt>0</asrwt>
<pdfrwt beam="1">  1        2 0.32078628E+00 0.13550339E+04</pdfrwt>
<pdfrwt beam="2">  1       -2 0.33868648E-01 0.13550339E+04</pdfrwt>
<totfact> 0.47759807E+01</totfact>
</mgrwt>
</event>
<event>
12    1  0.1472088E-007  0.1792512E+04  0.7818608E-02  0.8710292E-01
          1   -1    0    0  501    0  0.00000000000E+00  0.00000000000E+00  0.30017115330E+04  0.30017115330E+04  0.00000000000E+00 0. -1.
         -1   -1    0    0    0  501 -0.00000000000E+00 -0.00000000000E+00 -0.26760553913E+03  0.26760553913E+03  0.00000000000E+00 0.  1.
         23    2    1    2    0    0 -0.65049097809E+03  0.54595374827E+02  0.82818528905E+03  0.10584569143E+04  0.91219508987E+02 0.  0.
        254    2    1    2    0    0  0.65049097809E+03 -0.54595374827E+02  0.19059207048E+04  0.22108601579E+04  0.91063150454E+03 0.  0.
        -24    2    4    4    0    0  0.65108306452E+03  0.32435188946E+03  0.12951470902E+04  0.14875966863E+04  0.80153669914E+02 0.  0.
         24    2    4    4    0    0 -0.59208642574E+00 -0.37894726429E+03  0.61077361463E+03  0.72326347156E+03  0.80400629872E+02 0.  0.
         11    1    3    3    0    0 -0.55520197715E+03  0.55802650466E+02  0.75221368975E+03  0.93658347534E+03  0.00000000000E+00 0. -1.
        -11    1    3    3    0    0 -0.95289000941E+02 -0.12072756390E+01  0.75971599301E+02  0.12187343892E+03  0.00000000000E+00 0.  1.
          4    1    6    6  502    0  0.77828464893E+01 -0.31464314378E+03  0.55358022892E+03  0.63679820232E+03  0.00000000000E+00 0. -1.
          3    1    5    5  503    0  0.65294183602E+03  0.32032176420E+03  0.12889069008E+04  0.14799392126E+04  0.00000000000E+00 0. -1.
         -4    1    5    5    0  503 -0.18587714979E+01  0.40301252648E+01  0.62401893218E+01  0.76574737285E+01  0.00000000000E+00 0.  1.
         -3    1    6    6    0  502 -0.83749329151E+01 -0.64304120506E+02  0.57193385717E+02  0.86465269242E+02  0.00000000000E+00 0.  1.
<mgrwt>
<rscale>  0 0.17925118E+04</rscale>
<asrwt>0</asrwt>
<pdfrwt beam="1">  1        1 0.46180175E+00 0.17925118E+04</pdfrwt>
<pdfrwt beam="2">  1       -1 0.41170085E-01 0.17925118E+04</pdfrwt>
<totfact> 0.32613860E+00</totfact>
</mgrwt>
</event>
<event>
12    1  0.1472088E-007  0.1427411E+04  0.7818608E-02  0.8934213E-01
          1   -1    0    0  501    0  0.00000000000E+00  0.00000000000E+00  0.70069634254E+03  0.70069634254E+03  0.00000000000E+00 0. -1.
         -1   -1    0    0    0  501 -0.00000000000E+00 -0.00000000000E+00 -0.72695578790E+03  0.72695578790E+03  0.00000000000E+00 0.  1.
         23    2    1    2    0    0 -0.21619255305E+02  0.31767253367E+02  0.40908900857E+03  0.42154892130E+03  0.94197269244E+02 0.  0.
        254    2    1    2    0    0  0.21619255305E+02 -0.31767253367E+02 -0.43534845393E+03  0.10061032091E+04  0.90622229090E+03 0.  0.
        -24    2    4    4    0    0 -0.30535487100E+03 -0.25528938631E+03  0.82478997173E+01  0.40595820799E+03  0.79496985973E+02 0.  0.
         24    2    4    4    0    0  0.32697412631E+03  0.22352213294E+03 -0.44359635364E+03  0.60014500115E+03  0.80759360119E+02 0.  0.
         13    1    3    3    0    0 -0.37601831912E+02  0.20664695317E+02  0.71402436377E+02  0.83302072701E+02  0.00000000000E+00 0.  1.
        -13    1    3    3    0    0  0.15982576607E+02  0.11102558050E+02  0.33768657219E+03  0.33824684860E+03  0.00000000000E+00 0. -1.
          4    1    6    6  502    0  0.38411306828E+02  0.63614276176E+02 -0.80526599304E+02  0.10957526099E+03  0.00000000000E+00 0. -1.
          3    1    5    5  503    0 -0.51987955754E+02 -0.13527340226E+02 -0.12446493302E+02  0.55142104354E+02  0.00000000000E+00 0. -1.
         -4    1    5    5    0  503 -0.25336691525E+03 -0.24176204608E+03  0.20694393020E+02  0.35081610364E+03  0.00000000000E+00 0.  1.
         -3    1    6    6    0  502  0.28856281948E+03  0.15990785676E+03 -0.36306975434E+03  0.49056974016E+03  0.00000000000E+00 0.  1.
<mgrwt>
<rscale>  0 0.14274106E+04</rscale>
<asrwt>0</asrwt>
<pdfrwt beam="1">  1        1 0.10779944E+00 0.14274106E+04</pdfrwt>
<pdfrwt beam="2">  1       -1 0.11183935E+00 0.14274106E+04</pdfrwt>
<totfact> 0.19427318E+01</totfact>
</mgrwt>
</event>
<event>
12    1  0.1472088E-007  0.2382688E+04  0.7818608E-02  0.8446014E-01
          2   -1    0    0  501    0  0.00000000000E+00  0.00000000000E+00  0.15729483716E+04  0.15729483716E+04  0.00000000000E+00 0. -1.
         -2   -1    0    0    0  501 -0.00000000000E+00 -0.00000000000E+00 -0.90231825589E+03  0.90231825589E+03  0.00000000000E+00 0.  1.
         23    2    1    2    0    0  0.21386483943E+02  0.90406393255E+03 -0.19110014716E+03  0.92887526028E+03  0.92200906021E+02 0.  0.
        254    2    1    2    0    0 -0.21386483943E+02 -0.90406393255E+03  0.86173026289E+03  0.15463913672E+04  0.91156910807E+03 0.  0.
        -24    2    4    4    0    0  0.40726633600E+02  0.15424895119E+03  0.28731751269E+03  0.33800315604E+03  0.79015079384E+02 0.  0.
         24    2    4    4    0    0 -0.62113117543E+02 -0.10583128837E+04  0.57441275020E+03  0.12083882112E+04  0.79798885043E+02 0.  0.
         13    1    3    3    0    0 -0.55601004739E+01  0.62234196237E+03 -0.16954815459E+03  0.64504806764E+03  0.00000000000E+00 0.  1.
        -13    1    3    3    0    0  0.26946584417E+02  0.28172197018E+03 -0.21551992574E+02  0.28382719263E+03  0.00000000000E+00 0. -1.
          2    1    6    6  502    0 -0.15080297381E+02 -0.27069530952E+03  0.18728333450E+03  0.32951238725E+03  0.00000000000E+00 0. -1.
          3    1    5    5  503    0  0.41089453779E+02  0.24189239082E+02  0.68755556428E+02  0.83670717931E+02  0.00000000000E+00 0. -1.
         -4    1    5    5    0  503 -0.36282017928E+00  0.13005971211E+03  0.21856195626E+03  0.25433243811E+03  0.00000000000E+00 0.  1.
         -1    1    6    6    0  502 -0.47032820162E+02 -0.78761757422E+03  0.38712941570E+03  0.87887582393E+03  0.00000000000E+00 0.  1.
<mgrwt>
<rscale>  0 0.23826876E+04</rscale>
<asrwt>0</asrwt>
<pdfrwt beam="1">  1        2 0.24199206E+00 0.23826876E+04</pdfrwt>
<pdfrwt beam="2">  1       -2 0.13881819E+00 0.23826876E+04</pdfrwt>
<totfact> 0.38188093E+00</totfact>
</mgrwt>
</event>
<event>
12    1  0.1472088E-007  0.2922193E+04  0.7818608E-02  0.8266305E-01
         -2   -1    0    0    0  501 -0.00000000000E+00  0.00000000000E+00  0.10693813501E+04  0.10693813501E+04  0.00000000000E+00 0.  1.
          2   -1    0    0  501    0  0.00000000000E+00 -0.00000000000E+00 -0.19962965306E+04  0.19962965306E+04  0.00000000000E+00 0. -1.
         23    2    1    2    0    0 -0.78486811592E+03 -0.87469643620E+03  0.21520001554E+03  0.11982240585E+04  0.91203250081E+02 0.  0.
        254    2    1    2    0    0  0.78486811592E+03  0.87469643620E+03 -0.11421151961E+04  0.18674538221E+04  0.89545789505E+03 0.  0.
        -24    2    4    4    0    0  0.10559863210E+03 -0.12908135767E+03 -0.40918618398E+03  0.44901165702E+03  0.79781369886E+02 0.  0.
         24    2    4    4    0    0  0.67926948382E+03  0.10037777939E+04 -0.73292901209E+03  0.14184421651E+04  0.76264984629E+02 0.  0.
         13    1    3    3    0    0 -0.77008714210E+03 -0.86502947941E+03  0.22211661528E+03  0.11792565444E+04  0.00000000000E+00 0.  1.
        -13    1    3    3    0    0 -0.14780973821E+02 -0.96669567866E+01 -0.69165997327E+01  0.18967514135E+02  0.00000000000E+00 0. -1.
          2    1    6    6  502    0  0.49626105945E+03  0.76899829164E+03 -0.52216832890E+03  0.10537045010E+04  0.00000000000E+00 0. -1.
          1    1    5    5  503    0  0.89307396543E+02 -0.13058370675E+03 -0.40022479213E+03  0.43035775789E+03  0.00000000000E+00 0. -1.
         -2    1    5    5    0  503  0.16291235558E+02  0.15023490794E+01 -0.89613918559E+01  0.18653899130E+02  0.00000000000E+00 0.  1.
         -1    1    6    6    0  502  0.18300842437E+03  0.23477950223E+03 -0.21076068320E+03  0.36473766413E+03  0.00000000000E+00 0.  1.
<mgrwt>
<rscale>  0 0.29221925E+04</rscale>
<asrwt>0</asrwt>
<pdfrwt beam="1">  1        2 0.30712254E+00 0.29221925E+04</pdfrwt>
<pdfrwt beam="2">  1       -2 0.16452021E+00 0.29221925E+04</pdfrwt>
<totfact> 0.13498151E+00</totfact>
</mgrwt>
</event>
<event>
12    1  0.1472088E-007  0.4521147E+04  0.7818608E-02  0.7906945E-01
         -2   -1    0    0    0  501 -0.00000000000E+00  0.00000000000E+00  0.17534528304E+04  0.17534528304E+04  0.00000000000E+00 0.  1.
          2   -1    0    0  501    0  0.00000000000E+00 -0.00000000000E+00 -0.29143600631E+04  0.29143600631E+04  0.00000000000E+00 0. -1.
         23    2    1    2    0    0  0.93347754053E+03 -0.16236209057E+04  0.57387710804E+03  0.19608592905E+04  0.90050307247E+02 0.  0.
        254    2    1    2    0    0 -0.93347754053E+03  0.16236209057E+04 -0.17347843408E+04  0.27069536031E+04  0.90033101469E+03 0.  0.
        -24    2    4    4    0    0 -0.79747949245E+03  0.96925514143E+03 -0.15733813779E+04  0.20146090371E+04  0.87701437338E+02 0.  0.
         24    2    4    4    0    0 -0.13599804809E+03  0.65436576426E+03 -0.16140296292E+03  0.69234456595E+03  0.81240747471E+02 0.  0.
         13    1    3    3    0    0  0.12614473876E+03 -0.23363192432E+03  0.49766287937E+02  0.27013525240E+03  0.00000000000E+00 0. -1.
        -13    1    3    3    0    0  0.80733280178E+03 -0.13899889814E+04  0.52411082010E+03  0.16907240381E+04  0.00000000000E+00 0.  1.
          4    1    6    6  502    0  0.16199436581E+01  0.67080806754E+02 -0.36389897841E+02  0.76332715903E+02  0.00000000000E+00 0. -1.
          1    1    5    5  503    0 -0.10692972028E+03  0.90763792220E+02 -0.15717861974E+03  0.21065884638E+03  0.00000000000E+00 0. -1.
         -2    1    5    5    0  503 -0.69054977217E+03  0.87849134921E+03 -0.14162027581E+04  0.18039501907E+04  0.00000000000E+00 0.  1.
         -3    1    6    6    0  502 -0.13761799174E+03  0.58728495750E+03 -0.12501306508E+03  0.61601185005E+03  0.00000000000E+00 0.  1.
<mgrwt>
<rscale>  0 0.45211472E+04</rscale>
<asrwt>0</asrwt>
<pdfrwt beam="1">  1        2 0.44836308E+00 0.45211472E+04</pdfrwt>
<pdfrwt beam="2">  1       -2 0.26976198E+00 0.45211472E+04</pdfrwt>
<totfact> 0.72382150E-02</totfact>
</mgrwt>
</event>
<event>
12    1  0.1472088E-007  0.1251962E+04  0.7818608E-02  0.9068551E-01
          2   -1    0    0  501    0  0.00000000000E+00  0.00000000000E+00  0.94893771573E+03  0.94893771573E+03  0.00000000000E+00 0. -1.
         -2   -1    0    0    0  501 -0.00000000000E+00 -0.00000000000E+00 -0.41293807277E+03  0.41293807277E+03  0.00000000000E+00 0.  1.
         23    2    1    2    0    0  0.17851857127E+03 -0.49049638879E+02  0.37624081499E+03  0.42837206663E+03  0.87582699440E+02 0.  0.
        254    2    1    2    0    0 -0.17851857127E+03  0.49049638879E+02  0.15975882796E+03  0.93350372187E+03  0.90090597083E+03 0.  0.
        -24    2    4    4    0    0 -0.12280913865E+03  0.38395827110E+03  0.34649409958E+03  0.53687570865E+03  0.75308213412E+02 0.  0.
         24    2    4    4    0    0 -0.55709432624E+02 -0.33490863222E+03 -0.18673527162E+03  0.39662801323E+03  0.84713554927E+02 0.  0.
         11    1    3    3    0    0  0.14615998499E+03 -0.58260392394E+02  0.35571680515E+03  0.38896202899E+03  0.00000000000E+00 0. -1.
        -11    1    3    3    0    0  0.32358586287E+02  0.92107535148E+01  0.20524009848E+02  0.39410037644E+02  0.00000000000E+00 0.  1.
          2    1    6    6  502    0 -0.44015271707E+02 -0.66211117560E+02 -0.27807137477E+02  0.84228814111E+02  0.00000000000E+00 0. -1.
          3    1    5    5  503    0 -0.63108707706E+02  0.25919572372E+03  0.26660008974E+03  0.37714816721E+03  0.00000000000E+00 0. -1.
         -4    1    5    5    0  503 -0.59700430943E+02  0.12476254738E+03  0.79894009841E+02  0.15972754143E+03  0.00000000000E+00 0.  1.
         -1    1    6    6    0  502 -0.11694160917E+02 -0.26869751466E+03 -0.15892813414E+03  0.31239919911E+03  0.00000000000E+00 0.  1.
<mgrwt>
<rscale>  0 0.12519625E+04</rscale>
<asrwt>0</asrwt>
<pdfrwt beam="1">  1        2 0.14599042E+00 0.12519625E+04</pdfrwt>
<pdfrwt beam="2">  1       -2 0.63528935E-01 0.12519625E+04</pdfrwt>
<totfact> 0.61336229E+01</totfact>
</mgrwt>
</event>
<event>
12    1  0.1472088E-007  0.1875898E+04  0.7818608E-02  0.8666948E-01
          2   -1    0    0  501    0  0.00000000000E+00  0.00000000000E+00  0.30364482734E+04  0.30364482734E+04  0.00000000000E+00 0. -1.
         -2   -1    0    0    0  501 -0.00000000000E+00 -0.00000000000E+00 -0.28972925291E+03  0.28972925291E+03  0.00000000000E+00 0.  1.
         23    2    1    2    0    0  0.12124635399E+03 -0.52141853626E+03  0.19070255034E+04  0.19828762426E+04  0.92054085139E+02 0.  0.
        254    2    1    2    0    0 -0.12124635399E+03  0.52141853626E+03  0.83969351713E+03  0.13433012837E+04  0.90155153367E+03 0.  0.
        -24    2    4    4    0    0 -0.22660896678E+03 -0.19650823067E+03  0.17908004542E+03  0.35849786080E+03  0.80522946953E+02 0.  0.
         24    2    4    4    0    0  0.10536261279E+03  0.71792676693E+03  0.66061347171E+03  0.98480342294E+03  0.83111370902E+02 0.  0.
         11    1    3    3    0    0  0.82556813482E+02 -0.16762417401E+03  0.69455318550E+03  0.71924795352E+03  0.00000000000E+00 0.  1.
        -11    1    3    3    0    0  0.38689540512E+02 -0.35379436226E+03  0.12124723179E+04  0.12636282891E+04  0.00000000000E+00 0. -1.
          2    1    6    6  502    0  0.28625060648E+02  0.42762601606E+03  0.41933377131E+03  0.59960338181E+03  0.00000000000E+00 0. -1.
          1    1    5    5  503    0 -0.83458317085E+02 -0.11959849652E+03  0.63390192493E+02  0.15902014830E+03  0.00000000000E+00 0. -1.
         -2    1    5    5    0  503 -0.14315064970E+03 -0.76909734145E+02  0.11568985292E+03  0.19947771250E+03  0.00000000000E+00 0.  1.
         -1    1    6    6    0  502  0.76737552137E+02  0.29030075086E+03  0.24127970040E+03  0.38520004113E+03  0.00000000000E+00 0.  1.
<mgrwt>
<rscale>  0 0.18758975E+04</rscale>
<asrwt>0</asrwt>
<pdfrwt beam="1">  1        2 0.46714587E+00 0.18758975E+04</pdfrwt>
<pdfrwt beam="2">  1       -2 0.44573733E-01 0.18758975E+04</pdfrwt>
<totfact> 0.74230467E+00</totfact>
</mgrwt>
</event>
<event>
12    1  0.1969139E-007  0.2484987E+04  0.7818608E-02  0.8408354E-01
          1   -1    0    0  501    0  0.00000000000E+00  0.00000000000E+00  0.15117954937E+04  0.15117954937E+04  0.00000000000E+00 0. -1.
         -1   -1    0    0    0  501 -0.00000000000E+00 -0.00000000000E+00 -0.10211633821E+04  0.10211633821E+04  0.00000000000E+00 0.  1.
         23    2    1    2    0    0  0.86891637268E+03  0.56652011896E+03 -0.85144885459E+02  0.10448348738E+04  0.92030180331E+02 0.  0.
        254    2    1    2    0    0 -0.86891637268E+03 -0.56652011896E+03  0.57577699706E+03  0.14881240020E+04  0.89835025858E+03 0.  0.
        -24    2    4    4    0    0 -0.85501755598E+02  0.14418904150E+03  0.36112255758E+03  0.40581525215E+03  0.78584269303E+02 0.  0.
         24    2    4    4    0    0 -0.78341461708E+03 -0.71070916046E+03  0.21465443948E+03  0.10823087499E+04  0.80434623182E+02 0.  0.
         13    1    3    3    0    0  0.65770026811E+03  0.42188447670E+03 -0.10340240906E+03  0.78819300464E+03  0.00000000000E+00 0.  1.
        -13    1    3    3    0    0  0.21121610457E+03  0.14463564226E+03  0.18257523602E+02  0.25664186917E+03  0.00000000000E+00 0. -1.
          2    1    6    6  502    0 -0.72901056302E+03 -0.65989779007E+03  0.17788843987E+03  0.99928263838E+03  0.00000000000E+00 0. -1.
          3    1    5    5  503    0 -0.87722809379E+02  0.10317540711E+03  0.32099304365E+03  0.34839200621E+03  0.00000000000E+00 0. -1.
         -4    1    5    5    0  503  0.22210537809E+01  0.41013634393E+02  0.40129513934E+02  0.57423245943E+02  0.00000000000E+00 0.  1.
         -1    1    6    6    0  502 -0.54404054060E+02 -0.50811370395E+02  0.36765999603E+02  0.83026111474E+02  0.00000000000E+00 0.  1.
<mgrwt>
<rscale>  0 0.24849871E+04</rscale>
<asrwt>0</asrwt>
<pdfrwt beam="1">  1        1 0.23258392E+00 0.24849871E+04</pdfrwt>
<pdfrwt beam="2">  1       -1 0.15710206E+00 0.24849871E+04</pdfrwt>
<totfact> 0.17559911E+00</totfact>
</mgrwt>
</event>
<event>
12    1  0.1472088E-007  0.1411522E+04  0.7818608E-02  0.8945520E-01
         -2   -1    0    0    0  501 -0.00000000000E+00  0.00000000000E+00  0.16119293578E+04  0.16119293578E+04  0.00000000000E+00 0. -1.
          2   -1    0    0  501    0  0.00000000000E+00 -0.00000000000E+00 -0.30900772852E+03  0.30900772852E+03  0.00000000000E+00 0.  1.
         23    2    1    2    0    0  0.36282214485E+03 -0.12614896660E+03  0.18151485890E+03  0.43465985047E+03  0.91804526257E+02 0.  0.
        254    2    1    2    0    0 -0.36282214485E+03  0.12614896660E+03  0.11214067703E+04  0.14862772358E+04  0.89661218293E+03 0.  0.
        -24    2    4    4    0    0 -0.45769920910E+03 -0.27603840042E+03  0.51084052840E+03  0.74388131964E+03  0.81948811744E+02 0.  0.
         24    2    4    4    0    0  0.94877064249E+02  0.40218736702E+03  0.61056624194E+03  0.74239591617E+03  0.87202207800E+02 0.  0.
         11    1    3    3    0    0  0.19624970540E+02 -0.34537013994E+02  0.19067712215E+02  0.44062710464E+02  0.00000000000E+00 0. -1.
        -11    1    3    3    0    0  0.34319717431E+03 -0.91611952604E+02  0.16244714668E+03  0.39059714000E+03  0.00000000000E+00 0.  1.
          2    1    6    6  502    0  0.83661569992E+01  0.15922989896E+02  0.45410386240E+01  0.18551421022E+02  0.00000000000E+00 0. -1.
          3    1    5    5  503    0 -0.50957361156E+02 -0.34814245701E+01  0.45426242523E+02  0.68354345018E+02  0.00000000000E+00 0. -1.
         -4    1    5    5    0  503 -0.40674184794E+03 -0.27255697585E+03  0.46541428587E+03  0.67552697462E+03  0.00000000000E+00 0.  1.
         -1    1    6    6    0  502  0.86510907250E+02  0.38626437712E+03  0.60602520332E+03  0.72384449515E+03  0.00000000000E+00 0.  1.
<mgrwt>
<rscale>  0 0.14115221E+04</rscale>
<asrwt>0</asrwt>
<pdfrwt beam="1">  1        2 0.47539651E-01 0.14115221E+04</pdfrwt>
<pdfrwt beam="2">  1       -2 0.24798913E+00 0.14115221E+04</pdfrwt>
<totfact> 0.68368664E+00</totfact>
</mgrwt>
</event>
<event>
12    1  0.1472088E-007  0.2257968E+04  0.7818608E-02  0.8494681E-01
         -2   -1    0    0    0  501 -0.00000000000E+00  0.00000000000E+00  0.15288287108E+04  0.15288287108E+04  0.00000000000E+00 0.  1.
          2   -1    0    0  501    0  0.00000000000E+00 -0.00000000000E+00 -0.83371310614E+03  0.83371310614E+03  0.00000000000E+00 0. -1.
         23    2    1    2    0    0  0.19160496126E+03 -0.13353514271E+03 -0.67073418686E+03  0.71605443095E+03  0.91134533226E+02 0.  0.
        254    2    1    2    0    0 -0.19160496126E+03  0.13353514271E+03  0.13658497915E+04  0.16464873860E+04  0.88928677249E+03 0.  0.
        -24    2    4    4    0    0 -0.33219529263E+03 -0.11673533128E+03  0.14431955141E+03  0.38915701186E+03  0.81450579773E+02 0.  0.
         24    2    4    4    0    0  0.14059033138E+03  0.25027047399E+03  0.12215302401E+04  0.12573303741E+04  0.79640384109E+02 0.  0.
         13    1    3    3    0    0  0.18807382718E+03 -0.13868778824E+03 -0.58285950651E+03  0.62795801723E+03  0.00000000000E+00 0. -1.
        -13    1    3    3    0    0  0.35311340771E+01  0.51526455275E+01 -0.87874680348E+02  0.88096413719E+02  0.00000000000E+00 0.  1.
          2    1    6    6  502    0  0.69890304997E+02  0.57285214851E+02  0.30912131090E+03  0.32205936631E+03  0.00000000000E+00 0. -1.
          3    1    5    5  503    0 -0.15328853736E+03 -0.25143514000E+02  0.95424558272E+02  0.18230583727E+03  0.00000000000E+00 0. -1.
         -4    1    5    5    0  503 -0.17890675527E+03 -0.91591817276E+02  0.48894993134E+02  0.20685117459E+03  0.00000000000E+00 0.  1.
         -1    1    6    6    0  502  0.70700026381E+02  0.19298525914E+03  0.91240892922E+03  0.93527100783E+03  0.00000000000E+00 0.  1.
<mgrwt>
<rscale>  0 0.22579677E+04</rscale>
<asrwt>0</asrwt>
<pdfrwt beam="1">  1        2 0.12826356E+00 0.22579677E+04</pdfrwt>
<pdfrwt beam="2">  1       -2 0.23520442E+00 0.22579677E+04</pdfrwt>
<totfact> 0.23511602E+00</totfact>
</mgrwt>
</event>
<event>
12    1  0.1472088E-007  0.1440073E+04  0.7818608E-02  0.8925311E-01
         -2   -1    0    0    0  501 -0.00000000000E+00  0.00000000000E+00  0.38087742648E+03  0.38087742648E+03  0.00000000000E+00 0.  1.
          2   -1    0    0  501    0  0.00000000000E+00 -0.00000000000E+00 -0.13612064831E+04  0.13612064831E+04  0.00000000000E+00 0. -1.
         23    2    1    2    0    0 -0.21115254351E+03  0.36798990631E+01  0.15130073964E+03  0.27468522697E+03  0.89225118721E+02 0.  0.
        254    2    1    2    0    0  0.21115254351E+03 -0.36798990631E+01 -0.11316297962E+04  0.14673986826E+04  0.90998569201E+03 0.  0.
        -24    2    4    4    0    0  0.49478328485E+03  0.21184826405E+03 -0.50625714489E+03  0.74328500192E+03  0.80536397914E+02 0.  0.
         24    2    4    4    0    0 -0.28363074134E+03 -0.21552816311E+03 -0.62537265134E+03  0.72411368067E+03  0.79692427267E+02 0.  0.
         13    1    3    3    0    0 -0.19202503493E+03 -0.19672955126E+02  0.15001917199E+03  0.24447165719E+03  0.00000000000E+00 0.  1.
        -13    1    3    3    0    0 -0.19127508580E+02  0.23352854189E+02  0.12815676500E+01  0.30213569780E+02  0.00000000000E+00 0. -1.
          4    1    6    6  502    0 -0.27254673270E+03 -0.17871244080E+03 -0.57200708627E+03  0.65834031074E+03  0.00000000000E+00 0. -1.
          3    1    5    5  503    0  0.46162162686E+03  0.18955607042E+03 -0.43696930795E+03  0.66330099224E+03  0.00000000000E+00 0. -1.
         -4    1    5    5    0  503  0.33161657989E+02  0.22292193624E+02 -0.69287836941E+02  0.79984009684E+02  0.00000000000E+00 0.  1.
         -3    1    6    6    0  502 -0.11084008632E+02 -0.36815722306E+02 -0.53365565074E+02  0.65773369930E+02  0.00000000000E+00 0.  1.
<mgrwt>
<rscale>  0 0.14400734E+04</rscale>
<asrwt>0</asrwt>
<pdfrwt beam="1">  1        2 0.20941638E+00 0.14400734E+04</pdfrwt>
<pdfrwt beam="2">  1       -2 0.58596528E-01 0.14400734E+04</pdfrwt>
<totfact> 0.40247008E+01</totfact>
</mgrwt>
</event>
<event>
12    1  0.1472088E-007  0.1708398E+04  0.7818608E-02  0.8756589E-01
         -2   -1    0    0    0  501 -0.00000000000E+00  0.00000000000E+00  0.25284715464E+03  0.25284715464E+03  0.00000000000E+00 0.  1.
          2   -1    0    0  501    0  0.00000000000E+00 -0.00000000000E+00 -0.28857595772E+04  0.28857595772E+04  0.00000000000E+00 0. -1.
         23    2    1    2    0    0 -0.11026923746E+03 -0.38999013382E+03 -0.18115831799E+04  0.18590731608E+04  0.10033837877E+03 0.  0.
        254    2    1    2    0    0  0.11026923746E+03  0.38999013382E+03 -0.82132924266E+03  0.12795335710E+04  0.89351710973E+03 0.  0.
        -24    2    4    4    0    0  0.41113203764E+03 -0.91024450146E+01 -0.16380034846E+03  0.44980541852E+03  0.79887129694E+02 0.  0.
         24    2    4    4    0    0 -0.30086280019E+03  0.39909257884E+03 -0.65752889420E+03  0.82972815253E+03  0.79443372092E+02 0.  0.
         13    1    3    3    0    0 -0.10630150596E+03 -0.37664068478E+03 -0.17961267154E+04  0.18382680417E+04  0.00000000000E+00 0. -1.
        -13    1    3    3    0    0 -0.39677314974E+01 -0.13349449036E+02 -0.15456464518E+02  0.20805119039E+02  0.00000000000E+00 0.  1.
          2    1    6    6  502    0 -0.31068405030E+02  0.61653881828E+02 -0.13578210533E+03  0.15232605511E+03  0.00000000000E+00 0. -1.
          1    1    5    5  503    0  0.88692904792E+02  0.27184475703E+02 -0.53547935817E+02  0.10711119694E+03  0.00000000000E+00 0. -1.
         -2    1    5    5    0  503  0.32243913285E+03 -0.36286920718E+02 -0.11025241264E+03  0.34269422158E+03  0.00000000000E+00 0.  1.
         -1    1    6    6    0  502 -0.26979439516E+03  0.33743869701E+03 -0.52174678887E+03  0.67740209742E+03  0.00000000000E+00 0.  1.
<mgrwt>
<rscale>  0 0.17083982E+04</rscale>
<asrwt>0</asrwt>
<pdfrwt beam="1">  1        2 0.44396306E+00 0.17083982E+04</pdfrwt>
<pdfrwt beam="2">  1       -2 0.38899558E-01 0.17083982E+04</pdfrwt>
<totfact> 0.12223081E+01</totfact>
</mgrwt>
</event>
<event>
12    1  0.1472088E-007  0.2857241E+04  0.7818608E-02  0.8285714E-01
         -2   -1    0    0    0  501 -0.00000000000E+00  0.00000000000E+00  0.86237174331E+03  0.86237174331E+03  0.00000000000E+00 0. -1.
          2   -1    0    0  501    0  0.00000000000E+00 -0.00000000000E+00 -0.23666780049E+04  0.23666780049E+04  0.00000000000E+00 0.  1.
         23    2    1    2    0    0 -0.10395309823E+04  0.31229809522E+03  0.88314392519E+02  0.10928798140E+04  0.91826426357E+02 0.  0.
        254    2    1    2    0    0  0.10395309823E+04 -0.31229809522E+03 -0.15926206541E+04  0.21361699342E+04  0.92120935535E+03 0.  0.
        -24    2    4    4    0    0  0.28095927484E+03  0.25668253347E+03 -0.83008205927E+03  0.91674937606E+03  0.81050331788E+02 0.  0.
         24    2    4    4    0    0  0.75857170745E+03 -0.56898062869E+03 -0.76253859484E+03  0.12194205581E+04  0.79695657183E+02 0.  0.
         11    1    3    3    0    0 -0.15366366400E+03  0.49488243943E+02  0.46089297834E+02  0.16788636424E+03  0.00000000000E+00 0.  1.
        -11    1    3    3    0    0 -0.88586731828E+03  0.26280985128E+03  0.42225094685E+02  0.92499344979E+03  0.00000000000E+00 0. -1.
          4    1    6    6  502    0  0.41326599729E+03 -0.33998578194E+03 -0.46980249051E+03  0.71210497578E+03  0.00000000000E+00 0. -1.
          1    1    5    5  503    0  0.12642148171E+03  0.88087927677E+02 -0.25608380625E+03  0.29886583924E+03  0.00000000000E+00 0. -1.
         -2    1    5    5    0  503  0.15453779313E+03  0.16859460579E+03 -0.57399825302E+03  0.61788353682E+03  0.00000000000E+00 0.  1.
         -3    1    6    6    0  502  0.34530571016E+03 -0.22899484675E+03 -0.29273610432E+03  0.50731558233E+03  0.00000000000E+00 0.  1.
<mgrwt>
<rscale>  0 0.28572408E+04</rscale>
<asrwt>0</asrwt>
<pdfrwt beam="1">  1        2 0.36410430E+00 0.28572408E+04</pdfrwt>
<pdfrwt beam="2">  1       -2 0.13267258E+00 0.28572408E+04</pdfrwt>
<totfact> 0.14835628E+00</totfact>
</mgrwt>
</event>
<event>
12    1  0.1472088E-007  0.1061094E+04  0.7818608E-02  0.9243965E-01
         -1   -1    0    0    0  501 -0.00000000000E+00  0.00000000000E+00  0.12917974573E+03  0.12917974573E+03  0.00000000000E+00 0.  1.
          1   -1    0    0  501    0  0.00000000000E+00 -0.00000000000E+00 -0.21789801480E+04  0.21789801480E+04  0.00000000000E+00 0. -1.
         23    2    1    2    0    0 -0.12281142013E+03  0.11200546392E+02 -0.29527854915E+03  0.33485095934E+03  0.98628830631E+02 0.  0.
        254    2    1    2    0    0  0.12281142013E+03 -0.11200546392E+02 -0.17545218531E+04  0.19733089344E+04  0.89464692492E+03 0.  0.
        -24    2    4    4    0    0  0.30057839174E+03  0.30582858653E+03 -0.13736990478E+04  0.14412268590E+04  0.78786364016E+02 0.  0.
         24    2    4    4    0    0 -0.17776697160E+03 -0.31702913293E+03 -0.38082280530E+03  0.53208207539E+03  0.77309498779E+02 0.  0.
         13    1    3    3    0    0 -0.28189906965E+02  0.52803294773E+01 -0.19405336545E+03  0.19616131468E+03  0.00000000000E+00 0. -1.
        -13    1    3    3    0    0 -0.94621513168E+02  0.59202169149E+01 -0.10122518370E+03  0.13868964467E+03  0.00000000000E+00 0.  1.
          4    1    6    6  502    0 -0.98684656253E+02 -0.14566697991E+03 -0.13290740451E+03  0.22050376094E+03  0.00000000000E+00 0. -1.
          1    1    5    5  503    0  0.57982505279E+02  0.26462000468E+02 -0.25895864462E+03  0.26668668510E+03  0.00000000000E+00 0. -1.
         -2    1    5    5    0  503  0.24259588646E+03  0.27936658607E+03 -0.11147404032E+04  0.11745401739E+04  0.00000000000E+00 0.  1.
         -3    1    6    6    0  502 -0.79082315351E+02 -0.17136215302E+03 -0.24791540079E+03  0.31157831445E+03  0.00000000000E+00 0.  1.
<mgrwt>
<rscale>  0 0.10610940E+04</rscale>
<asrwt>0</asrwt>
<pdfrwt beam="1">  1        1 0.33522770E+00 0.10610940E+04</pdfrwt>
<pdfrwt beam="2">  1       -1 0.19873808E-01 0.10610940E+04</pdfrwt>
<totfact> 0.46759186E+01</totfact>
</mgrwt>
</event>
<event>
12    1  0.1472088E-007  0.1871115E+04  0.7818608E-02  0.8669369E-01
          2   -1    0    0  501    0  0.00000000000E+00  0.00000000000E+00  0.24366094153E+04  0.24366094153E+04  0.00000000000E+00 0.  1.
         -2   -1    0    0    0  501 -0.00000000000E+00 -0.00000000000E+00 -0.35921561965E+03  0.35921561965E+03  0.00000000000E+00 0. -1.
         23    2    1    2    0    0 -0.68445515974E+02  0.71277475181E+03  0.79803431652E+03  0.10760159392E+04  0.90658124328E+02 0.  0.
        254    2    1    2    0    0  0.68445515974E+02 -0.71277475181E+03  0.12793594791E+04  0.17198090958E+04  0.89902725966E+03 0.  0.
        -24    2    4    4    0    0  0.23243205618E+03 -0.66876792597E+03  0.13442796644E+04  0.15213926172E+04  0.79198989453E+02 0.  0.
         24    2    4    4    0    0 -0.16398654021E+03 -0.44006825839E+02 -0.64920185339E+02  0.19841647855E+03  0.79537930611E+02 0.  0.
         13    1    3    3    0    0 -0.13013604356E+02  0.42382401211E+03  0.41817568697E+03  0.59553929535E+03  0.00000000000E+00 0.  1.
        -13    1    3    3    0    0 -0.55431911618E+02  0.28895073971E+03  0.37985862954E+03  0.48047664380E+03  0.00000000000E+00 0. -1.
          2    1    6    6  502    0 -0.48463244416E+02  0.10668130779E+02  0.94933088040E+01  0.50523439963E+02  0.00000000000E+00 0. -1.
          3    1    5    5  503    0 -0.18853053827E+01 -0.22680931763E+02  0.69813063938E+02  0.73429169534E+02  0.00000000000E+00 0. -1.
         -2    1    5    5    0  503  0.23431736156E+03 -0.64608699421E+03  0.12744666005E+04  0.14479634477E+04  0.00000000000E+00 0.  1.
         -1    1    6    6    0  502 -0.11552329579E+03 -0.54674956619E+02 -0.74413494143E+02  0.14789303859E+03  0.00000000000E+00 0.  1.
<mgrwt>
<rscale>  0 0.18711153E+04</rscale>
<asrwt>0</asrwt>
<pdfrwt beam="1">  1        2 0.37486298E+00 0.18711153E+04</pdfrwt>
<pdfrwt beam="2">  1       -2 0.55263943E-01 0.18711153E+04</pdfrwt>
<totfact> 0.10951974E+01</totfact>
</mgrwt>
</event>
<event>
12    1  0.1472088E-007  0.1930384E+04  0.7818608E-02  0.8639879E-01
         -1   -1    0    0    0  501 -0.00000000000E+00  0.00000000000E+00  0.39939579487E+03  0.39939579487E+03  0.00000000000E+00 0.  1.
          1   -1    0    0  501    0  0.00000000000E+00 -0.00000000000E+00 -0.23325114507E+04  0.23325114507E+04  0.00000000000E+00 0. -1.
         23    2    1    2    0    0 -0.96385936642E+02 -0.22772068560E+03  0.24644476466E+03  0.36080048580E+03  0.91076940490E+02 0.  0.
        254    2    1    2    0    0  0.96385936642E+02  0.22772068560E+03 -0.21795604205E+04  0.23711067598E+04  0.90028699882E+03 0.  0.
        -24    2    4    4    0    0 -0.34850293699E+03  0.12354926527E+03 -0.15064917920E+04  0.15532624012E+04  0.79924023675E+02 0.  0.
         24    2    4    4    0    0  0.44488887363E+03  0.10417142033E+03 -0.67306862855E+03  0.81784435864E+03  0.84084609309E+02 0.  0.
         11    1    3    3    0    0 -0.10273302231E+03 -0.23331549534E+03  0.24039005975E+03  0.35039631143E+03  0.00000000000E+00 0. -1.
        -11    1    3    3    0    0  0.63470856730E+01  0.55948097414E+01  0.60547049143E+01  0.10404174363E+02  0.00000000000E+00 0.  1.
          4    1    6    6  502    0  0.41012895712E+03  0.10099469481E+03 -0.57292906521E+03  0.71179590025E+03  0.00000000000E+00 0. -1.
          1    1    5    5  503    0 -0.19333063996E+03  0.87944825419E+02 -0.10013111094E+04  0.10235892568E+04  0.00000000000E+00 0. -1.
         -2    1    5    5    0  503 -0.15517229703E+03  0.35604439849E+02 -0.50518068252E+03  0.52967314440E+03  0.00000000000E+00 0.  1.
         -3    1    6    6    0  502  0.34759916512E+02  0.31767255211E+01 -0.10013956334E+03  0.10604845839E+03  0.00000000000E+00 0.  1.
<mgrwt>
<rscale>  0 0.19303837E+04</rscale>
<asrwt>0</asrwt>
<pdfrwt beam="1">  1        1 0.35884791E+00 0.19303837E+04</pdfrwt>
<pdfrwt beam="2">  1       -1 0.61445508E-01 0.19303837E+04</pdfrwt>
<totfact> 0.44336644E+00</totfact>
</mgrwt>
</event>
<event>
12    1  0.1472088E-007  0.1687900E+04  0.7818608E-02  0.8768296E-01
         -2   -1    0    0    0  501 -0.00000000000E+00  0.00000000000E+00  0.68339657168E+03  0.68339657168E+03  0.00000000000E+00 0.  1.
          2   -1    0    0  501    0  0.00000000000E+00 -0.00000000000E+00 -0.10422230052E+04  0.10422230052E+04  0.00000000000E+00 0. -1.
         23    2    1    2    0    0 -0.23463543880E+03 -0.40027802293E+03 -0.50572560183E+03  0.69250901948E+03  0.92380046165E+02 0.  0.
        254    2    1    2    0    0  0.23463543880E+03  0.40027802293E+03  0.14689916835E+03  0.10331105574E+04  0.91129675369E+03 0.  0.
        -24    2    4    4    0    0  0.34971163737E+02  0.28988553011E+03  0.51222727335E+03  0.59525317880E+03  0.81810539979E+02 0.  0.
         24    2    4    4    0    0  0.19966427506E+03  0.11039249282E+03 -0.36532810500E+03  0.43785737856E+03  0.78753631361E+02 0.  0.
         11    1    3    3    0    0 -0.15632616852E+03 -0.17690086385E+03 -0.26494248408E+03  0.35486096780E+03  0.00000000000E+00 0. -1.
        -11    1    3    3    0    0 -0.78309270280E+02 -0.22337715908E+03 -0.24078311775E+03  0.33764805168E+03  0.00000000000E+00 0.  1.
          2    1    6    6  502    0  0.67574318014E+02  0.49204121446E+02 -0.71717658882E+02  0.11013971408E+03  0.00000000000E+00 0. -1.
          3    1    5    5  503    0  0.10802805134E+02  0.27332368964E+02  0.11343486960E+03  0.11718032528E+03  0.00000000000E+00 0. -1.
         -4    1    5    5    0  503  0.24168358604E+02  0.26255316114E+03  0.39879240375E+03  0.47807285352E+03  0.00000000000E+00 0.  1.
         -1    1    6    6    0  502  0.13208995705E+03  0.61188371372E+02 -0.29361044611E+03  0.32771766448E+03  0.00000000000E+00 0.  1.
<mgrwt>
<rscale>  0 0.16879000E+04</rscale>
<asrwt>0</asrwt>
<pdfrwt beam="1">  1        2 0.16034200E+00 0.16879000E+04</pdfrwt>
<pdfrwt beam="2">  1       -2 0.10513793E+00 0.16879000E+04</pdfrwt>
<totfact> 0.16525663E+01</totfact>
</mgrwt>
</event>
<event>
12    1  0.1472088E-007  0.1657567E+04  0.7818608E-02  0.8785943E-01
          1   -1    0    0  501    0  0.00000000000E+00  0.00000000000E+00  0.62422407446E+03  0.62422407446E+03  0.00000000000E+00 0. -1.
         -1   -1    0    0    0  501 -0.00000000000E+00 -0.00000000000E+00 -0.11003769344E+04  0.11003769344E+04  0.00000000000E+00 0.  1.
         23    2    1    2    0    0 -0.36884520232E+03  0.30821645542E+03  0.17004889262E+03  0.51824825429E+03  0.92846435174E+02 0.  0.
        254    2    1    2    0    0  0.36884520232E+03 -0.30821645542E+03 -0.64620175260E+03  0.12063527546E+04  0.89814592178E+03 0.  0.
        -24    2    4    4    0    0  0.46728066617E+03 -0.22734757516E+02  0.15102456564E+02  0.47493367305E+03  0.80410319149E+02 0.  0.
         24    2    4    4    0    0 -0.98435463849E+02 -0.28548169790E+03 -0.66130420916E+03  0.73141908155E+03  0.80382059113E+02 0.  0.
         11    1    3    3    0    0 -0.45882885111E+02  0.25510670292E+02  0.50143577633E+02  0.72597602045E+02  0.00000000000E+00 0.  1.
        -11    1    3    3    0    0 -0.32296231721E+03  0.28270578512E+03  0.11990531499E+03  0.44565065224E+03  0.00000000000E+00 0. -1.
          4    1    6    6  502    0 -0.17719584618E+02 -0.23171985204E+02 -0.24875443596E+02  0.38336826569E+02  0.00000000000E+00 0. -1.
          3    1    5    5  503    0  0.32447540973E+02 -0.12840960766E+02 -0.16977008506E+02  0.38806597460E+02  0.00000000000E+00 0. -1.
         -4    1    5    5    0  503  0.43483312520E+03 -0.98937967498E+01  0.32079465070E+02  0.43612707559E+03  0.00000000000E+00 0.  1.
         -3    1    6    6    0  502 -0.80715879231E+02 -0.26230971270E+03 -0.63642876557E+03  0.69308225498E+03  0.00000000000E+00 0.  1.
<mgrwt>
<rscale>  0 0.16575666E+04</rscale>
<asrwt>0</asrwt>
<pdfrwt beam="1">  1        1 0.96034475E-01 0.16575666E+04</pdfrwt>
<pdfrwt beam="2">  1       -1 0.16928876E+00 0.16575666E+04</pdfrwt>
<totfact> 0.76886975E+00</totfact>
</mgrwt>
</event>
<event>
12    1  0.1472088E-007  0.1348130E+04  0.7818608E-02  0.8992245E-01
          1   -1    0    0  501    0  0.00000000000E+00  0.00000000000E+00  0.10740274459E+04  0.10740274459E+04  0.00000000000E+00 0. -1.
         -1   -1    0    0    0  501 -0.00000000000E+00 -0.00000000000E+00 -0.42304672597E+03  0.42304672597E+03  0.00000000000E+00 0.  1.
         23    2    1    2    0    0  0.22843615763E+03 -0.90681689766E+02  0.49542584536E+03  0.56024403107E+03  0.89556457756E+02 0.  0.
        254    2    1    2    0    0 -0.22843615763E+03  0.90681689766E+02  0.15555487459E+03  0.93683014082E+03  0.89053194596E+03 0.  0.
        -24    2    4    4    0    0  0.32917447991E+03  0.12148096142E+03  0.66769758032E+02  0.36597878198E+03  0.79804799733E+02 0.  0.
         24    2    4    4    0    0 -0.55761063754E+03 -0.30799271653E+02  0.88785116554E+02  0.57085135884E+03  0.78168143996E+02 0.  0.
         13    1    3    3    0    0  0.16263580458E+03 -0.20220178387E+02  0.28446710862E+03  0.32829985750E+03  0.00000000000E+00 0. -1.
        -13    1    3    3    0    0  0.65800353050E+02 -0.70461511379E+02  0.21095873673E+03  0.23194417357E+03  0.00000000000E+00 0.  1.
          4    1    6    6  502    0 -0.45381610211E+03  0.50257207445E+01  0.78298784437E+02  0.46054859901E+03  0.00000000000E+00 0. -1.
          1    1    5    5  503    0  0.28593476400E+03  0.75630706340E+02  0.65545484915E+02  0.30294373008E+03  0.00000000000E+00 0. -1.
         -2    1    5    5    0  503  0.43239715915E+02  0.45850255080E+02  0.12242731165E+01  0.63035051900E+02  0.00000000000E+00 0.  1.
         -3    1    6    6    0  502 -0.10379453543E+03 -0.35824992398E+02  0.10486332117E+02  0.11030275983E+03  0.00000000000E+00 0.  1.
<mgrwt>
<rscale>  0 0.13481303E+04</rscale>
<asrwt>0</asrwt>
<pdfrwt beam="1">  1        1 0.16523499E+00 0.13481303E+04</pdfrwt>
<pdfrwt beam="2">  1       -1 0.65084112E-01 0.13481303E+04</pdfrwt>
<totfact> 0.31086165E+01</totfact>
</mgrwt>
</event>
<event>
12    1  0.1472088E-007  0.2110403E+04  0.7818608E-02  0.8556675E-01
         -2   -1    0    0    0  501 -0.00000000000E+00  0.00000000000E+00  0.49128921567E+03  0.49128921567E+03  0.00000000000E+00 0.  1.
          2   -1    0    0  501    0  0.00000000000E+00 -0.00000000000E+00 -0.22663842465E+04  0.22663842465E+04  0.00000000000E+00 0. -1.
         23    2    1    2    0    0  0.41377172730E+03  0.21101724614E+03 -0.16640441316E+04  0.17306435279E+04  0.10172919060E+03 0.  0.
        254    2    1    2    0    0 -0.41377172730E+03 -0.21101724614E+03 -0.11105089915E+03  0.10270299342E+04  0.90924301651E+03 0.  0.
        -24    2    4    4    0    0 -0.46656691823E+03 -0.11280656127E+03 -0.44925384769E+03  0.66248941653E+03  0.81567137400E+02 0.  0.
         24    2    4    4    0    0  0.52795190933E+02 -0.98210684875E+02  0.33820294854E+03  0.36454051767E+03  0.77947955827E+02 0.  0.
         11    1    3    3    0    0  0.14822280151E+03  0.12927360135E+03 -0.63610077918E+03  0.66581218386E+03  0.00000000000E+00 0. -1.
        -11    1    3    3    0    0  0.26554892578E+03  0.81743644791E+02 -0.10279433525E+04  0.10648313441E+04  0.00000000000E+00 0.  1.
          2    1    6    6  502    0 -0.14423806498E+02 -0.33854010655E+01  0.80296447568E+02  0.81651862356E+02  0.00000000000E+00 0. -1.
          1    1    5    5  503    0 -0.32122312520E+01  0.44744328403E+01 -0.17654417400E+02  0.18493713326E+02  0.00000000000E+00 0. -1.
         -2    1    5    5    0  503 -0.46335468698E+03 -0.11728099411E+03 -0.43159943029E+03  0.64399570321E+03  0.00000000000E+00 0.  1.
         -1    1    6    6    0  502  0.67218997431E+02 -0.94825283809E+02  0.25790650097E+03  0.28288865532E+03  0.00000000000E+00 0.  1.
<mgrwt>
<rscale>  0 0.21104029E+04</rscale>
<asrwt>0</asrwt>
<pdfrwt beam="1">  1        2 0.34867450E+00 0.21104029E+04</pdfrwt>
<pdfrwt beam="2">  1       -2 0.75582957E-01 0.21104029E+04</pdfrwt>
<totfact> 0.68458016E+00</totfact>
</mgrwt>
</event>
<event>
12    1  0.1472088E-007  0.1485223E+04  0.7818608E-02  0.8894340E-01
         -2   -1    0    0    0  501 -0.00000000000E+00  0.00000000000E+00  0.16141942722E+03  0.16141942722E+03  0.00000000000E+00 0.  1.
          2   -1    0    0  501    0  0.00000000000E+00 -0.00000000000E+00 -0.34163892977E+04  0.34163892977E+04  0.00000000000E+00 0. -1.
         23    2    1    2    0    0  0.68381841338E+02  0.38532009425E+03 -0.17894379160E+04  0.18339523226E+04  0.90251953722E+02 0.  0.
        254    2    1    2    0    0 -0.68381841338E+02 -0.38532009425E+03 -0.14655319545E+04  0.17438564023E+04  0.86029273565E+03 0.  0.
        -24    2    4    4    0    0  0.67288514611E+02  0.63306320056E+02 -0.11860126919E+04  0.11924779999E+04  0.82717836936E+02 0.  0.
         24    2    4    4    0    0 -0.13567035595E+03 -0.44862641430E+03 -0.27951926261E+03  0.55137840243E+03  0.78835394346E+02 0.  0.
         11    1    3    3    0    0 -0.82349804587E+01  0.74765183151E+02 -0.22795183095E+03  0.24004100639E+03  0.00000000000E+00 0.  1.
        -11    1    3    3    0    0  0.76616821797E+02  0.31055491110E+03 -0.15614860851E+04  0.15939113162E+04  0.00000000000E+00 0. -1.
          2    1    6    6  502    0 -0.11112827703E+03 -0.24171553174E+03 -0.14007052788E+03  0.30065868525E+03  0.00000000000E+00 0. -1.
          3    1    5    5  503    0  0.77302638074E+02  0.65518580019E+02 -0.11614250111E+04  0.11658372264E+04  0.00000000000E+00 0. -1.
         -4    1    5    5    0  503 -0.10014123463E+02 -0.22122599634E+01 -0.24587680828E+02  0.26640773476E+02  0.00000000000E+00 0.  1.
         -1    1    6    6    0  502 -0.24542078917E+02 -0.20691088257E+03 -0.13944873473E+03  0.25071971717E+03  0.00000000000E+00 0.  1.
<mgrwt>
<rscale>  0 0.14852227E+04</rscale>
<asrwt>0</asrwt>
<pdfrwt beam="1">  1        2 0.52559832E+00 0.14852227E+04</pdfrwt>
<pdfrwt beam="2">  1       -2 0.24833759E-01 0.14852227E+04</pdfrwt>
<totfact> 0.13223620E+01</totfact>
</mgrwt>
</event>
<event>
12    1  0.1617206E-007  0.2362608E+04  0.7818608E-02  0.8453637E-01
          1   -1    0    0  501    0  0.00000000000E+00  0.00000000000E+00  0.20064016993E+04  0.20064016993E+04  0.00000000000E+00 0. -1.
         -1   -1    0    0    0  501 -0.00000000000E+00 -0.00000000000E+00 -0.69551361757E+03  0.69551361757E+03  0.00000000000E+00 0.  1.
         23    2    1    2    0    0  0.58016406000E+03  0.18439498040E+03 -0.36231927053E+03  0.71431388862E+03  0.91527221968E+02 0.  0.
        254    2    1    2    0    0 -0.58016406000E+03 -0.18439498040E+03  0.16732073523E+04  0.19876014283E+04  0.88337124055E+03 0.  0.
        -24    2    4    4    0    0 -0.23373524580E+03  0.25631045367E+03  0.11942699512E+04  0.12460794489E+04  0.78141299805E+02 0.  0.
         24    2    4    4    0    0 -0.34642881421E+03 -0.44070543407E+03  0.47893740105E+03  0.74152197939E+03  0.78991194863E+02 0.  0.
         11    1    3    3    0    0  0.22697463723E+03  0.64365506868E+02 -0.19229710927E+03  0.30436586972E+03  0.00000000000E+00 0.  1.
        -11    1    3    3    0    0  0.35318942278E+03  0.12002947353E+03 -0.17002216126E+03  0.40994801890E+03  0.00000000000E+00 0. -1.
          4    1    6    6  502    0 -0.31640705623E+03 -0.37516991309E+03  0.38891606797E+03  0.62619613289E+03  0.00000000000E+00 0. -1.
          1    1    5    5  503    0 -0.23217381420E+03  0.24509570506E+03  0.11824923815E+04  0.12297417684E+04  0.00000000000E+00 0. -1.
         -2    1    5    5    0  503 -0.15614315987E+01  0.11214748605E+02  0.11777569729E+02  0.16337680485E+02  0.00000000000E+00 0.  1.
         -3    1    6    6    0  502 -0.30021757976E+02 -0.65535520976E+02  0.90021333080E+02  0.11532584650E+03  0.00000000000E+00 0.  1.
<mgrwt>
<rscale>  0 0.23626085E+04</rscale>
<asrwt>0</asrwt>
<pdfrwt beam="1">  1        1 0.30867718E+00 0.23626085E+04</pdfrwt>
<pdfrwt beam="2">  1       -1 0.10700210E+00 0.23626085E+04</pdfrwt>
<totfact> 0.21600948E+00</totfact>
</mgrwt>
</event>
<event>
12    1  0.1472088E-007  0.1221217E+04  0.7818608E-02  0.9094485E-01
         -2   -1    0    0    0  501 -0.00000000000E+00  0.00000000000E+00  0.14211541050E+03  0.14211541050E+03  0.00000000000E+00 0. -1.
          2   -1    0    0  501    0  0.00000000000E+00 -0.00000000000E+00 -0.26235207440E+04  0.26235207440E+04  0.00000000000E+00 0.  1.
         23    2    1    2    0    0 -0.96652228667E+02  0.17715027679E+03 -0.17476578752E+03  0.28190379572E+03  0.90569286623E+02 0.  0.
        254    2    1    2    0    0  0.96652228667E+02 -0.17715027679E+03 -0.23066395460E+04  0.24837323588E+04  0.89867489179E+03 0.  0.
        -24    2    4    4    0    0 -0.16136545732E+03  0.94841072878E+02 -0.19440981664E+04  0.19547380102E+04  0.80307959099E+02 0.  0.
         24    2    4    4    0    0  0.25801768599E+03 -0.27199134966E+03 -0.36254137961E+03  0.52899434854E+03  0.88579615522E+02 0.  0.
         13    1    3    3    0    0 -0.26808751357E+02  0.16885440349E+02  0.39151096688E+01  0.31924212266E+02  0.00000000000E+00 0.  1.
        -13    1    3    3    0    0 -0.69843477310E+02  0.16026483644E+03 -0.17868089719E+03  0.24997958345E+03  0.00000000000E+00 0. -1.
          2    1    6    6  502    0 -0.56339522164E+01 -0.18782982309E+02 -0.20668949937E+02  0.28491179924E+02  0.00000000000E+00 0. -1.
          3    1    5    5  503    0  0.89603092128E+01  0.87988693542E+01 -0.97221854763E+02  0.98029568430E+02  0.00000000000E+00 0. -1.
         -4    1    5    5    0  503 -0.17032576653E+03  0.86042203523E+02 -0.18468763116E+04  0.18567084418E+04  0.00000000000E+00 0.  1.
         -1    1    6    6    0  502  0.26365163820E+03 -0.25320836736E+03 -0.34187242968E+03  0.50050316862E+03  0.00000000000E+00 0.  1.
<mgrwt>
<rscale>  0 0.12212170E+04</rscale>
<asrwt>0</asrwt>
<pdfrwt beam="1">  1        2 0.40361858E+00 0.12212170E+04</pdfrwt>
<pdfrwt beam="2">  1       -2 0.21863909E-01 0.12212170E+04</pdfrwt>
<totfact> 0.53435280E+01</totfact>
</mgrwt>
</event>
<event>
12    1  0.1472088E-007  0.1491534E+04  0.7818608E-02  0.8890102E-01
          2   -1    0    0  501    0  0.00000000000E+00  0.00000000000E+00  0.80860290421E+03  0.80860290421E+03  0.00000000000E+00 0. -1.
         -2   -1    0    0    0  501 -0.00000000000E+00 -0.00000000000E+00 -0.68781424249E+03  0.68781424249E+03  0.00000000000E+00 0.  1.
         23    2    1    2    0    0  0.27478363584E+03 -0.22619104129E+03 -0.26696918063E+03  0.45448823525E+03  0.92836301564E+02 0.  0.
        254    2    1    2    0    0 -0.27478363584E+03  0.22619104129E+03  0.38775784235E+03  0.10419289114E+04  0.89921703638E+03 0.  0.
        -24    2    4    4    0    0  0.13906565515E+03  0.43520686566E+03  0.59838192521E+02  0.46766431194E+03  0.79906364080E+02 0.  0.
         24    2    4    4    0    0 -0.41384929098E+03 -0.20901582437E+03  0.32791964983E+03  0.57426459951E+03  0.85379640528E+02 0.  0.
         11    1    3    3    0    0  0.13160310836E+02 -0.40389690771E+02 -0.10646629122E+02  0.43793511089E+02  0.00000000000E+00 0. -1.
        -11    1    3    3    0    0  0.26162332500E+03 -0.18580135052E+03 -0.25632255151E+03  0.41069472416E+03  0.00000000000E+00 0.  1.
          2    1    6    6  502    0 -0.23100651655E+03 -0.14070662828E+03  0.14565196322E+03  0.30720817098E+03  0.00000000000E+00 0. -1.
          3    1    5    5  503    0  0.45744791452E+02  0.67149730913E+02 -0.90814094590E+01  0.81756616273E+02  0.00000000000E+00 0. -1.
         -4    1    5    5    0  503  0.93320863693E+02  0.36805713475E+03  0.68919601980E+02  0.38590769567E+03  0.00000000000E+00 0.  1.
         -1    1    6    6    0  502 -0.18284277443E+03 -0.68309196094E+02  0.18226768660E+03  0.26705642852E+03  0.00000000000E+00 0.  1.
<mgrwt>
<rscale>  0 0.14915342E+04</rscale>
<asrwt>0</asrwt>
<pdfrwt beam="1">  1        2 0.12440045E+00 0.14915342E+04</pdfrwt>
<pdfrwt beam="2">  1       -2 0.10581758E+00 0.14915342E+04</pdfrwt>
<totfact> 0.23690527E+01</totfact>
</mgrwt>
</event>
<event>
12    1  0.1472088E-007  0.1586389E+04  0.7818608E-02  0.8828954E-01
          2   -1    0    0  501    0  0.00000000000E+00  0.00000000000E+00  0.29344152653E+04  0.29344152653E+04  0.00000000000E+00 0. -1.
         -2   -1    0    0    0  501 -0.00000000000E+00 -0.00000000000E+00 -0.21440635457E+03  0.21440635457E+03  0.00000000000E+00 0.  1.
         23    2    1    2    0    0 -0.52898174460E+03  0.77905379748E+02  0.10537245065E+04  0.11851719809E+04  0.91686172785E+02 0.  0.
        254    2    1    2    0    0  0.52898174460E+03 -0.77905379748E+02  0.16662844042E+04  0.19636496390E+04  0.89080034502E+03 0.  0.
        -24    2    4    4    0    0  0.45190736477E+03  0.36007604523E+03  0.85732852797E+03  0.10370854479E+04  0.81602675651E+02 0.  0.
         24    2    4    4    0    0  0.77074379830E+02 -0.43798142497E+03  0.80895587621E+03  0.92656419108E+03  0.79645476254E+02 0.  0.
         11    1    3    3    0    0 -0.40884870866E+03  0.56491231979E+02  0.72099848576E+03  0.83077514547E+03  0.00000000000E+00 0.  1.
        -11    1    3    3    0    0 -0.12013303593E+03  0.21414147769E+02  0.33272602075E+03  0.35439683539E+03  0.00000000000E+00 0. -1.
          4    1    6    6  502    0  0.86065579770E+02 -0.40280671530E+03  0.70571318570E+03  0.81712400184E+03  0.00000000000E+00 0. -1.
          1    1    5    5  503    0  0.28811365722E+03  0.27056757020E+03  0.54499729908E+03  0.67322978657E+03  0.00000000000E+00 0. -1.
         -2    1    5    5    0  503  0.16379370755E+03  0.89508475027E+02  0.31233122888E+03  0.36385566131E+03  0.00000000000E+00 0.  1.
         -3    1    6    6    0  502 -0.89911999403E+01 -0.35174709674E+02  0.10324269051E+03  0.10944018924E+03  0.00000000000E+00 0.  1.
<mgrwt>
<rscale>  0 0.15863887E+04</rscale>
<asrwt>0</asrwt>
<pdfrwt beam="1">  1        2 0.45144847E+00 0.15863887E+04</pdfrwt>
<pdfrwt beam="2">  1       -2 0.32985595E-01 0.15863887E+04</pdfrwt>
<totfact> 0.15838418E+01</totfact>
</mgrwt>
</event>
<event>
12    1  0.1472088E-007  0.1625137E+04  0.7818608E-02  0.8805253E-01
         -2   -1    0    0    0  501 -0.00000000000E+00  0.00000000000E+00  0.45284496719E+03  0.45284496719E+03  0.00000000000E+00 0.  1.
          2   -1    0    0  501    0  0.00000000000E+00 -0.00000000000E+00 -0.14580430855E+04  0.14580430855E+04  0.00000000000E+00 0. -1.
         23    2    1    2    0    0 -0.13866192065E+03 -0.36632834147E+03 -0.81630799563E+03  0.91005053194E+03  0.91704116340E+02 0.  0.
        254    2    1    2    0    0  0.13866192065E+03  0.36632834147E+03 -0.18889012269E+03  0.10008375208E+04  0.90142813497E+03 0.  0.
        -24    2    4    4    0    0 -0.37724353087E+03  0.18344550903E+03 -0.46516811752E+02  0.42962248934E+03  0.80291551287E+02 0.  0.
         24    2    4    4    0    0  0.51590545152E+03  0.18288283244E+03 -0.14237331094E+03  0.57121503142E+03  0.80074260167E+02 0.  0.
         13    1    3    3    0    0 -0.96667459993E+02 -0.29422678736E+03 -0.55272863084E+03  0.63357946587E+03  0.00000000000E+00 0. -1.
        -13    1    3    3    0    0 -0.41994460658E+02 -0.72101554108E+02 -0.26357936480E+03  0.27647106608E+03  0.00000000000E+00 0.  1.
          2    1    6    6  502    0  0.39036927657E+03  0.12004686876E+03 -0.73980741748E+02  0.41505731284E+03  0.00000000000E+00 0. -1.
          3    1    5    5  503    0 -0.19829296206E+03  0.13069583923E+03 -0.51428480108E+02  0.24299462907E+03  0.00000000000E+00 0. -1.
         -4    1    5    5    0  503 -0.17895056881E+03  0.52749669803E+02  0.49116683564E+01  0.18662786027E+03  0.00000000000E+00 0.  1.
         -1    1    6    6    0  502  0.12553617495E+03  0.62835963673E+02 -0.68392569189E+02  0.15615771858E+03  0.00000000000E+00 0.  1.
<mgrwt>
<rscale>  0 0.16251369E+04</rscale>
<asrwt>0</asrwt>
<pdfrwt beam="1">  1        2 0.22431433E+00 0.16251369E+04</pdfrwt>
<pdfrwt beam="2">  1       -2 0.69668455E-01 0.16251369E+04</pdfrwt>
<totfact> 0.24102662E+01</totfact>
</mgrwt>
</event>
<event>
12    1  0.1472088E-007  0.3198582E+04  0.7818608E-02  0.8189192E-01
         -2   -1    0    0    0  501 -0.00000000000E+00  0.00000000000E+00  0.22654745146E+04  0.22654745146E+04  0.00000000000E+00 0.  1.
          2   -1    0    0  501    0  0.00000000000E+00 -0.00000000000E+00 -0.11290047068E+04  0.11290047068E+04  0.00000000000E+00 0. -1.
         23    2    1    2    0    0  0.43210720414E+03 -0.62404327252E+03 -0.81624332891E+03  0.11182335468E+04  0.89702014174E+02 0.  0.
        254    2    1    2    0    0 -0.43210720414E+03  0.62404327252E+03  0.19527131368E+04  0.22762456746E+04  0.88997704181E+03 0.  0.
        -24    2    4    4    0    0  0.21838918170E+03  0.33639903449E+03  0.42854665114E+03  0.59231761320E+03  0.79559899576E+02 0.  0.
         24    2    4    4    0    0 -0.65049638585E+03  0.28764423803E+03  0.15241664856E+04  0.16839280614E+04  0.81519841068E+02 0.  0.
         11    1    3    3    0    0  0.14800838377E+03 -0.18119110913E+03 -0.19874971209E+03  0.30698232482E+03  0.00000000000E+00 0.  1.
        -11    1    3    3    0    0  0.28409882038E+03 -0.44285216339E+03 -0.61749361681E+03  0.81125122198E+03  0.00000000000E+00 0. -1.
          2    1    6    6  502    0 -0.52228531467E+02  0.43588911584E+01  0.85560762831E+02  0.10033675083E+03  0.00000000000E+00 0. -1.
          1    1    5    5  503    0  0.31529447635E+02  0.10173093806E+03  0.85225097864E+02  0.13640603774E+03  0.00000000000E+00 0. -1.
         -2    1    5    5    0  503  0.18685973407E+03  0.23466809643E+03  0.34332155327E+03  0.45591157546E+03  0.00000000000E+00 0.  1.
         -1    1    6    6    0  502 -0.59826785438E+03  0.28328534688E+03  0.14386057228E+04  0.15835913106E+04  0.00000000000E+00 0.  1.
<mgrwt>
<rscale>  0 0.31985818E+04</rscale>
<asrwt>0</asrwt>
<pdfrwt beam="1">  1        2 0.17369303E+00 0.31985818E+04</pdfrwt>
<pdfrwt beam="2">  1       -2 0.34853454E+00 0.31985818E+04</pdfrwt>
<totfact> 0.27975065E-01</totfact>
</mgrwt>
</event>
<event>
12    1  0.1472088E-007  0.1506796E+04  0.7818608E-02  0.8879946E-01
          1   -1    0    0  501    0  0.00000000000E+00  0.00000000000E+00  0.10846765762E+04  0.10846765762E+04  0.00000000000E+00 0. -1.
         -1   -1    0    0    0  501 -0.00000000000E+00 -0.00000000000E+00 -0.52329720232E+03  0.52329720232E+03  0.00000000000E+00 0.  1.
         23    2    1    2    0    0  0.38807396535E+03  0.12796022410E+03  0.43171670488E+03  0.60149212002E+03  0.91859869582E+02 0.  0.
        254    2    1    2    0    0 -0.38807396535E+03 -0.12796022410E+03  0.12966266901E+03  0.10064816585E+04  0.91061391360E+03 0.  0.
        -24    2    4    4    0    0 -0.48949564671E+03 -0.18550721224E+03 -0.26030157159E+03  0.58992845121E+03  0.78992122643E+02 0.  0.
         24    2    4    4    0    0  0.10142168136E+03  0.57546988140E+02  0.38996424061E+03  0.41655320730E+03  0.88580202432E+02 0.  0.
         11    1    3    3    0    0  0.32686285311E+03  0.13010731400E+03  0.39937484882E+03  0.53222881148E+03  0.00000000000E+00 0. -1.
        -11    1    3    3    0    0  0.61211112238E+02 -0.21470898931E+01  0.32341856056E+02  0.69263308537E+02  0.00000000000E+00 0.  1.
          2    1    6    6  502    0  0.10718027735E+03  0.20877304765E+02  0.28336204617E+03  0.30367338197E+03  0.00000000000E+00 0. -1.
          3    1    5    5  503    0 -0.39866918045E+03 -0.12177430892E+03 -0.18651129595E+03  0.45667555361E+03  0.00000000000E+00 0. -1.
         -4    1    5    5    0  503 -0.90826466257E+02 -0.63732903325E+02 -0.73790275647E+02  0.13325289760E+03  0.00000000000E+00 0.  1.
         -1    1    6    6    0  502 -0.57585959967E+01  0.36669683375E+02  0.10660219443E+03  0.11287982532E+03  0.00000000000E+00 0.  1.
<mgrwt>
<rscale>  0 0.15067956E+04</rscale>
<asrwt>0</asrwt>
<pdfrwt beam="1">  1        1 0.16687332E+00 0.15067956E+04</pdfrwt>
<pdfrwt beam="2">  1       -1 0.80507262E-01 0.15067956E+04</pdfrwt>
<totfact> 0.19378332E+01</totfact>
</mgrwt>
</event>
<event>
12    1  0.1472088E-007  0.1928769E+04  0.7818608E-02  0.8640667E-01
         -2   -1    0    0    0  501 -0.00000000000E+00  0.00000000000E+00  0.40343014891E+03  0.40343014891E+03  0.00000000000E+00 0.  1.
          2   -1    0    0  501    0  0.00000000000E+00 -0.00000000000E+00 -0.23053256364E+04  0.23053256364E+04  0.00000000000E+00 0. -1.
         23    2    1    2    0    0  0.42562219029E+02 -0.11829818648E+03 -0.17785899430E+04  0.17853727144E+04  0.91474263429E+02 0.  0.
        254    2    1    2    0    0 -0.42562219029E+02  0.11829818648E+03 -0.12330554452E+03  0.92338307086E+03  0.90643589670E+03 0.  0.
        -24    2    4    4    0    0  0.34833809337E+03  0.93468338820E+02 -0.30989612831E+03  0.48227524135E+03  0.80486274728E+02 0.  0.
         24    2    4    4    0    0 -0.39090031240E+03  0.24829847657E+02  0.18659058379E+03  0.44110782951E+03  0.79627229818E+02 0.  0.
         13    1    3    3    0    0  0.36866639312E+02 -0.13034273466E+03 -0.13973579699E+04  0.14039080004E+04  0.00000000000E+00 0. -1.
        -13    1    3    3    0    0  0.56955797173E+01  0.12044548185E+02 -0.38123197310E+03  0.38146471407E+03  0.00000000000E+00 0.  1.
          4    1    6    6  502    0 -0.17733242717E+03  0.50981212003E+02  0.88433130678E+02  0.20461254191E+03  0.00000000000E+00 0. -1.
          3    1    5    5  503    0  0.32232582290E+03  0.68084445606E+02 -0.25573279871E+03  0.41704758982E+03  0.00000000000E+00 0. -1.
         -4    1    5    5    0  503  0.26012270470E+02  0.25383893214E+02 -0.54163329604E+02  0.65227651525E+02  0.00000000000E+00 0.  1.
         -3    1    6    6    0  502 -0.21356788522E+03 -0.26151364347E+02  0.98157453110E+02  0.23649528760E+03  0.00000000000E+00 0.  1.
<mgrwt>
<rscale>  0 0.19287694E+04</rscale>
<asrwt>0</asrwt>
<pdfrwt beam="1">  1        2 0.35466548E+00 0.19287694E+04</pdfrwt>
<pdfrwt beam="2">  1       -2 0.62066177E-01 0.19287694E+04</pdfrwt>
<totfact> 0.10142068E+01</totfact>
</mgrwt>
</event>
<event>
12    1  0.1472088E-007  0.1297379E+04  0.7818608E-02  0.9031647E-01
          2   -1    0    0  501    0  0.00000000000E+00  0.00000000000E+00  0.12162775063E+04  0.12162775063E+04  0.00000000000E+00 0. -1.
         -2   -1    0    0    0  501 -0.00000000000E+00 -0.00000000000E+00 -0.34597187631E+03  0.34597187631E+03  0.00000000000E+00 0.  1.
         23    2    1    2    0    0 -0.74701149922E+02 -0.26990123961E+03  0.59034781733E+03  0.65981885437E+03  0.91779268962E+02 0.  0.
        254    2    1    2    0    0  0.74701149922E+02  0.26990123961E+03  0.27995781263E+03  0.90243052822E+03  0.81091154910E+03 0.  0.
        -24    2    4    4    0    0 -0.15185840834E+03  0.41788518075E+03 -0.65700503556E+02  0.45647519349E+03  0.79774968715E+02 0.  0.
         24    2    4    4    0    0  0.22655955826E+03 -0.14798394114E+03  0.34565831619E+03  0.44595533472E+03  0.78536671329E+02 0.  0.
         13    1    3    3    0    0  0.45039871946E+01 -0.19112999046E+02  0.87041529702E+01  0.21479173916E+02  0.00000000000E+00 0.  1.
        -13    1    3    3    0    0 -0.79205137116E+02 -0.25078824057E+03  0.58164366436E+03  0.63833968045E+03  0.00000000000E+00 0. -1.
          2    1    6    6  502    0  0.14640011568E+03 -0.57341365049E+02  0.15981831163E+03  0.22419393112E+03  0.00000000000E+00 0. -1.
          1    1    5    5  503    0 -0.15889762936E+03  0.39635797662E+03 -0.52440710826E+02  0.43023032250E+03  0.00000000000E+00 0. -1.
         -2    1    5    5    0  503  0.70392210207E+01  0.21527204133E+02 -0.13259792730E+02  0.26244870996E+02  0.00000000000E+00 0.  1.
         -1    1    6    6    0  502  0.80159442575E+02 -0.90642576091E+02  0.18584000456E+03  0.22176140360E+03  0.00000000000E+00 0.  1.
<mgrwt>
<rscale>  0 0.12973786E+04</rscale>
<asrwt>0</asrwt>
<pdfrwt beam="1">  1        2 0.18711961E+00 0.12973786E+04</pdfrwt>
<pdfrwt beam="2">  1       -2 0.53226443E-01 0.12973786E+04</pdfrwt>
<totfact> 0.60414702E+01</totfact>
</mgrwt>
</event>
<event>
12    1  0.1502469E-007  0.1463536E+04  0.7818608E-02  0.8909070E-01
         -2   -1    0    0    0  501 -0.00000000000E+00  0.00000000000E+00  0.68767539567E+03  0.68767539567E+03  0.00000000000E+00 0.  1.
          2   -1    0    0  501    0  0.00000000000E+00 -0.00000000000E+00 -0.77868806631E+03  0.77868806631E+03  0.00000000000E+00 0. -1.
         23    2    1    2    0    0  0.15841825240E+03  0.22759317521E+03  0.34217558984E+03  0.45082520322E+03  0.96250888180E+02 0.  0.
        254    2    1    2    0    0 -0.15841825240E+03 -0.22759317521E+03 -0.43318826048E+03  0.10155382588E+04  0.87565454941E+03 0.  0.
        -24    2    4    4    0    0 -0.12038735270E+03 -0.29164795489E+03  0.19387390398E+03  0.37898296873E+03  0.80556537055E+02 0.  0.
         24    2    4    4    0    0 -0.38030899702E+02  0.64054779675E+02 -0.62706216446E+03  0.63655529003E+03  0.80288947212E+02 0.  0.
         13    1    3    3    0    0 -0.12093456510E+02  0.23159109090E+02  0.43400169765E+02  0.50657386034E+02  0.00000000000E+00 0. -1.
        -13    1    3    3    0    0  0.17051170891E+03  0.20443406612E+03  0.29877542008E+03  0.40016781718E+03  0.00000000000E+00 0.  1.
          2    1    6    6  502    0 -0.25642674488E+02  0.17319755493E+02 -0.60691989920E+02  0.68125166610E+02  0.00000000000E+00 0. -1.
          1    1    5    5  503    0 -0.35887437826E+02 -0.22080196842E+02  0.15583498783E+02  0.44925368342E+02  0.00000000000E+00 0. -1.
         -2    1    5    5    0  503 -0.84499914870E+02 -0.26956775805E+03  0.17829040520E+03  0.33405760039E+03  0.00000000000E+00 0.  1.
         -1    1    6    6    0  502 -0.12388225213E+02  0.46735024182E+02 -0.56637017454E+03  0.56843012342E+03  0.00000000000E+00 0.  1.
<mgrwt>
<rscale>  0 0.14635363E+04</rscale>
<asrwt>0</asrwt>
<pdfrwt beam="1">  1        2 0.11979816E+00 0.14635363E+04</pdfrwt>
<pdfrwt beam="2">  1       -2 0.10579621E+00 0.14635363E+04</pdfrwt>
<totfact> 0.24971329E+01</totfact>
</mgrwt>
</event>
<event>
12    1  0.1472088E-007  0.2717980E+04  0.7818608E-02  0.8329194E-01
          1   -1    0    0  501    0  0.00000000000E+00  0.00000000000E+00  0.19835195168E+04  0.19835195168E+04  0.00000000000E+00 0. -1.
         -1   -1    0    0    0  501 -0.00000000000E+00 -0.00000000000E+00 -0.93109969053E+03  0.93109969053E+03  0.00000000000E+00 0.  1.
         23    2    1    2    0    0  0.90730116661E+03 -0.11507879145E+03 -0.37470618650E+03  0.99317204206E+03  0.97711021671E+02 0.  0.
        254    2    1    2    0    0 -0.90730116661E+03  0.11507879145E+03  0.14271260127E+04  0.19214471652E+04  0.90489337348E+03 0.  0.
        -24    2    4    4    0    0 -0.71824979296E+03 -0.31327835854E+03  0.10556795086E+04  0.13172584213E+04  0.81758355041E+02 0.  0.
         24    2    4    4    0    0 -0.18905137365E+03  0.42835714998E+03  0.37144650414E+03  0.60418874392E+03  0.88550906412E+02 0.  0.
         13    1    3    3    0    0  0.35470183251E+02  0.23220554193E+01  0.32933546049E+01  0.35698347662E+02  0.00000000000E+00 0. -1.
        -13    1    3    3    0    0  0.87183098336E+03 -0.11740084687E+03 -0.37799954110E+03  0.95747369440E+03  0.00000000000E+00 0.  1.
          2    1    6    6  502    0 -0.91580628452E+02  0.14260172682E+03  0.92223880992E+02  0.19294431379E+03  0.00000000000E+00 0. -1.
          1    1    5    5  503    0 -0.16420888351E+01  0.37329294545E+01  0.77302254228E+01  0.87400001797E+01  0.00000000000E+00 0. -1.
         -2    1    5    5    0  503 -0.71660770413E+03 -0.31701128799E+03  0.10479492832E+04  0.13085184211E+04  0.00000000000E+00 0.  1.
         -1    1    6    6    0  502 -0.97470745197E+02  0.28575542316E+03  0.27922262315E+03  0.41124443013E+03  0.00000000000E+00 0.  1.
<mgrwt>
<rscale>  0 0.27179804E+04</rscale>
<asrwt>0</asrwt>
<pdfrwt beam="1">  1        1 0.30515685E+00 0.27179804E+04</pdfrwt>
<pdfrwt beam="2">  1       -1 0.14324611E+00 0.27179804E+04</pdfrwt>
<totfact> 0.10518450E+00</totfact>
</mgrwt>
</event>
<event>
12    1  0.1472088E-007  0.2251004E+04  0.7818608E-02  0.8497494E-01
          2   -1    0    0  501    0  0.00000000000E+00  0.00000000000E+00  0.10088750936E+04  0.10088750936E+04  0.00000000000E+00 0. -1.
         -2   -1    0    0    0  501 -0.00000000000E+00 -0.00000000000E+00 -0.12556113139E+04  0.12556113139E+04  0.00000000000E+00 0.  1.
         23    2    1    2    0    0 -0.66895202081E+02 -0.38787364875E+03 -0.97141726562E+03  0.10514626419E+04  0.83673459976E+02 0.  0.
        254    2    1    2    0    0  0.66895202081E+02  0.38787364875E+03  0.72468104535E+03  0.12130237656E+04  0.88957467526E+03 0.  0.
        -24    2    4    4    0    0  0.21888962167E+03  0.20492658711E+03  0.86994148047E+03  0.92331118229E+03  0.76143202639E+02 0.  0.
         24    2    4    4    0    0 -0.15199441959E+03  0.18294706164E+03 -0.14526043513E+03  0.28971258327E+03  0.79125570693E+02 0.  0.
         13    1    3    3    0    0 -0.68695905583E+02 -0.15879374444E+03 -0.39823348487E+03  0.43419406858E+03  0.00000000000E+00 0.  1.
        -13    1    3    3    0    0  0.18007035018E+01 -0.22907990431E+03 -0.57318378075E+03  0.61726857332E+03  0.00000000000E+00 0. -1.
          2    1    6    6  502    0 -0.15990688801E+03  0.17782831058E+03 -0.14610738454E+03  0.28025076038E+03  0.00000000000E+00 0. -1.
          1    1    5    5  503    0  0.20065207377E+03  0.16925966562E+03  0.67398659113E+03  0.72330354218E+03  0.00000000000E+00 0. -1.
         -2    1    5    5    0  503  0.18237547906E+02  0.35666921493E+02  0.19595488935E+03  0.20000764011E+03  0.00000000000E+00 0.  1.
         -1    1    6    6    0  502  0.79124684199E+01  0.51187510655E+01  0.84694941480E+00  0.94618228834E+01  0.00000000000E+00 0.  1.
<mgrwt>
<rscale>  0 0.22510042E+04</rscale>
<asrwt>0</asrwt>
<pdfrwt beam="1">  1        2 0.15521155E+00 0.22510042E+04</pdfrwt>
<pdfrwt beam="2">  1       -2 0.19317097E+00 0.22510042E+04</pdfrwt>
<totfact> 0.33393544E+00</totfact>
</mgrwt>
</event>
<event>
12    1  0.1472088E-007  0.1235662E+04  0.7818608E-02  0.9082202E-01
         -2   -1    0    0    0  501 -0.00000000000E+00  0.00000000000E+00  0.26995787731E+03  0.26995787731E+03  0.00000000000E+00 0.  1.
          2   -1    0    0  501    0  0.00000000000E+00 -0.00000000000E+00 -0.14139795825E+04  0.14139795825E+04  0.00000000000E+00 0. -1.
         23    2    1    2    0    0 -0.17919193307E+03 -0.13152155192E+03 -0.39276428754E+02  0.24338998824E+03  0.91040546052E+02 0.  0.
        254    2    1    2    0    0  0.17919193307E+03  0.13152155192E+03 -0.11047452764E+04  0.14405474715E+04  0.89738911546E+03 0.  0.
        -24    2    4    4    0    0 -0.20194165399E+02 -0.18492710866E+03 -0.10314065757E+04  0.10511472750E+04  0.80655003611E+02 0.  0.
         24    2    4    4    0    0  0.19938609847E+03  0.31644866058E+03 -0.73338700710E+02  0.38940019650E+03  0.79745701890E+02 0.  0.
         11    1    3    3    0    0  0.80356048415E+01 -0.15123085662E+01 -0.10995397535E+02  0.13702437349E+02  0.00000000000E+00 0. -1.
        -11    1    3    3    0    0 -0.18722753791E+03 -0.13000924335E+03 -0.28281031220E+02  0.22968755089E+03  0.00000000000E+00 0.  1.
          2    1    6    6  502    0  0.14208928063E+03  0.19839581300E+03 -0.83161888227E+02  0.25781032163E+03  0.00000000000E+00 0. -1.
          1    1    5    5  503    0 -0.41042302866E+02 -0.11606101443E+03 -0.77970138991E+03  0.78935979574E+03  0.00000000000E+00 0. -1.
         -2    1    5    5    0  503  0.20848137467E+02 -0.68866094238E+02 -0.25170518578E+03  0.26178747930E+03  0.00000000000E+00 0.  1.
         -1    1    6    6    0  502  0.57296817838E+02  0.11805284758E+03  0.98231875174E+01  0.13158987487E+03  0.00000000000E+00 0.  1.
<mgrwt>
<rscale>  0 0.12356616E+04</rscale>
<asrwt>0</asrwt>
<pdfrwt beam="1">  1        2 0.21753532E+00 0.12356616E+04</pdfrwt>
<pdfrwt beam="2">  1       -2 0.41531982E-01 0.12356616E+04</pdfrwt>
<totfact> 0.76778895E+01</totfact>
</mgrwt>
</event>
<event>
12    1  0.1472088E-007  0.2456185E+04  0.7818608E-02  0.8418763E-01
         -2   -1    0    0    0  501 -0.00000000000E+00  0.00000000000E+00  0.51470675806E+03  0.51470675806E+03  0.00000000000E+00 0. -1.
          2   -1    0    0  501    0  0.00000000000E+00 -0.00000000000E+00 -0.29302335032E+04  0.29302335032E+04  0.00000000000E+00 0.  1.
         23    2    1    2    0    0 -0.88807271333E+03 -0.38687456096E+03 -0.44480978383E+03  0.10697626714E+04  0.90506128268E+02 0.  0.
        254    2    1    2    0    0  0.88807271333E+03  0.38687456096E+03 -0.19707169613E+04  0.23751775899E+04  0.90520614872E+03 0.  0.
        -24    2    4    4    0    0  0.85102057094E+03  0.38478639403E+03 -0.89526449755E+03  0.12961809083E+04  0.79308544102E+02 0.  0.
         24    2    4    4    0    0  0.37052142388E+02  0.20881669236E+01 -0.10754524638E+04  0.10789966816E+04  0.79111411235E+02 0.  0.
         13    1    3    3    0    0 -0.28834326017E+03 -0.96349659678E+02 -0.10426649276E+03  0.32139787510E+03  0.00000000000E+00 0.  1.
        -13    1    3    3    0    0 -0.59972945316E+03 -0.29052490128E+03 -0.34054329107E+03  0.74836479630E+03  0.00000000000E+00 0. -1.
          4    1    6    6  502    0 -0.24675501390E+02  0.56742373608E+01 -0.34933607054E+03  0.35025243400E+03  0.00000000000E+00 0. -1.
          3    1    5    5  503    0  0.19857702198E+03  0.78292240260E+02 -0.24986943309E+03  0.32862933852E+03  0.00000000000E+00 0. -1.
         -4    1    5    5    0  503  0.65244354897E+03  0.30649415377E+03 -0.64539506447E+03  0.96755156975E+03  0.00000000000E+00 0.  1.
         -3    1    6    6    0  502  0.61727643779E+02 -0.35860704373E+01 -0.72611639321E+03  0.72874424759E+03  0.00000000000E+00 0.  1.
<mgrwt>
<rscale>  0 0.24561848E+04</rscale>
<asrwt>0</asrwt>
<pdfrwt beam="1">  1        2 0.45080516E+00 0.24561848E+04</pdfrwt>
<pdfrwt beam="2">  1       -2 0.79185654E-01 0.24561848E+04</pdfrwt>
<totfact> 0.24370461E+00</totfact>
</mgrwt>
</event>
<event>
12    1  0.1472088E-007  0.1431439E+04  0.7818608E-02  0.8931371E-01
         -2   -1    0    0    0  501 -0.00000000000E+00  0.00000000000E+00  0.26842401273E+03  0.26842401273E+03  0.00000000000E+00 0.  1.
          2   -1    0    0  501    0  0.00000000000E+00 -0.00000000000E+00 -0.19083771842E+04  0.19083771842E+04  0.00000000000E+00 0. -1.
         23    2    1    2    0    0 -0.66850289744E+02  0.41315751138E+03 -0.38498307779E+03  0.57564246124E+03  0.89354253087E+02 0.  0.
        254    2    1    2    0    0  0.66850289744E+02 -0.41315751138E+03 -0.12549700937E+04  0.16011587357E+04  0.90199294365E+03 0.  0.
        -24    2    4    4    0    0 -0.99378552194E+02 -0.51277485903E+02 -0.11794819721E+04  0.11874496087E+04  0.79708051274E+02 0.  0.
         24    2    4    4    0    0  0.16622884194E+03 -0.36188002547E+03 -0.75488121601E+02  0.41370912704E+03  0.82871011587E+02 0.  0.
         11    1    3    3    0    0 -0.28407470879E+02  0.60922146725E+02 -0.28469882444E+02  0.73000181984E+02  0.00000000000E+00 0. -1.
        -11    1    3    3    0    0 -0.38442818865E+02  0.35223536465E+03 -0.35651319535E+03  0.50264227925E+03  0.00000000000E+00 0.  1.
          4    1    6    6  502    0  0.99110765901E+02 -0.27295221422E+03 -0.25225882732E+02  0.29148276163E+03  0.00000000000E+00 0. -1.
          1    1    5    5  503    0 -0.83824498613E+02 -0.65541802718E+02 -0.11026368006E+04  0.11077590841E+04  0.00000000000E+00 0. -1.
         -2    1    5    5    0  503 -0.15554053581E+02  0.14264316815E+02 -0.76845171524E+02  0.79690524553E+02  0.00000000000E+00 0.  1.
         -3    1    6    6    0  502  0.67118076037E+02 -0.88927811250E+02 -0.50262238869E+02  0.12222636541E+03  0.00000000000E+00 0.  1.
<mgrwt>
<rscale>  0 0.14314388E+04</rscale>
<asrwt>0</asrwt>
<pdfrwt beam="1">  1        2 0.29359650E+00 0.14314388E+04</pdfrwt>
<pdfrwt beam="2">  1       -2 0.41296001E-01 0.14314388E+04</pdfrwt>
<totfact> 0.40535313E+01</totfact>
</mgrwt>
</event>
<event>
12    1  0.1472088E-007  0.1227693E+04  0.7818608E-02  0.9088957E-01
         -1   -1    0    0    0  501 -0.00000000000E+00  0.00000000000E+00  0.19825763760E+03  0.19825763760E+03  0.00000000000E+00 0.  1.
          1   -1    0    0  501    0  0.00000000000E+00 -0.00000000000E+00 -0.19005944417E+04  0.19005944417E+04  0.00000000000E+00 0. -1.
         23    2    1    2    0    0  0.18986616612E+03  0.14947789654E+03 -0.59944699252E+03  0.65281315605E+03  0.91845072113E+02 0.  0.
        254    2    1    2    0    0 -0.18986616612E+03 -0.14947789654E+03 -0.11028898116E+04  0.14460389232E+04  0.90347652347E+03 0.  0.
        -24    2    4    4    0    0 -0.31948349768E+03 -0.26725971968E+03 -0.11432341405E+03  0.43899207430E+03  0.78401117618E+02 0.  0.
         24    2    4    4    0    0  0.12961733156E+03  0.11778182314E+03 -0.98856639752E+03  0.10070468489E+04  0.78782124580E+02 0.  0.
         13    1    3    3    0    0  0.80991367961E+02  0.52259701255E+02 -0.35732877193E+03  0.37010070157E+03  0.00000000000E+00 0. -1.
        -13    1    3    3    0    0  0.10887479816E+03  0.97218195285E+02 -0.24211822060E+03  0.28271245447E+03  0.00000000000E+00 0.  1.
          4    1    6    6  502    0  0.39732217575E+02 -0.22111473696E+01 -0.15029665699E+03  0.15547547520E+03  0.00000000000E+00 0. -1.
          3    1    5    5  503    0 -0.29523969996E+02 -0.59332361434E+02 -0.84414698819E+01  0.66807576902E+02  0.00000000000E+00 0. -1.
         -4    1    5    5    0  503 -0.28995952769E+03 -0.20792735825E+03 -0.10588194417E+03  0.37218449740E+03  0.00000000000E+00 0.  1.
         -3    1    6    6    0  502  0.89885113983E+02  0.11999297051E+03 -0.83826974052E+03  0.85157137374E+03  0.00000000000E+00 0.  1.
<mgrwt>
<rscale>  0 0.12276927E+04</rscale>
<asrwt>0</asrwt>
<pdfrwt beam="1">  1        1 0.29239915E+00 0.12276927E+04</pdfrwt>
<pdfrwt beam="2">  1       -1 0.30501174E-01 0.12276927E+04</pdfrwt>
<totfact> 0.34114191E+01</totfact>
</mgrwt>
</event>
<event>
12    1  0.1472088E-007  0.2923000E+04  0.7818608E-02  0.8266067E-01
         -2   -1    0    0    0  501 -0.00000000000E+00  0.00000000000E+00  0.64868789240E+03  0.64868789240E+03  0.00000000000E+00 0.  1.
          2   -1    0    0  501    0  0.00000000000E+00 -0.00000000000E+00 -0.32927742040E+04  0.32927742040E+04  0.00000000000E+00 0. -1.
         23    2    1    2    0    0 -0.41110106103E+02 -0.12403279803E+04 -0.18127835276E+04  0.21987951416E+04  0.91719231434E+02 0.  0.
        254    2    1    2    0    0  0.41110106103E+02  0.12403279803E+04 -0.83130278401E+03  0.17426669548E+04  0.89761921600E+03 0.  0.
        -24    2    4    4    0    0  0.65642902989E+02  0.39780231957E+03  0.15794065453E+03  0.44048387861E+03  0.80778219815E+02 0.  0.
         24    2    4    4    0    0 -0.24532796886E+02  0.84252566074E+03 -0.98924343854E+03  0.13021830761E+04  0.81405380506E+02 0.  0.
         13    1    3    3    0    0 -0.53675017044E+02 -0.39101651860E+03 -0.59796019178E+03  0.71647143434E+03  0.00000000000E+00 0. -1.
        -13    1    3    3    0    0  0.12564910942E+02 -0.84931146171E+03 -0.12148233358E+04  0.14823237073E+04  0.00000000000E+00 0.  1.
          2    1    6    6  502    0 -0.33129490100E+02  0.83411935771E+03 -0.97566546477E+03  0.12840466367E+04  0.00000000000E+00 0. -1.
          3    1    5    5  503    0  0.52517413783E+02  0.39183693962E+03  0.15879742535E+03  0.42604094674E+03  0.00000000000E+00 0. -1.
         -4    1    5    5    0  503  0.13125489206E+02  0.59653799520E+01 -0.85677082289E+00  0.14442931874E+02  0.00000000000E+00 0.  1.
         -1    1    6    6    0  502  0.85966932136E+01  0.84063030334E+01 -0.13577973772E+02  0.18136439470E+02  0.00000000000E+00 0.  1.
<mgrwt>
<rscale>  0 0.29230003E+04</rscale>
<asrwt>0</asrwt>
<pdfrwt beam="1">  1        2 0.50658064E+00 0.29230003E+04</pdfrwt>
<pdfrwt beam="2">  1       -2 0.99798139E-01 0.29230003E+04</pdfrwt>
<totfact> 0.80478182E-01</totfact>
</mgrwt>
</event>
<event>
12    1  0.1472088E-007  0.2674725E+04  0.7818608E-02  0.8343253E-01
          2   -1    0    0  501    0  0.00000000000E+00  0.00000000000E+00  0.33221919989E+04  0.33221919989E+04  0.00000000000E+00 0. -1.
         -2   -1    0    0    0  501 -0.00000000000E+00 -0.00000000000E+00 -0.53836079773E+03  0.53836079773E+03  0.00000000000E+00 0.  1.
         23    2    1    2    0    0  0.26693083197E+03 -0.11212246514E+04  0.84853354289E+03  0.14338607461E+04  0.86894636466E+02 0.  0.
        254    2    1    2    0    0 -0.26693083197E+03  0.11212246514E+04  0.19352976583E+04  0.24266920506E+04  0.90280700821E+03 0.  0.
        -24    2    4    4    0    0 -0.43587637285E+03  0.11853009160E+04  0.17069858110E+04  0.21249589045E+04  0.81995810565E+02 0.  0.
         24    2    4    4    0    0  0.16894554087E+03 -0.64076264613E+02  0.22831184730E+03  0.30173314606E+03  0.79172143753E+02 0.  0.
         13    1    3    3    0    0  0.27013741586E+02 -0.19346662684E+03  0.17805305639E+03  0.26431414799E+03  0.00000000000E+00 0. -1.
        -13    1    3    3    0    0  0.23991709039E+03 -0.92775802455E+03  0.67048048649E+03  0.11695465981E+04  0.00000000000E+00 0.  1.
          2    1    6    6  502    0  0.10362949592E+02 -0.71207664379E+01 -0.53403558996E+01  0.13660726190E+02  0.00000000000E+00 0. -1.
          1    1    5    5  503    0 -0.40519972482E+03  0.10750212862E+04  0.15862932761E+04  0.19586178648E+04  0.00000000000E+00 0. -1.
         -2    1    5    5    0  503 -0.30676648026E+02  0.11027962982E+03  0.12069253492E+03  0.16634103965E+03  0.00000000000E+00 0.  1.
         -1    1    6    6    0  502  0.15858259128E+03 -0.56955498175E+02  0.23365220320E+03  0.28807241987E+03  0.00000000000E+00 0.  1.
<mgrwt>
<rscale>  0 0.26747246E+04</rscale>
<asrwt>0</asrwt>
<pdfrwt beam="1">  1        2 0.51110645E+00 0.26747246E+04</pdfrwt>
<pdfrwt beam="2">  1       -2 0.82824740E-01 0.26747246E+04</pdfrwt>
<totfact> 0.12094376E+00</totfact>
</mgrwt>
</event>
<event>
12    1  0.1472088E-007  0.1789507E+04  0.7818608E-02  0.8711899E-01
         -1   -1    0    0    0  501 -0.00000000000E+00  0.00000000000E+00  0.68298391325E+03  0.68298391325E+03  0.00000000000E+00 0.  1.
          1   -1    0    0  501    0  0.00000000000E+00 -0.00000000000E+00 -0.11721859384E+04  0.11721859384E+04  0.00000000000E+00 0. -1.
         23    2    1    2    0    0  0.31052272103E+03  0.56778355309E+03 -0.32642037643E+02  0.65557433870E+03  0.99547413384E+02 0.  0.
        254    2    1    2    0    0 -0.31052272103E+03 -0.56778355309E+03 -0.45655998752E+03  0.11995955130E+04  0.90098826246E+03 0.  0.
        -24    2    4    4    0    0 -0.43563057822E+03 -0.52959718266E+03 -0.65366887765E+03  0.95079078328E+03  0.80454554810E+02 0.  0.
         24    2    4    4    0    0  0.12510785719E+03 -0.38186370423E+02  0.19710889013E+03  0.24880472969E+03  0.77082450232E+02 0.  0.
         11    1    3    3    0    0  0.42230710708E+02  0.16447665873E+03  0.33586447631E+01  0.16984488420E+03  0.00000000000E+00 0.  1.
        -11    1    3    3    0    0  0.26829201032E+03  0.40330689436E+03 -0.36000682407E+02  0.48572945450E+03  0.00000000000E+00 0. -1.
          4    1    6    6  502    0 -0.16895331516E+01 -0.20566704894E+02  0.12414056221E+02  0.24082206384E+02  0.00000000000E+00 0. -1.
          3    1    5    5  503    0 -0.94151379696E+02 -0.12375468009E+03 -0.10474621907E+03  0.18748726238E+03  0.00000000000E+00 0. -1.
         -4    1    5    5    0  503 -0.34147919853E+03 -0.40584250257E+03 -0.54892265858E+03  0.76330352090E+03  0.00000000000E+00 0.  1.
         -3    1    6    6    0  502  0.12679739035E+03 -0.17619665530E+02  0.18469483390E+03  0.22472252331E+03  0.00000000000E+00 0.  1.
<mgrwt>
<rscale>  0 0.17895074E+04</rscale>
<asrwt>0</asrwt>
<pdfrwt beam="1">  1        1 0.18033630E+00 0.17895074E+04</pdfrwt>
<pdfrwt beam="2">  1       -1 0.10507445E+00 0.17895074E+04</pdfrwt>
<totfact> 0.89923623E+00</totfact>
</mgrwt>
</event>
<event>
12    1  0.1472088E-007  0.2812011E+04  0.7818608E-02  0.8299549E-01
          2   -1    0    0  501    0  0.00000000000E+00  0.00000000000E+00  0.11682986033E+04  0.11682986033E+04  0.00000000000E+00 0.  1.
         -2   -1    0    0    0  501 -0.00000000000E+00 -0.00000000000E+00 -0.16920777062E+04  0.16920777062E+04  0.00000000000E+00 0. -1.
         23    2    1    2    0    0 -0.18897391893E+03  0.75606329078E+03 -0.12483112498E+04  0.14745414121E+04  0.92997623214E+02 0.  0.
        254    2    1    2    0    0  0.18897391893E+03 -0.75606329078E+03  0.72453214694E+03  0.13858348973E+04  0.88783370570E+03 0.  0.
        -24    2    4    4    0    0  0.49921661776E+03 -0.67935372589E+03  0.46683781522E+03  0.96703946837E+03  0.80554772290E+02 0.  0.
         24    2    4    4    0    0 -0.31024269883E+03 -0.76709564887E+02  0.25769433172E+03  0.41879542894E+03  0.82754777360E+02 0.  0.
         11    1    3    3    0    0 -0.12578914980E+03  0.42391523275E+03 -0.62776586462E+03  0.76786523267E+03  0.00000000000E+00 0.  1.
        -11    1    3    3    0    0 -0.63184769133E+02  0.33214805803E+03 -0.62054538520E+03  0.70667617944E+03  0.00000000000E+00 0. -1.
          2    1    6    6  502    0 -0.71134268072E+02 -0.11123054329E+02  0.18620994547E+02  0.74367653383E+02  0.00000000000E+00 0. -1.
          3    1    5    5  503    0  0.97381309072E+02 -0.13475217867E+03  0.56676668816E+02  0.17565168317E+03  0.00000000000E+00 0. -1.
         -4    1    5    5    0  503  0.40183530869E+03 -0.54460154722E+03  0.41016114640E+03  0.79138778520E+03  0.00000000000E+00 0.  1.
         -1    1    6    6    0  502 -0.23910843076E+03 -0.65586510558E+02  0.23907333717E+03  0.34442777556E+03  0.00000000000E+00 0.  1.
<mgrwt>
<rscale>  0 0.28120114E+04</rscale>
<asrwt>0</asrwt>
<pdfrwt beam="1">  1        2 0.17973825E+00 0.28120114E+04</pdfrwt>
<pdfrwt beam="2">  1       -2 0.26031965E+00 0.28120114E+04</pdfrwt>
<totfact> 0.95552735E-01</totfact>
</mgrwt>
</event>
<event>
12    1  0.1472088E-007  0.1069103E+04  0.7818608E-02  0.9235840E-01
         -2   -1    0    0    0  501 -0.00000000000E+00  0.00000000000E+00  0.23252040174E+03  0.23252040174E+03  0.00000000000E+00 0.  1.
          2   -1    0    0  501    0  0.00000000000E+00 -0.00000000000E+00 -0.12289049044E+04  0.12289049044E+04  0.00000000000E+00 0. -1.
         23    2    1    2    0    0 -0.47116222439E+02 -0.12351595019E+03 -0.82091599860E+02  0.18313800989E+03  0.96562785443E+02 0.  0.
        254    2    1    2    0    0  0.47116222439E+02  0.12351595019E+03 -0.91429290281E+03  0.12782872963E+04  0.88352180012E+03 0.  0.
        -24    2    4    4    0    0 -0.40330292918E+03  0.54126347370E+02 -0.55329255764E+03  0.69144259553E+03  0.79857963935E+02 0.  0.
         24    2    4    4    0    0  0.45041915162E+03  0.69389602816E+02 -0.36100034517E+03  0.58684470073E+03  0.79831851049E+02 0.  0.
         13    1    3    3    0    0 -0.62756914799E+02 -0.49112699540E+02 -0.13669563976E+02  0.80853847098E+02  0.00000000000E+00 0.  1.
        -13    1    3    3    0    0  0.15640692360E+02 -0.74403250645E+02 -0.68422035883E+02  0.10228416279E+03  0.00000000000E+00 0. -1.
          2    1    6    6  502    0  0.97080536818E+01 -0.10357131048E+02 -0.16777608431E+02  0.21977365959E+02  0.00000000000E+00 0. -1.
          1    1    5    5  503    0 -0.78326285097E+02 -0.18440275107E+02 -0.87555997601E+02  0.11891637145E+03  0.00000000000E+00 0. -1.
         -2    1    5    5    0  503 -0.32497664408E+03  0.72566622477E+02 -0.46573656004E+03  0.57252622408E+03  0.00000000000E+00 0.  1.
         -1    1    6    6    0  502  0.44071109794E+03  0.79746733864E+02 -0.34422273673E+03  0.56486733477E+03  0.00000000000E+00 0.  1.
<mgrwt>
<rscale>  0 0.10691033E+04</rscale>
<asrwt>0</asrwt>
<pdfrwt beam="1">  1        2 0.18906230E+00 0.10691033E+04</pdfrwt>
<pdfrwt beam="2">  1       -2 0.35772368E-01 0.10691033E+04</pdfrwt>
<totfact> 0.13287940E+02</totfact>
</mgrwt>
</event>
<event>
12    1  0.1472088E-007  0.2131194E+04  0.7818608E-02  0.8547625E-01
          2   -1    0    0  501    0  0.00000000000E+00  0.00000000000E+00  0.78012763688E+03  0.78012763688E+03  0.00000000000E+00 0. -1.
         -2   -1    0    0    0  501 -0.00000000000E+00 -0.00000000000E+00 -0.14555273321E+04  0.14555273321E+04  0.00000000000E+00 0.  1.
         23    2    1    2    0    0  0.43424641184E+03  0.51277132929E+02 -0.10733185159E+04  0.11624894778E+04  0.90387272317E+02 0.  0.
        254    2    1    2    0    0 -0.43424641184E+03 -0.51277132929E+02  0.39791882069E+03  0.10731654911E+04  0.89562575493E+03 0.  0.
        -24    2    4    4    0    0 -0.80620036579E+02 -0.81894806168E+02 -0.27475415730E+03  0.30828258006E+03  0.79636377622E+02 0.  0.
         24    2    4    4    0    0 -0.35362637526E+03  0.30617673239E+02  0.67267297798E+03  0.76488291105E+03  0.81042440194E+02 0.  0.
         13    1    3    3    0    0  0.35395000846E+03  0.55741986388E+01 -0.83998836371E+03  0.91153284710E+03  0.00000000000E+00 0.  1.
        -13    1    3    3    0    0  0.80296403380E+02  0.45702934291E+02 -0.23333015216E+03  0.25095663073E+03  0.00000000000E+00 0. -1.
          2    1    6    6  502    0 -0.10529565678E+02 -0.82458393193E+01  0.61294508595E+02  0.62736611348E+02  0.00000000000E+00 0. -1.
          3    1    5    5  503    0  0.61257485932E+01 -0.22479125225E+02 -0.14129893434E+02  0.27248665199E+02  0.00000000000E+00 0. -1.
         -4    1    5    5    0  503 -0.86745785173E+02 -0.59415680943E+02 -0.26062426386E+03  0.28103391486E+03  0.00000000000E+00 0.  1.
         -1    1    6    6    0  502 -0.34309680958E+03  0.38863512558E+02  0.61137846939E+03  0.70214629970E+03  0.00000000000E+00 0.  1.
<mgrwt>
<rscale>  0 0.21311941E+04</rscale>
<asrwt>0</asrwt>
<pdfrwt beam="1">  1        2 0.12001964E+00 0.21311941E+04</pdfrwt>
<pdfrwt beam="2">  1       -2 0.22392728E+00 0.21311941E+04</pdfrwt>
<totfact> 0.30546108E+00</totfact>
</mgrwt>
</event>
<event>
12    1  0.1472088E-007  0.1283724E+04  0.7818608E-02  0.9042573E-01
          2   -1    0    0  501    0  0.00000000000E+00  0.00000000000E+00  0.34892463262E+04  0.34892463262E+04  0.00000000000E+00 0. -1.
         -2   -1    0    0    0  501 -0.00000000000E+00 -0.00000000000E+00 -0.11807325908E+03  0.11807325908E+03  0.00000000000E+00 0.  1.
         23    2    1    2    0    0  0.17257097831E+03 -0.19752699059E+03  0.13445057060E+04  0.13728385815E+04  0.90512556585E+02 0.  0.
        254    2    1    2    0    0 -0.17257097831E+03  0.19752699059E+03  0.20266673612E+04  0.22344810038E+04  0.90372955520E+03 0.  0.
        -24    2    4    4    0    0  0.17933723988E+03 -0.12961846923E+03  0.11720469475E+03  0.26402186419E+03  0.83712670054E+02 0.  0.
         24    2    4    4    0    0 -0.35190821819E+03  0.32714545982E+03  0.19094626664E+04  0.19704591396E+04  0.76144602562E+02 0.  0.
         13    1    3    3    0    0  0.40492638284E+02 -0.10920332540E+02  0.11858656125E+03  0.12578425945E+03  0.00000000000E+00 0.  1.
        -13    1    3    3    0    0  0.13207834003E+03 -0.18660665805E+03  0.12259191447E+04  0.12470543220E+04  0.00000000000E+00 0. -1.
          2    1    6    6  502    0 -0.33560672579E+03  0.28731190477E+03  0.16882477041E+04  0.17450960763E+04  0.00000000000E+00 0. -1.
          1    1    5    5  503    0  0.16355850075E+03 -0.77668898183E+02  0.78513458293E+02  0.19735299350E+03  0.00000000000E+00 0. -1.
         -2    1    5    5    0  503  0.15778739133E+02 -0.51949571046E+02  0.38691236458E+02  0.66668870691E+02  0.00000000000E+00 0.  1.
         -1    1    6    6    0  502 -0.16301492404E+02  0.39833555047E+02  0.22121496229E+03  0.22536306330E+03  0.00000000000E+00 0.  1.
<mgrwt>
<rscale>  0 0.12837238E+04</rscale>
<asrwt>0</asrwt>
<pdfrwt beam="1">  1        2 0.53680705E+00 0.12837238E+04</pdfrwt>
<pdfrwt beam="2">  1       -2 0.18165119E-01 0.12837238E+04</pdfrwt>
<totfact> 0.20969794E+01</totfact>
</mgrwt>
</event>
<event>
12    1  0.1472088E-007  0.2755889E+04  0.7818608E-02  0.8317095E-01
         -1   -1    0    0    0  501 -0.00000000000E+00  0.00000000000E+00  0.23295349347E+04  0.23295349347E+04  0.00000000000E+00 0.  1.
          1   -1    0    0  501    0  0.00000000000E+00 -0.00000000000E+00 -0.81506895593E+03  0.81506895593E+03  0.00000000000E+00 0. -1.
         23    2    1    2    0    0  0.76693170097E+03 -0.94134020632E+03  0.99034358741E+03  0.15695534972E+04  0.91717727541E+02 0.  0.
        254    2    1    2    0    0 -0.76693170097E+03  0.94134020632E+03  0.52412239139E+03  0.15750503934E+04  0.85543780764E+03 0.  0.
        -24    2    4    4    0    0 -0.43607382043E+03  0.82854410468E+03  0.70337453096E+03  0.11735743560E+04  0.76781039479E+02 0.  0.
         24    2    4    4    0    0 -0.33085788054E+03  0.11279610164E+03 -0.17925213957E+03  0.40147603743E+03  0.82835870419E+02 0.  0.
         11    1    3    3    0    0  0.25527884900E+02 -0.13343472348E+02  0.14193506517E+02  0.32111941533E+02  0.00000000000E+00 0. -1.
        -11    1    3    3    0    0  0.74140381607E+03 -0.92799673397E+03  0.97615008090E+03  0.15374415557E+04  0.00000000000E+00 0.  1.
          4    1    6    6  502    0 -0.21839455142E+03  0.10525198021E+03 -0.14978015898E+03  0.28497062208E+03  0.00000000000E+00 0. -1.
          1    1    5    5  503    0 -0.27536395697E+03  0.44340763569E+03  0.40163751508E+03  0.65859572859E+03  0.00000000000E+00 0. -1.
         -2    1    5    5    0  503 -0.16070986346E+03  0.38513646898E+03  0.30173701588E+03  0.51497862743E+03  0.00000000000E+00 0.  1.
         -3    1    6    6    0  502 -0.11246332912E+03  0.75441214376E+01 -0.29471980594E+02  0.11650541534E+03  0.00000000000E+00 0.  1.
<mgrwt>
<rscale>  0 0.27558894E+04</rscale>
<asrwt>0</asrwt>
<pdfrwt beam="1">  1        1 0.12539522E+00 0.27558894E+04</pdfrwt>
<pdfrwt beam="2">  1       -1 0.35838999E+00 0.27558894E+04</pdfrwt>
<totfact> 0.25471662E-01</totfact>
</mgrwt>
</event>
<event>
12    1  0.1472088E-007  0.1438652E+04  0.7818608E-02  0.8926306E-01
         -1   -1    0    0    0  501 -0.00000000000E+00  0.00000000000E+00  0.88273840504E+03  0.88273840504E+03  0.00000000000E+00 0.  1.
          1   -1    0    0  501    0  0.00000000000E+00 -0.00000000000E+00 -0.58616460222E+03  0.58616460222E+03  0.00000000000E+00 0. -1.
         23    2    1    2    0    0  0.37295905986E+03 -0.15023512985E+03  0.24457561118E+03  0.47957423685E+03  0.92223448698E+02 0.  0.
        254    2    1    2    0    0 -0.37295905986E+03  0.15023512985E+03  0.51998191642E+02  0.98932877041E+03  0.90244033014E+03 0.  0.
        -24    2    4    4    0    0 -0.14136985575E+03 -0.27382839799E+03 -0.25786633495E+03  0.40970151851E+03  0.79955361966E+02 0.  0.
         24    2    4    4    0    0 -0.23158920412E+03  0.42406352784E+03  0.30986452659E+03  0.57962725191E+03  0.80549929867E+02 0.  0.
         13    1    3    3    0    0  0.44937317523E+02 -0.52809516247E+02  0.29109397148E+02  0.75203487384E+02  0.00000000000E+00 0. -1.
        -13    1    3    3    0    0  0.32802174234E+03 -0.97425613608E+02  0.21546621403E+03  0.40437074946E+03  0.00000000000E+00 0.  1.
          2    1    6    6  502    0 -0.89630875854E+01  0.56313362154E+02  0.58269118387E+02  0.81528043358E+02  0.00000000000E+00 0. -1.
          3    1    5    5  503    0 -0.26513505610E+01 -0.56060913530E+01  0.60439667569E+01  0.86595296763E+01  0.00000000000E+00 0. -1.
         -4    1    5    5    0  503 -0.13871850519E+03 -0.26822230664E+03 -0.26391030171E+03  0.40104198883E+03  0.00000000000E+00 0.  1.
         -1    1    6    6    0  502 -0.22262611653E+03  0.36775016569E+03  0.25159540820E+03  0.49809920855E+03  0.00000000000E+00 0.  1.
<mgrwt>
<rscale>  0 0.14386522E+04</rscale>
<asrwt>0</asrwt>
<pdfrwt beam="1">  1        1 0.90179170E-01 0.14386522E+04</pdfrwt>
<pdfrwt beam="2">  1       -1 0.13580591E+00 0.14386522E+04</pdfrwt>
<totfact> 0.15623880E+01</totfact>
</mgrwt>
</event>
<event>
12    1  0.1472088E-007  0.1392246E+04  0.7818608E-02  0.8959451E-01
          2   -1    0    0  501    0  0.00000000000E+00  0.00000000000E+00  0.18637489500E+04  0.18637489500E+04  0.00000000000E+00 0.  1.
         -2   -1    0    0    0  501 -0.00000000000E+00 -0.00000000000E+00 -0.26000669193E+03  0.26000669193E+03  0.00000000000E+00 0. -1.
         23    2    1    2    0    0 -0.28962024616E+03 -0.55883308309E+02  0.87630084343E+03  0.92904889546E+03  0.90696476455E+02 0.  0.
        254    2    1    2    0    0  0.28962024616E+03  0.55883308309E+02  0.72744141462E+03  0.11947067464E+04  0.90063886611E+03 0.  0.
        -24    2    4    4    0    0 -0.29468277685E+03 -0.73468387564E+01  0.44000037391E+03  0.53568580317E+03  0.80417881516E+02 0.  0.
         24    2    4    4    0    0  0.58430302301E+03  0.63230147066E+02  0.28744104072E+03  0.65902094327E+03  0.79234951788E+02 0.  0.
         13    1    3    3    0    0 -0.26979325523E+03 -0.50181311334E+02  0.70525916925E+03  0.75676750748E+03  0.00000000000E+00 0.  1.
        -13    1    3    3    0    0 -0.19826990929E+02 -0.57019969757E+01  0.17104167418E+03  0.17228138798E+03  0.00000000000E+00 0. -1.
          4    1    6    6  502    0  0.34932785142E+02  0.21225490426E+02  0.97395274464E+01  0.42019987107E+02  0.00000000000E+00 0. -1.
          1    1    5    5  503    0 -0.99861804257E+02  0.31159694888E+02  0.12132613854E+03  0.16019781031E+03  0.00000000000E+00 0. -1.
         -2    1    5    5    0  503 -0.19482097259E+03 -0.38506533644E+02  0.31867423537E+03  0.37548799286E+03  0.00000000000E+00 0.  1.
         -3    1    6    6    0  502  0.54937023787E+03  0.42004656640E+02  0.27770151327E+03  0.61700095616E+03  0.00000000000E+00 0.  1.
<mgrwt>
<rscale>  0 0.13922460E+04</rscale>
<asrwt>0</asrwt>
<pdfrwt beam="1">  1        2 0.28673060E+00 0.13922460E+04</pdfrwt>
<pdfrwt beam="2">  1       -2 0.40001031E-01 0.13922460E+04</pdfrwt>
<totfact> 0.45815921E+01</totfact>
</mgrwt>
</event>
<event>
12    1  0.1472088E-007  0.2293422E+04  0.7818608E-02  0.8480519E-01
          2   -1    0    0  501    0  0.00000000000E+00  0.00000000000E+00  0.21139504200E+04  0.21139504200E+04  0.00000000000E+00 0. -1.
         -2   -1    0    0    0  501 -0.00000000000E+00 -0.00000000000E+00 -0.62203277931E+03  0.62203277931E+03  0.00000000000E+00 0.  1.
         23    2    1    2    0    0  0.28526910521E+03 -0.77019640935E+03  0.74062714272E+02  0.82960702147E+03  0.90451937831E+02 0.  0.
        254    2    1    2    0    0 -0.28526910521E+03  0.77019640935E+03  0.14178549264E+04  0.19063761779E+04  0.97435956801E+03 0.  0.
        -24    2    4    4    0    0 -0.52033978219E+03  0.89558196617E+02  0.75245894511E+03  0.92263675474E+03  0.79309252951E+02 0.  0.
         24    2    4    4    0    0  0.23507067698E+03  0.68063821273E+03  0.66539598133E+03  0.98373942314E+03  0.80404234055E+02 0.  0.
         11    1    3    3    0    0  0.19046296158E+03 -0.60025401809E+03  0.80692474032E+02  0.63489550426E+03  0.00000000000E+00 0. -1.
        -11    1    3    3    0    0  0.94806143632E+02 -0.16994239126E+03 -0.66297597601E+01  0.19471151720E+03  0.00000000000E+00 0.  1.
          2    1    6    6  502    0  0.20491797416E+03  0.64213684879E+03  0.63571475337E+03  0.92653351605E+03  0.00000000000E+00 0. -1.
          1    1    5    5  503    0 -0.48454386742E+03  0.70441996345E+02  0.66116141525E+03  0.82272671728E+03  0.00000000000E+00 0. -1.
         -2    1    5    5    0  503 -0.35795914774E+02  0.19116200273E+02  0.91297529861E+02  0.99910037464E+02  0.00000000000E+00 0.  1.
         -1    1    6    6    0  502  0.30152702816E+02  0.38501363942E+02  0.29681227965E+02  0.57205907090E+02  0.00000000000E+00 0.  1.
<mgrwt>
<rscale>  0 0.22934223E+04</rscale>
<asrwt>0</asrwt>
<pdfrwt beam="1">  1        2 0.32522314E+00 0.22934223E+04</pdfrwt>
<pdfrwt beam="2">  1       -2 0.95697352E-01 0.22934223E+04</pdfrwt>
<totfact> 0.47957625E+00</totfact>
</mgrwt>
</event>
<event>
12    1  0.1472088E-007  0.1264980E+04  0.7818608E-02  0.9057807E-01
          2   -1    0    0  501    0  0.00000000000E+00  0.00000000000E+00  0.25581656817E+04  0.25581656817E+04  0.00000000000E+00 0. -1.
         -2   -1    0    0    0  501 -0.00000000000E+00 -0.00000000000E+00 -0.15637905235E+03  0.15637905235E+03  0.00000000000E+00 0.  1.
         23    2    1    2    0    0 -0.22608371614E+03  0.10079020809E+03  0.22960417458E+03  0.35022448105E+03  0.93094561575E+02 0.  0.
        254    2    1    2    0    0  0.22608371614E+03 -0.10079020809E+03  0.21721824548E+04  0.23643202530E+04  0.90020060496E+03 0.  0.
        -24    2    4    4    0    0 -0.65627942743E+02 -0.43200168027E+03  0.14273677958E+04  0.14948748741E+04  0.79621519452E+02 0.  0.
         24    2    4    4    0    0  0.29171165888E+03  0.33121147218E+03  0.74481465901E+03  0.86944537885E+03  0.79935344468E+02 0.  0.
         11    1    3    3    0    0 -0.34330675992E+02  0.32670350774E+02  0.58107710853E+01  0.47746331737E+02  0.00000000000E+00 0.  1.
        -11    1    3    3    0    0 -0.19175304015E+03  0.68119857314E+02  0.22379340349E+03  0.30247814931E+03  0.00000000000E+00 0. -1.
          4    1    6    6  502    0  0.26248544365E+03  0.29123088287E+03  0.70161607232E+03  0.80372828008E+03  0.00000000000E+00 0. -1.
          3    1    5    5  503    0 -0.60329399699E+02 -0.40677394752E+03  0.13894382996E+04  0.14490146546E+04  0.00000000000E+00 0. -1.
         -4    1    5    5    0  503 -0.52985430444E+01 -0.25227732747E+02  0.37929496159E+02  0.45860219546E+02  0.00000000000E+00 0.  1.
         -1    1    6    6    0  502  0.29226215231E+02  0.39980589312E+02  0.43198586689E+02  0.65717098767E+02  0.00000000000E+00 0.  1.
<mgrwt>
<rscale>  0 0.12649799E+04</rscale>
<asrwt>0</asrwt>
<pdfrwt beam="1">  1        2 0.39356392E+00 0.12649799E+04</pdfrwt>
<pdfrwt beam="2">  1       -2 0.24058318E-01 0.12649799E+04</pdfrwt>
<totfact> 0.48943150E+01</totfact>
</mgrwt>
</event>
<event>
12    1  0.1472088E-007  0.1541017E+04  0.7818608E-02  0.8857626E-01
          1   -1    0    0  501    0  0.00000000000E+00  0.00000000000E+00  0.35040743874E+04  0.35040743874E+04  0.00000000000E+00 0. -1.
         -1   -1    0    0    0  501 -0.00000000000E+00 -0.00000000000E+00 -0.16942661645E+03  0.16942661645E+03  0.00000000000E+00 0.  1.
         23    2    1    2    0    0  0.10952249404E+03  0.17359442137E+03  0.22307085201E+04  0.22420681745E+04  0.93161136220E+02 0.  0.
        254    2    1    2    0    0 -0.10952249404E+03 -0.17359442137E+03  0.11039392508E+04  0.14314328294E+04  0.88779945694E+03 0.  0.
        -24    2    4    4    0    0 -0.19603663792E+03 -0.51181436914E+03  0.68691310032E+03  0.88204077429E+03  0.75907893264E+02 0.  0.
         24    2    4    4    0    0  0.86514143882E+02  0.33821994777E+03  0.41702615049E+03  0.54939205509E+03  0.77739242674E+02 0.  0.
         11    1    3    3    0    0  0.50408660610E+02  0.14583141366E+03  0.17765406562E+04  0.17832286834E+04  0.00000000000E+00 0.  1.
        -11    1    3    3    0    0  0.59113833427E+02  0.27763007708E+02  0.45416786392E+03  0.45883949102E+03  0.00000000000E+00 0. -1.
          2    1    6    6  502    0 -0.14517664660E+02  0.36628851379E+02  0.51834696630E+02  0.65109685265E+02  0.00000000000E+00 0. -1.
          3    1    5    5  503    0 -0.19206054801E+02 -0.10467401524E+03  0.98770732190E+02  0.14519359333E+03  0.00000000000E+00 0. -1.
         -4    1    5    5    0  503 -0.17683058312E+03 -0.40714035390E+03  0.58814236813E+03  0.73684718096E+03  0.00000000000E+00 0.  1.
         -1    1    6    6    0  502  0.10103180854E+03  0.30159109639E+03  0.36519145386E+03  0.48428236983E+03  0.00000000000E+00 0.  1.
<mgrwt>
<rscale>  0 0.15410172E+04</rscale>
<asrwt>0</asrwt>
<pdfrwt beam="1">  1        1 0.53908831E+00 0.15410172E+04</pdfrwt>
<pdfrwt beam="2">  1       -1 0.26065636E-01 0.15410172E+04</pdfrwt>
<totfact> 0.31515742E+00</totfact>
</mgrwt>
</event>
<event>
12    1  0.1472088E-007  0.1241296E+04  0.7818608E-02  0.9077459E-01
         -2   -1    0    0    0  501 -0.00000000000E+00  0.00000000000E+00  0.26119681625E+03  0.26119681625E+03  0.00000000000E+00 0.  1.
          2   -1    0    0  501    0  0.00000000000E+00 -0.00000000000E+00 -0.14747658595E+04  0.14747658595E+04  0.00000000000E+00 0. -1.
         23    2    1    2    0    0  0.13148460259E+02 -0.27246840188E+03 -0.18708787868E+03  0.34083036820E+03  0.82167837401E+02 0.  0.
        254    2    1    2    0    0 -0.13148460259E+02  0.27246840188E+03 -0.10264811645E+04  0.13951323075E+04  0.90460967401E+03 0.  0.
        -24    2    4    4    0    0  0.43334609105E+03  0.13071096577E+03 -0.60195858773E+03  0.75782747785E+03  0.84107988018E+02 0.  0.
         24    2    4    4    0    0 -0.44649455131E+03  0.14175743612E+03 -0.42452257682E+03  0.63730482968E+03  0.80532432348E+02 0.  0.
         11    1    3    3    0    0  0.35763433284E+02 -0.73435534637E+02 -0.77028044057E+02  0.11227252771E+03  0.00000000000E+00 0. -1.
        -11    1    3    3    0    0 -0.22614973025E+02 -0.19903286724E+03 -0.11005983463E+03  0.22855784048E+03  0.00000000000E+00 0.  1.
          2    1    6    6  502    0  0.27750755317E+01  0.41200059671E+00 -0.83110896789E+01  0.87718299316E+01  0.00000000000E+00 0. -1.
          1    1    5    5  503    0  0.32848005279E+03  0.13407141852E+03 -0.48127150569E+03  0.59791015423E+03  0.00000000000E+00 0. -1.
         -2    1    5    5    0  503  0.10486603825E+03 -0.33604527559E+01 -0.12068708204E+03  0.15991732362E+03  0.00000000000E+00 0.  1.
         -1    1    6    6    0  502 -0.44926962684E+03  0.14134543552E+03 -0.41621148714E+03  0.62853299975E+03  0.00000000000E+00 0.  1.
<mgrwt>
<rscale>  0 0.12412963E+04</rscale>
<asrwt>0</asrwt>
<pdfrwt beam="1">  1        2 0.22688706E+00 0.12412963E+04</pdfrwt>
<pdfrwt beam="2">  1       -2 0.40184125E-01 0.12412963E+04</pdfrwt>
<totfact> 0.75626981E+01</totfact>
</mgrwt>
</event>
<event>
12    1  0.1472088E-007  0.1399745E+04  0.7818608E-02  0.8954003E-01
         -1   -1    0    0    0  501 -0.00000000000E+00  0.00000000000E+00  0.28751197731E+03  0.28751197731E+03  0.00000000000E+00 0.  1.
          1   -1    0    0  501    0  0.00000000000E+00 -0.00000000000E+00 -0.17036572056E+04  0.17036572056E+04  0.00000000000E+00 0. -1.
         23    2    1    2    0    0  0.28378346000E+03 -0.22148181342E+03 -0.25894935118E+03  0.45268626999E+03  0.91010146209E+02 0.  0.
        254    2    1    2    0    0 -0.28378346000E+03  0.22148181342E+03 -0.11571958771E+04  0.15384829129E+04  0.94775531099E+03 0.  0.
        -24    2    4    4    0    0 -0.60234773185E+03  0.25553095055E+03 -0.92077881718E+03  0.11321115803E+04  0.75658068041E+02 0.  0.
         24    2    4    4    0    0  0.31856427184E+03 -0.34049137131E+02 -0.23641705994E+03  0.40637133266E+03  0.81253275296E+02 0.  0.
         11    1    3    3    0    0  0.56264314860E+01 -0.23365675470E+02  0.12886408262E+00  0.24033895385E+02  0.00000000000E+00 0. -1.
        -11    1    3    3    0    0  0.27815702852E+03 -0.19811613795E+03 -0.25907821526E+03  0.42865237460E+03  0.00000000000E+00 0.  1.
          4    1    6    6  502    0  0.68522432422E+02 -0.28534426698E+02 -0.23340793167E+02  0.77809574461E+02  0.00000000000E+00 0. -1.
          1    1    5    5  503    0 -0.32173817194E+03  0.16457364606E+03 -0.55364852793E+03  0.66115552539E+03  0.00000000000E+00 0. -1.
         -2    1    5    5    0  503 -0.28060955990E+03  0.90957304484E+02 -0.36713028925E+03  0.47095605488E+03  0.00000000000E+00 0.  1.
         -3    1    6    6    0  502  0.25004183942E+03 -0.55147104333E+01 -0.21307626677E+03  0.32856175820E+03  0.00000000000E+00 0.  1.
<mgrwt>
<rscale>  0 0.13997455E+04</rscale>
<asrwt>0</asrwt>
<pdfrwt beam="1">  1        1 0.26210110E+00 0.13997455E+04</pdfrwt>
<pdfrwt beam="2">  1       -1 0.44232613E-01 0.13997455E+04</pdfrwt>
<totfact> 0.23370966E+01</totfact>
</mgrwt>
</event>
<event>
12    1  0.1472088E-007  0.1792331E+04  0.7818608E-02  0.8710388E-01
         -1   -1    0    0    0  501 -0.00000000000E+00  0.00000000000E+00  0.32871878674E+03  0.32871878674E+03  0.00000000000E+00 0.  1.
          1   -1    0    0  501    0  0.00000000000E+00 -0.00000000000E+00 -0.24431603063E+04  0.24431603063E+04  0.00000000000E+00 0. -1.
         23    2    1    2    0    0 -0.60701516702E+03 -0.19381753648E+03 -0.50337613781E+03  0.81978706463E+03  0.11238614142E+03 0.  0.
        254    2    1    2    0    0  0.60701516702E+03  0.19381753648E+03 -0.16110653818E+04  0.19520920284E+04  0.89949929000E+03 0.  0.
        -24    2    4    4    0    0 -0.44653316871E+02  0.20060583834E+03 -0.10947137600E+04  0.11168120019E+04  0.81450660919E+02 0.  0.
         24    2    4    4    0    0  0.65166848389E+03 -0.67883018590E+01 -0.51635162177E+03  0.83528002654E+03  0.79723468879E+02 0.  0.
         13    1    3    3    0    0 -0.23031801289E+03 -0.75325620506E+02 -0.26239592248E+03  0.35717216619E+03  0.00000000000E+00 0. -1.
        -13    1    3    3    0    0 -0.37669715413E+03 -0.11849191597E+03 -0.24098021533E+03  0.46261489844E+03  0.00000000000E+00 0.  1.
          4    1    6    6  502    0  0.51150660342E+03  0.60363734646E+01 -0.36377680714E+03  0.62770136893E+03  0.00000000000E+00 0. -1.
          1    1    5    5  503    0 -0.55683739388E+02  0.13126326675E+03 -0.86278996090E+03  0.87449256181E+03  0.00000000000E+00 0. -1.
         -2    1    5    5    0  503  0.11030422517E+02  0.69342571588E+02 -0.23192379911E+03  0.24231944009E+03  0.00000000000E+00 0.  1.
         -3    1    6    6    0  502  0.14016188048E+03 -0.12824675324E+02 -0.15257481463E+03  0.20757865761E+03  0.00000000000E+00 0.  1.
<mgrwt>
<rscale>  0 0.17923311E+04</rscale>
<asrwt>0</asrwt>
<pdfrwt beam="1">  1        1 0.37587081E+00 0.17923311E+04</pdfrwt>
<pdfrwt beam="2">  1       -1 0.50572122E-01 0.17923311E+04</pdfrwt>
<totfact> 0.55063850E+00</totfact>
</mgrwt>
</event>
<event>
12    1  0.1472088E-007  0.1327160E+04  0.7818608E-02  0.9008300E-01
          1   -1    0    0  501    0  0.00000000000E+00  0.00000000000E+00  0.12466634941E+04  0.12466634941E+04  0.00000000000E+00 0. -1.
         -1   -1    0    0    0  501 -0.00000000000E+00 -0.00000000000E+00 -0.35321357411E+03  0.35321357411E+03  0.00000000000E+00 0.  1.
         23    2    1    2    0    0  0.75168967643E+02  0.14455890369E+01 -0.16719116858E+03  0.20464121531E+03  0.90954256241E+02 0.  0.
        254    2    1    2    0    0 -0.75168967643E+02 -0.14455890369E+01  0.10606410886E+04  0.13952358529E+04  0.90336653859E+03 0.  0.
        -24    2    4    4    0    0  0.40166600989E+03 -0.73294538141E+02  0.44532794208E+03  0.60941880111E+03  0.79791141858E+02 0.  0.
         24    2    4    4    0    0 -0.47683497754E+03  0.71848949104E+02  0.61531314648E+03  0.78581705179E+03  0.79776584076E+02 0.  0.
         11    1    3    3    0    0  0.41588257951E+02  0.45472652618E+02 -0.74643779394E+02  0.96793797001E+02  0.00000000000E+00 0. -1.
        -11    1    3    3    0    0  0.33580709692E+02 -0.44027063581E+02 -0.92547389181E+02  0.10784741831E+03  0.00000000000E+00 0.  1.
          4    1    6    6  502    0 -0.26307792964E+03  0.77024340577E+02  0.36827099675E+03  0.45909288074E+03  0.00000000000E+00 0. -1.
          1    1    5    5  503    0  0.20715728462E+03 -0.23652929288E+02  0.17199048278E+03  0.27028564113E+03  0.00000000000E+00 0. -1.
         -2    1    5    5    0  503  0.19450872527E+03 -0.49641608853E+02  0.27333745930E+03  0.33913315997E+03  0.00000000000E+00 0.  1.
         -3    1    6    6    0  502 -0.21375704790E+03 -0.51753914734E+01  0.24704214973E+03  0.32672417105E+03  0.00000000000E+00 0.  1.
<mgrwt>
<rscale>  0 0.13271601E+04</rscale>
<asrwt>0</asrwt>
<pdfrwt beam="1">  1        1 0.19179438E+00 0.13271601E+04</pdfrwt>
<pdfrwt beam="2">  1       -1 0.54340550E-01 0.13271601E+04</pdfrwt>
<totfact> 0.33134774E+01</totfact>
</mgrwt>
</event>
<event>
12    1  0.1472088E-007  0.2442575E+04  0.7818608E-02  0.8423734E-01
         -2   -1    0    0    0  501 -0.00000000000E+00  0.00000000000E+00  0.47723310854E+03  0.47723310854E+03  0.00000000000E+00 0.  1.
          2   -1    0    0  501    0  0.00000000000E+00 -0.00000000000E+00 -0.31253965365E+04  0.31253965365E+04  0.00000000000E+00 0. -1.
         23    2    1    2    0    0  0.85367665849E+03 -0.17890550218E+03 -0.19230857757E+04  0.21136378356E+04  0.91842166822E+02 0.  0.
        254    2    1    2    0    0 -0.85367665849E+03  0.17890550218E+03 -0.72507765225E+03  0.14889918094E+04  0.96466988689E+03 0.  0.
        -24    2    4    4    0    0 -0.10593152014E+04  0.16529274380E+03 -0.55743798094E+03  0.12110604146E+04  0.80373117434E+02 0.  0.
         24    2    4    4    0    0  0.20563854296E+03  0.13612758382E+02 -0.16763967131E+03  0.27793139481E+03  0.81671802233E+02 0.  0.
         13    1    3    3    0    0  0.38098278801E+02 -0.10838652945E+01 -0.49172610989E+02  0.62214140540E+02  0.00000000000E+00 0.  1.
        -13    1    3    3    0    0  0.81557837968E+03 -0.17782163688E+03 -0.18739131647E+04  0.20514236951E+04  0.00000000000E+00 0. -1.
          4    1    6    6  502    0  0.21527971372E+02  0.18608735570E+02  0.62480810590E+00  0.28462764730E+02  0.00000000000E+00 0. -1.
          3    1    5    5  503    0 -0.35979288503E+03  0.42608152532E+02 -0.22884699765E+03  0.42852925584E+03  0.00000000000E+00 0. -1.
         -4    1    5    5    0  503 -0.69952231641E+03  0.12268459126E+03 -0.32859098330E+03  0.78253115874E+03  0.00000000000E+00 0.  1.
         -3    1    6    6    0  502  0.18411057159E+03 -0.49959771883E+01 -0.16826447942E+03  0.24946863008E+03  0.00000000000E+00 0.  1.
<mgrwt>
<rscale>  0 0.24425746E+04</rscale>
<asrwt>0</asrwt>
<pdfrwt beam="1">  1        2 0.48083024E+00 0.24425746E+04</pdfrwt>
<pdfrwt beam="2">  1       -2 0.73420478E-01 0.24425746E+04</pdfrwt>
<totfact> 0.21753732E+00</totfact>
</mgrwt>
</event>
<event>
12    1  0.1936819E-007  0.2322888E+04  0.7818608E-02  0.8468951E-01
         -1   -1    0    0    0  501 -0.00000000000E+00  0.00000000000E+00  0.62776093841E+03  0.62776093841E+03  0.00000000000E+00 0.  1.
          1   -1    0    0  501    0  0.00000000000E+00 -0.00000000000E+00 -0.21488318763E+04  0.21488318763E+04  0.00000000000E+00 0. -1.
         23    2    1    2    0    0 -0.40660373013E+03  0.80856036676E+03 -0.89314898890E+03  0.12750517088E+04  0.94579509877E+02 0.  0.
        254    2    1    2    0    0  0.40660373013E+03 -0.80856036676E+03 -0.62792194897E+03  0.15015411059E+04  0.10204132784E+04 0.  0.
        -24    2    4    4    0    0 -0.29916087301E+03 -0.69176634327E+02 -0.38523306930E+02  0.31893943265E+03  0.77173064263E+02 0.  0.
         24    2    4    4    0    0  0.70576460314E+03 -0.73938373244E+03 -0.58939864204E+03  0.11826016732E+04  0.79774554141E+02 0.  0.
         13    1    3    3    0    0 -0.33764515225E+03  0.73488799198E+03 -0.80436979500E+03  0.11406469115E+04  0.00000000000E+00 0. -1.
        -13    1    3    3    0    0 -0.68958577880E+02  0.73672374779E+02 -0.88779193905E+02  0.13440479731E+03  0.00000000000E+00 0.  1.
          2    1    6    6  502    0  0.46280464080E+03 -0.43152999931E+03 -0.34982887940E+03  0.72303977809E+03  0.00000000000E+00 0. -1.
          3    1    5    5  503    0 -0.22646515204E+03 -0.85459823561E+02 -0.26956912590E+02  0.24354983406E+03  0.00000000000E+00 0. -1.
         -4    1    5    5    0  503 -0.72695720967E+02  0.16283189234E+02 -0.11566394340E+02  0.75389598597E+02  0.00000000000E+00 0.  1.
         -1    1    6    6    0  502  0.24295996234E+03 -0.30785373313E+03 -0.23956976264E+03  0.45956189515E+03  0.00000000000E+00 0.  1.
<mgrwt>
<rscale>  0 0.23228885E+04</rscale>
<asrwt>0</asrwt>
<pdfrwt beam="1">  1        1 0.33058951E+00 0.23228885E+04</pdfrwt>
<pdfrwt beam="2">  1       -1 0.96578608E-01 0.23228885E+04</pdfrwt>
<totfact> 0.21966289E+00</totfact>
</mgrwt>
</event>
<event>
12    1  0.1472088E-007  0.2269399E+04  0.7818608E-02  0.8490085E-01
          1   -1    0    0  501    0  0.00000000000E+00  0.00000000000E+00  0.29481329678E+04  0.29481329678E+04  0.00000000000E+00 0. -1.
         -1   -1    0    0    0  501 -0.00000000000E+00 -0.00000000000E+00 -0.43673165917E+03  0.43673165917E+03  0.00000000000E+00 0.  1.
         23    2    1    2    0    0 -0.22810580372E+03 -0.76026567314E+03  0.26790010617E+03  0.84259525541E+03  0.90333526990E+02 0.  0.
        254    2    1    2    0    0  0.22810580372E+03  0.76026567314E+03  0.22435012024E+04  0.25422693715E+04  0.89431524681E+03 0.  0.
        -24    2    4    4    0    0 -0.56813814605E+00  0.75960612258E+03  0.91700152978E+03  0.11936603105E+04  0.83254712213E+02 0.  0.
         24    2    4    4    0    0  0.22867394187E+03  0.65955056028E+00  0.13264996727E+04  0.13486090610E+04  0.82781707769E+02 0.  0.
         13    1    3    3    0    0 -0.22248115889E+03 -0.62732887481E+03  0.23032144704E+03  0.70433468762E+03  0.00000000000E+00 0.  1.
        -13    1    3    3    0    0 -0.56246448334E+01 -0.13293679834E+03  0.37578659138E+02  0.13826056778E+03  0.00000000000E+00 0. -1.
          2    1    6    6  502    0  0.70853096610E+02  0.35072459487E+02  0.34806450539E+03  0.35693015931E+03  0.00000000000E+00 0. -1.
          1    1    5    5  503    0  0.12124079296E+02  0.20562989205E+02  0.18533671264E+02  0.30221297033E+02  0.00000000000E+00 0. -1.
         -2    1    5    5    0  503 -0.12692217442E+02  0.73904313338E+03  0.89846785852E+03  0.11634390135E+04  0.00000000000E+00 0.  1.
         -1    1    6    6    0  502  0.15782084526E+03 -0.34412908927E+02  0.97843516727E+03  0.99167890168E+03  0.00000000000E+00 0.  1.
<mgrwt>
<rscale>  0 0.22693990E+04</rscale>
<asrwt>0</asrwt>
<pdfrwt beam="1">  1        1 0.45355891E+00 0.22693990E+04</pdfrwt>
<pdfrwt beam="2">  1       -1 0.67189488E-01 0.22693990E+04</pdfrwt>
<totfact> 0.13266104E+00</totfact>
</mgrwt>
</event>
<event>
12    1  0.1649609E-007  0.1661350E+04  0.7818608E-02  0.8783720E-01
         -2   -1    0    0    0  501 -0.00000000000E+00  0.00000000000E+00  0.10690277944E+04  0.10690277944E+04  0.00000000000E+00 0.  1.
          2   -1    0    0  501    0  0.00000000000E+00 -0.00000000000E+00 -0.64546594190E+03  0.64546594190E+03  0.00000000000E+00 0. -1.
         23    2    1    2    0    0 -0.38153099627E+03 -0.30657512170E+03 -0.18043622433E+03  0.52961316401E+03  0.91535053853E+02 0.  0.
        254    2    1    2    0    0  0.38153099627E+03  0.30657512170E+03  0.60399807687E+03  0.11848805723E+04  0.89418906695E+03 0.  0.
        -24    2    4    4    0    0  0.63168404742E+03  0.16538846523E+03  0.20972824523E+03  0.69048932340E+03  0.80071772070E+02 0.  0.
         24    2    4    4    0    0 -0.25015305115E+03  0.14118665647E+03  0.39426983164E+03  0.49439124893E+03  0.80397673578E+02 0.  0.
         11    1    3    3    0    0 -0.33603517755E+03 -0.29857100728E+03 -0.14832644599E+03  0.47335506918E+03  0.00000000000E+00 0. -1.
        -11    1    3    3    0    0 -0.45495818722E+02 -0.80041144138E+01 -0.32109778339E+02  0.56258094828E+02  0.00000000000E+00 0.  1.
          2    1    6    6  502    0 -0.15315522757E+02  0.76750330268E+01  0.71356547226E+02  0.73384114093E+02  0.00000000000E+00 0. -1.
          3    1    5    5  503    0  0.66591227250E+01 -0.66221500518E+00 -0.57569308853E+01  0.88274966665E+01  0.00000000000E+00 0. -1.
         -4    1    5    5    0  503  0.62502492469E+03  0.16605068023E+03  0.21548517612E+03  0.68166182673E+03  0.00000000000E+00 0.  1.
         -1    1    6    6    0  502 -0.23483752839E+03  0.13351162344E+03  0.32291328441E+03  0.42100713483E+03  0.00000000000E+00 0.  1.
<mgrwt>
<rscale>  0 0.16613501E+04</rscale>
<asrwt>0</asrwt>
<pdfrwt beam="1">  1        2 0.99302453E-01 0.16613501E+04</pdfrwt>
<pdfrwt beam="2">  1       -2 0.16446581E+00 0.16613501E+04</pdfrwt>
<totfact> 0.10103668E+01</totfact>
</mgrwt>
</event>
<event>
12    1  0.1472088E-007  0.1980860E+04  0.7818608E-02  0.8615622E-01
         -1   -1    0    0    0  501 -0.00000000000E+00  0.00000000000E+00  0.44113966649E+03  0.44113966649E+03  0.00000000000E+00 0.  1.
          1   -1    0    0  501    0  0.00000000000E+00 -0.00000000000E+00 -0.22236759335E+04  0.22236759335E+04  0.00000000000E+00 0. -1.
         23    2    1    2    0    0 -0.52726522110E+03  0.45619286335E+03 -0.22982520652E+03  0.73993427769E+03  0.92534143900E+02 0.  0.
        254    2    1    2    0    0  0.52726522110E+03 -0.45619286335E+03 -0.15527110605E+04  0.19248813223E+04  0.89896380660E+03 0.  0.
        -24    2    4    4    0    0  0.12813000093E+03 -0.39653643219E+03 -0.14352423126E+04  0.14966140768E+04  0.79213382151E+02 0.  0.
         24    2    4    4    0    0  0.39913522017E+03 -0.59656431165E+02 -0.11746874791E+03  0.42826724547E+03  0.82134724981E+02 0.  0.
         13    1    3    3    0    0 -0.33248437729E+03  0.31038216649E+03 -0.10646640441E+03  0.46713814412E+03  0.00000000000E+00 0.  1.
        -13    1    3    3    0    0 -0.19478084381E+03  0.14581069686E+03 -0.12335880211E+03  0.27279613357E+03  0.00000000000E+00 0. -1.
          4    1    6    6  502    0  0.47175315660E+02  0.13331150245E+02  0.31426563544E+01  0.49123377972E+02  0.00000000000E+00 0. -1.
          1    1    5    5  503    0  0.39826269146E+01 -0.23597329848E+02 -0.17134721286E+03  0.17301029636E+03  0.00000000000E+00 0. -1.
         -2    1    5    5    0  503  0.12414737402E+03 -0.37293910234E+03 -0.12638950997E+04  0.13236037804E+04  0.00000000000E+00 0.  1.
         -3    1    6    6    0  502  0.35195990451E+03 -0.72987581410E+02 -0.12061140426E+03  0.37914386750E+03  0.00000000000E+00 0.  1.
<mgrwt>
<rscale>  0 0.19808601E+04</rscale>
<asrwt>0</asrwt>
<pdfrwt beam="1">  1        1 0.34210398E+00 0.19808601E+04</pdfrwt>
<pdfrwt beam="2">  1       -1 0.67867643E-01 0.19808601E+04</pdfrwt>
<totfact> 0.42877762E+00</totfact>
</mgrwt>
</event>
<event>
12    1  0.1472088E-007  0.1982275E+04  0.7818608E-02  0.8614953E-01
          2   -1    0    0  501    0  0.00000000000E+00  0.00000000000E+00  0.32406755792E+04  0.32406755792E+04  0.00000000000E+00 0.  1.
         -2   -1    0    0    0  501 -0.00000000000E+00 -0.00000000000E+00 -0.30313243548E+03  0.30313243548E+03  0.00000000000E+00 0. -1.
         23    2    1    2    0    0 -0.64802341242E+03 -0.66476793936E+02  0.39469474897E+03  0.76711859992E+03  0.91287974578E+02 0.  0.
        254    2    1    2    0    0  0.64802341242E+03  0.66476793936E+02  0.25428483947E+04  0.27766894148E+04  0.90530251308E+03 0.  0.
        -24    2    4    4    0    0  0.27017101976E+03 -0.70954178774E+02  0.22568731877E+04  0.22753195337E+04  0.74669403886E+02 0.  0.
         24    2    4    4    0    0  0.37785239267E+03  0.13743097271E+03  0.28597520706E+03  0.50136988102E+03  0.89051870518E+02 0.  0.
         11    1    3    3    0    0 -0.17170551533E+03 -0.25306660102E+02  0.15316047181E+03  0.23147643760E+03  0.00000000000E+00 0.  1.
        -11    1    3    3    0    0 -0.47631789709E+03 -0.41170133834E+02  0.24153427716E+03  0.53564216232E+03  0.00000000000E+00 0. -1.
          4    1    6    6  502    0  0.77061433056E+02 -0.16998629409E+01  0.30397134518E+02  0.82857345997E+02  0.00000000000E+00 0. -1.
          1    1    5    5  503    0  0.50937593009E+02  0.13817683774E+02  0.33632241480E+03  0.34043844299E+03  0.00000000000E+00 0. -1.
         -4    1    5    5    0  503  0.21923342675E+03 -0.84771862548E+02  0.19205507729E+04  0.19348810907E+04  0.00000000000E+00 0.  1.
         -3    1    6    6    0  502  0.30079095961E+03  0.13913083565E+03  0.25557807254E+03  0.41851253503E+03  0.00000000000E+00 0.  1.
<mgrwt>
<rscale>  0 0.19822753E+04</rscale>
<asrwt>0</asrwt>
<pdfrwt beam="1">  1        2 0.49856545E+00 0.19822753E+04</pdfrwt>
<pdfrwt beam="2">  1       -2 0.46635762E-01 0.19822753E+04</pdfrwt>
<totfact> 0.49650893E+00</totfact>
</mgrwt>
</event>
<event>
12    1  0.1472088E-007  0.1316759E+04  0.7818608E-02  0.9016380E-01
         -2   -1    0    0    0  501 -0.00000000000E+00  0.00000000000E+00  0.35113964012E+03  0.35113964012E+03  0.00000000000E+00 0.  1.
          2   -1    0    0  501    0  0.00000000000E+00 -0.00000000000E+00 -0.12344471645E+04  0.12344471645E+04  0.00000000000E+00 0. -1.
         23    2    1    2    0    0 -0.84448747924E+02  0.18241400379E+03  0.95994138230E+02  0.24089875298E+03  0.91710821650E+02 0.  0.
        254    2    1    2    0    0  0.84448747924E+02 -0.18241400379E+03 -0.97930166258E+03  0.13446880516E+04  0.89930403646E+03 0.  0.
        -24    2    4    4    0    0  0.28675230750E+03 -0.43361639470E+03 -0.34430059448E+03  0.62803601205E+03  0.75075092152E+02 0.  0.
         24    2    4    4    0    0 -0.20230355958E+03  0.25120239091E+03 -0.63500106810E+03  0.71665203956E+03  0.79589056369E+02 0.  0.
         13    1    3    3    0    0 -0.32755477229E+02  0.44947897225E+01  0.19480677136E+01  0.33119773414E+02  0.00000000000E+00 0. -1.
        -13    1    3    3    0    0 -0.51693270695E+02  0.17791921407E+03  0.94046070516E+02  0.20777897957E+03  0.00000000000E+00 0.  1.
          2    1    6    6  502    0 -0.10130069328E+03  0.13577347765E+03 -0.24770225596E+03  0.30008777932E+03  0.00000000000E+00 0. -1.
          3    1    5    5  503    0  0.23127428547E+02 -0.22335114563E+02 -0.44361336060E+02  0.54787438622E+02  0.00000000000E+00 0. -1.
         -4    1    5    5    0  503  0.26362487895E+03 -0.41128128014E+03 -0.29993925842E+03  0.57324857343E+03  0.00000000000E+00 0.  1.
         -1    1    6    6    0  502 -0.10100286630E+03  0.11542891326E+03 -0.38729881214E+03  0.41656426024E+03  0.00000000000E+00 0.  1.
<mgrwt>
<rscale>  0 0.13167586E+04</rscale>
<asrwt>0</asrwt>
<pdfrwt beam="1">  1        2 0.18991495E+00 0.13167586E+04</pdfrwt>
<pdfrwt beam="2">  1       -2 0.54021484E-01 0.13167586E+04</pdfrwt>
<totfact> 0.57073174E+01</totfact>
</mgrwt>
</event>
<event>
12    1  0.1472088E-007  0.1477759E+04  0.7818608E-02  0.8899379E-01
          1   -1    0    0  501    0  0.00000000000E+00  0.00000000000E+00  0.40806893574E+03  0.40806893574E+03  0.00000000000E+00 0.  1.
         -1   -1    0    0    0  501 -0.00000000000E+00 -0.00000000000E+00 -0.13378687992E+04  0.13378687992E+04  0.00000000000E+00 0. -1.
         23    2    1    2    0    0 -0.22129787461E+03 -0.34311028979E+03 -0.51547726358E+03  0.66376039808E+03  0.90352844611E+02 0.  0.
        254    2    1    2    0    0  0.22129787461E+03  0.34311028979E+03 -0.41432259993E+03  0.10821773369E+04  0.91254980764E+03 0.  0.
        -24    2    4    4    0    0  0.23211975079E+03  0.28614709462E+03 -0.69115913408E+03  0.78765504374E+03  0.83305347001E+02 0.  0.
         24    2    4    4    0    0 -0.10821876175E+02  0.56963195166E+02  0.27683653415E+03  0.29452229317E+03  0.82115747110E+02 0.  0.
         11    1    3    3    0    0 -0.22567407431E+03 -0.33972597826E+03 -0.51652059254E+03  0.65813072459E+03  0.00000000000E+00 0.  1.
        -11    1    3    3    0    0  0.43761997006E+01 -0.33843115237E+01  0.10433289666E+01  0.56296734933E+01  0.00000000000E+00 0. -1.
          2    1    6    6  502    0  0.12700485464E+02 -0.16146211008E+02  0.93857776537E+02  0.96079574715E+02  0.00000000000E+00 0. -1.
          3    1    5    5  503    0  0.23489543753E+03  0.26224304994E+03 -0.62621543861E+03  0.71839617159E+03  0.00000000000E+00 0. -1.
         -4    1    5    5    0  503 -0.27756867371E+01  0.23904044677E+02 -0.64943695474E+02  0.69258872144E+02  0.00000000000E+00 0.  1.
         -1    1    6    6    0  502 -0.23522361639E+02  0.73109406174E+02  0.18297875761E+03  0.19844271845E+03  0.00000000000E+00 0.  1.
<mgrwt>
<rscale>  0 0.14777587E+04</rscale>
<asrwt>0</asrwt>
<pdfrwt beam="1">  1        1 0.62779835E-01 0.14777587E+04</pdfrwt>
<pdfrwt beam="2">  1       -1 0.20582597E+00 0.14777587E+04</pdfrwt>
<totfact> 0.77692729E+00</totfact>
</mgrwt>
</event>
<event>
12    1  0.1472088E-007  0.1096672E+04  0.7818608E-02  0.9208441E-01
         -2   -1    0    0    0  501 -0.00000000000E+00  0.00000000000E+00  0.26067699394E+03  0.26067699394E+03  0.00000000000E+00 0.  1.
          2   -1    0    0  501    0  0.00000000000E+00 -0.00000000000E+00 -0.11534297789E+04  0.11534297789E+04  0.00000000000E+00 0. -1.
         23    2    1    2    0    0  0.55999977190E+02 -0.14362544345E+03 -0.17895951514E+03  0.25221638723E+03  0.88443951034E+02 0.  0.
        254    2    1    2    0    0 -0.55999977190E+02  0.14362544345E+03 -0.71379326980E+03  0.11618903856E+04  0.90372792956E+03 0.  0.
        -24    2    4    4    0    0 -0.24950213835E+02  0.10980145170E+03 -0.92266803799E+03  0.93297735331E+03  0.80321612827E+02 0.  0.
         24    2    4    4    0    0 -0.31049763355E+02  0.33823991759E+02  0.20887476819E+03  0.22891303229E+03  0.81635515203E+02 0.  0.
         13    1    3    3    0    0 -0.24278977973E+02 -0.30545875047E+02 -0.37448785005E+02  0.54082628932E+02  0.00000000000E+00 0.  1.
        -13    1    3    3    0    0  0.80278955164E+02 -0.11307956841E+03 -0.14151073013E+03  0.19813375829E+03  0.00000000000E+00 0. -1.
          2    1    6    6  502    0 -0.72658327796E+01  0.24331236227E+02  0.20030598421E+03  0.20190910998E+03  0.00000000000E+00 0. -1.
          3    1    5    5  503    0 -0.23669617455E+01  0.10951276256E+03 -0.84569048702E+03  0.85275497507E+03  0.00000000000E+00 0. -1.
         -2    1    5    5    0  503 -0.22583252090E+02  0.28868914079E+00 -0.76977550966E+02  0.80222378231E+02  0.00000000000E+00 0.  1.
         -1    1    6    6    0  502 -0.23783930576E+02  0.94927555320E+01  0.85687839798E+01  0.27003922310E+02  0.00000000000E+00 0.  1.
<mgrwt>
<rscale>  0 0.10966724E+04</rscale>
<asrwt>0</asrwt>
<pdfrwt beam="1">  1        2 0.17745073E+00 0.10966724E+04</pdfrwt>
<pdfrwt beam="2">  1       -2 0.40104154E-01 0.10966724E+04</pdfrwt>
<totfact> 0.11797303E+02</totfact>
</mgrwt>
</event>
<event>
12    1  0.1472088E-007  0.1380169E+04  0.7818608E-02  0.8968300E-01
          1   -1    0    0  501    0  0.00000000000E+00  0.00000000000E+00  0.69210616623E+03  0.69210616623E+03  0.00000000000E+00 0. -1.
         -1   -1    0    0    0  501 -0.00000000000E+00 -0.00000000000E+00 -0.68806888151E+03  0.68806888151E+03  0.00000000000E+00 0.  1.
         23    2    1    2    0    0  0.29632217160E+03 -0.62099027380E+02  0.24286450681E+03  0.39959589309E+03  0.95029419235E+02 0.  0.
        254    2    1    2    0    0 -0.29632217160E+03  0.62099027380E+02 -0.23882722208E+03  0.98057915465E+03  0.90157302419E+03 0.  0.
        -24    2    4    4    0    0 -0.58916208270E+03  0.11057508573E+03 -0.28463826538E+03  0.66932305556E+03  0.87381927799E+02 0.  0.
         24    2    4    4    0    0  0.29283991110E+03 -0.48476058347E+02  0.45811043296E+02  0.31125609909E+03  0.81710254980E+02 0.  0.
         13    1    3    3    0    0  0.12383631318E+03 -0.65262812818E+01  0.15412007571E+03  0.19781562766E+03  0.00000000000E+00 0. -1.
        -13    1    3    3    0    0  0.17248585843E+03 -0.55572746098E+02  0.88744431096E+02  0.20178026543E+03  0.00000000000E+00 0.  1.
          2    1    6    6  502    0  0.12998872711E+03 -0.25621838804E+01 -0.16267074889E+02  0.13102767527E+03  0.00000000000E+00 0. -1.
          3    1    5    5  503    0 -0.17739288262E+03  0.52304361172E+02 -0.48964318989E+02  0.19131514717E+03  0.00000000000E+00 0. -1.
         -4    1    5    5    0  503 -0.41176920008E+03  0.58270724555E+02 -0.23567394639E+03  0.47800790839E+03  0.00000000000E+00 0.  1.
         -1    1    6    6    0  502  0.16285118399E+03 -0.45913874467E+02  0.62078118185E+02  0.18022842382E+03  0.00000000000E+00 0.  1.
<mgrwt>
<rscale>  0 0.13801691E+04</rscale>
<asrwt>0</asrwt>
<pdfrwt beam="1">  1        1 0.10647787E+00 0.13801691E+04</pdfrwt>
<pdfrwt beam="2">  1       -1 0.10585675E+00 0.13801691E+04</pdfrwt>
<totfact> 0.22621691E+01</totfact>
</mgrwt>
</event>
<event>
12    1  0.1472088E-007  0.1237213E+04  0.7818608E-02  0.9080894E-01
          1   -1    0    0  501    0  0.00000000000E+00  0.00000000000E+00  0.30979815403E+04  0.30979815403E+04  0.00000000000E+00 0. -1.
         -1   -1    0    0    0  501 -0.00000000000E+00 -0.00000000000E+00 -0.12352358648E+03  0.12352358648E+03  0.00000000000E+00 0.  1.
         23    2    1    2    0    0 -0.20775705619E+03  0.12096375646E+02  0.11953084818E+04  0.12166065997E+04  0.89777141178E+02 0.  0.
        254    2    1    2    0    0  0.20775705619E+03 -0.12096375646E+02  0.17791494719E+04  0.20048985270E+04  0.90051981842E+03 0.  0.
        -24    2    4    4    0    0  0.29268962955E+03  0.39549835090E+03  0.90518939687E+03  0.10333606247E+04  0.79875976721E+02 0.  0.
         24    2    4    4    0    0 -0.84932573355E+02 -0.40759472655E+03  0.87396007508E+03  0.97153790231E+03  0.82052907752E+02 0.  0.
         11    1    3    3    0    0 -0.12012064816E+03  0.72008612473E+01  0.91494942809E+03  0.92282895408E+03  0.00000000000E+00 0. -1.
        -11    1    3    3    0    0 -0.87636408035E+02  0.48955143985E+01  0.28035905373E+03  0.29377764565E+03  0.00000000000E+00 0.  1.
          4    1    6    6  502    0 -0.96974398435E+02 -0.39129289653E+03  0.81625189114E+03  0.91037427172E+03  0.00000000000E+00 0. -1.
          1    1    5    5  503    0  0.20783485814E+03  0.30391827568E+03  0.60476828296E+03  0.70802988823E+03  0.00000000000E+00 0. -1.
         -2    1    5    5    0  503  0.84854771412E+02  0.91580075223E+02  0.30042111391E+03  0.32533073647E+03  0.00000000000E+00 0.  1.
         -3    1    6    6    0  502  0.12041825079E+02 -0.16301830015E+02  0.57708183941E+02  0.61163630589E+02  0.00000000000E+00 0.  1.
<mgrwt>
<rscale>  0 0.12372127E+04</rscale>
<asrwt>0</asrwt>
<pdfrwt beam="1">  1        1 0.47661249E+00 0.12372127E+04</pdfrwt>
<pdfrwt beam="2">  1       -1 0.19003631E-01 0.12372127E+04</pdfrwt>
<totfact> 0.11286638E+01</totfact>
</mgrwt>
</event>
<event>
12    1  0.1472088E-007  0.1120237E+04  0.7818608E-02  0.9185689E-01
          1   -1    0    0  501    0  0.00000000000E+00  0.00000000000E+00  0.20902414811E+04  0.20902414811E+04  0.00000000000E+00 0. -1.
         -1   -1    0    0    0  501 -0.00000000000E+00 -0.00000000000E+00 -0.15009411853E+03  0.15009411853E+03  0.00000000000E+00 0.  1.
         23    2    1    2    0    0  0.64135768505E+02 -0.38841517491E+02  0.65641970603E+03  0.66666352802E+03  0.89058232923E+02 0.  0.
        254    2    1    2    0    0 -0.64135768505E+02  0.38841517491E+02  0.12837276566E+04  0.15736720716E+04  0.90711908397E+03 0.  0.
        -24    2    4    4    0    0  0.31855219937E+03  0.48224562472E+02  0.10859200962E+04  0.11354049609E+04  0.78235910079E+02 0.  0.
         24    2    4    4    0    0 -0.38268796787E+03 -0.93830449808E+01  0.19780756032E+03  0.43826711075E+03  0.80075633954E+02 0.  0.
         11    1    3    3    0    0  0.28720615123E+02  0.83588263499E+01  0.57234692309E+02  0.64579824363E+02  0.00000000000E+00 0.  1.
        -11    1    3    3    0    0  0.35415153381E+02 -0.47200343841E+02  0.59918501372E+03  0.60208370366E+03  0.00000000000E+00 0. -1.
          4    1    6    6  502    0 -0.36694373640E+03  0.48720648756E+01  0.19808977566E+03  0.41702638036E+03  0.00000000000E+00 0. -1.
          1    1    5    5  503    0  0.25185575751E+03  0.42130406991E+02  0.95226737363E+03  0.98591046483E+03  0.00000000000E+00 0. -1.
         -2    1    5    5    0  503  0.66696441860E+02  0.60941554810E+01  0.13365272260E+03  0.14949449604E+03  0.00000000000E+00 0.  1.
         -1    1    6    6    0  502 -0.15744231471E+02 -0.14255109856E+02 -0.28221533342E+00  0.21240730381E+02  0.00000000000E+00 0.  1.
<mgrwt>
<rscale>  0 0.11202374E+04</rscale>
<asrwt>0</asrwt>
<pdfrwt beam="1">  1        1 0.32157559E+00 0.11202374E+04</pdfrwt>
<pdfrwt beam="2">  1       -1 0.23091404E-01 0.11202374E+04</pdfrwt>
<totfact> 0.41463315E+01</totfact>
</mgrwt>
</event>
<event>
12    1  0.1472088E-007  0.1344637E+04  0.7818608E-02  0.8994898E-01
         -1   -1    0    0    0  501 -0.00000000000E+00  0.00000000000E+00  0.88770159370E+03  0.88770159370E+03  0.00000000000E+00 0.  1.
          1   -1    0    0  501    0  0.00000000000E+00 -0.00000000000E+00 -0.50919394655E+03  0.50919394655E+03  0.00000000000E+00 0. -1.
         23    2    1    2    0    0  0.10845505306E+03 -0.17741268836E+03 -0.20387004846E+03  0.30534301703E+03  0.91834638680E+02 0.  0.
        254    2    1    2    0    0 -0.10845505306E+03  0.17741268836E+03  0.58237769561E+03  0.10915525232E+04  0.89949172875E+03 0.  0.
        -24    2    4    4    0    0  0.76264007288E+00 -0.26421292814E+03 -0.74115762909E+02  0.28852192943E+03  0.89121851603E+02 0.  0.
         24    2    4    4    0    0 -0.10921769313E+03  0.44162561650E+03  0.65649345852E+03  0.80303059380E+03  0.83143152801E+02 0.  0.
         13    1    3    3    0    0  0.48985995589E+02 -0.12328294285E+03 -0.72132769717E+02  0.15100148420E+03  0.00000000000E+00 0.  1.
        -13    1    3    3    0    0  0.59469057469E+02 -0.54129745508E+02 -0.13173727875E+03  0.15434153283E+03  0.00000000000E+00 0. -1.
          2    1    6    6  502    0 -0.69502361645E+02  0.38454703740E+03  0.52736222577E+03  0.65636721385E+03  0.00000000000E+00 0. -1.
          1    1    5    5  503    0 -0.21894984402E+02 -0.22860301736E+03 -0.85098913176E+02  0.24490927894E+03  0.00000000000E+00 0. -1.
         -4    1    5    5    0  503  0.22657624475E+02 -0.35609910777E+02  0.10983150267E+02  0.43612650483E+02  0.00000000000E+00 0.  1.
         -1    1    6    6    0  502 -0.39715331486E+02  0.57078579100E+02  0.12913123275E+03  0.14666337995E+03  0.00000000000E+00 0.  1.
<mgrwt>
<rscale>  0 0.13446372E+04</rscale>
<asrwt>0</asrwt>
<pdfrwt beam="1">  1        1 0.78337531E-01 0.13446372E+04</pdfrwt>
<pdfrwt beam="2">  1       -1 0.13656948E+00 0.13446372E+04</pdfrwt>
<totfact> 0.18926425E+01</totfact>
</mgrwt>
</event>
<event>
12    1  0.1472088E-007  0.1745244E+04  0.7818608E-02  0.8735972E-01
          2   -1    0    0  501    0  0.00000000000E+00  0.00000000000E+00  0.76224168684E+03  0.76224168684E+03  0.00000000000E+00 0. -1.
         -2   -1    0    0    0  501 -0.00000000000E+00 -0.00000000000E+00 -0.99898673185E+03  0.99898673185E+03  0.00000000000E+00 0.  1.
         23    2    1    2    0    0  0.16676213352E+03 -0.38467912427E+03  0.39296153423E+03  0.58219904097E+03  0.93537789706E+02 0.  0.
        254    2    1    2    0    0 -0.16676213352E+03  0.38467912427E+03 -0.62970657925E+03  0.11790293777E+04  0.90431867157E+03 0.  0.
        -24    2    4    4    0    0  0.87441419872E+02 -0.11473170208E+02 -0.68705945285E+03  0.69759102046E+03  0.82491845264E+02 0.  0.
         24    2    4    4    0    0 -0.25420355340E+03  0.39615229448E+03  0.57352873602E+02  0.48143835726E+03  0.83291372600E+02 0.  0.
         11    1    3    3    0    0 -0.10324403825E+02 -0.10812060677E+02  0.73380487828E+01  0.16653556087E+02  0.00000000000E+00 0.  1.
        -11    1    3    3    0    0  0.17708653735E+03 -0.37386706359E+03  0.38562348545E+03  0.56554548489E+03  0.00000000000E+00 0. -1.
          4    1    6    6  502    0 -0.21380805270E+02  0.19554014962E+02  0.23651539105E+02  0.37401786550E+02  0.00000000000E+00 0. -1.
          3    1    5    5  503    0  0.30246625549E+02  0.22639895939E+02 -0.10233684136E+03  0.10908827776E+03  0.00000000000E+00 0. -1.
         -4    1    5    5    0  503  0.57194794323E+02 -0.34113066148E+02 -0.58472261149E+03  0.58850274270E+03  0.00000000000E+00 0.  1.
         -3    1    6    6    0  502 -0.23282274813E+03  0.37659827951E+03  0.33701334498E+02  0.44403657071E+03  0.00000000000E+00 0.  1.
<mgrwt>
<rscale>  0 0.17452442E+04</rscale>
<asrwt>0</asrwt>
<pdfrwt beam="1">  1        2 0.11726795E+00 0.17452442E+04</pdfrwt>
<pdfrwt beam="2">  1       -2 0.15369027E+00 0.17452442E+04</pdfrwt>
<totfact> 0.97722235E+00</totfact>
</mgrwt>
</event>
<event>
12    1  0.1472088E-007  0.1280445E+04  0.7818608E-02  0.9045218E-01
         -1   -1    0    0    0  501 -0.00000000000E+00  0.00000000000E+00  0.67957532780E+03  0.67957532780E+03  0.00000000000E+00 0.  1.
          1   -1    0    0  501    0  0.00000000000E+00 -0.00000000000E+00 -0.60314854228E+03  0.60314854228E+03  0.00000000000E+00 0. -1.
         23    2    1    2    0    0  0.24968455891E+02 -0.31761862525E+03 -0.59853778230E+01  0.32688825023E+03  0.72904653455E+02 0.  0.
        254    2    1    2    0    0 -0.24968455891E+02  0.31761862525E+03  0.82412163338E+02  0.95583561984E+03  0.89739899298E+03 0.  0.
        -24    2    4    4    0    0  0.29642073134E+03 -0.15234974336E+03  0.15530902071E+03  0.37613695604E+03  0.79261740563E+02 0.  0.
         24    2    4    4    0    0 -0.32138918723E+03  0.46996836861E+03 -0.72896857369E+02  0.57969866380E+03  0.81088296547E+02 0.  0.
         13    1    3    3    0    0 -0.79620715385E+01 -0.13323989624E+02  0.12974589949E+02  0.20230256228E+02  0.00000000000E+00 0. -1.
        -13    1    3    3    0    0  0.32930527430E+02 -0.30429463563E+03 -0.18959967772E+02  0.30665799400E+03  0.00000000000E+00 0.  1.
          2    1    6    6  502    0 -0.56437985298E+01  0.45306705332E+02 -0.10526625212E+02  0.46854667304E+02  0.00000000000E+00 0. -1.
          1    1    5    5  503    0  0.26580052951E+03 -0.11156728981E+03  0.11210051940E+03  0.30929550286E+03  0.00000000000E+00 0. -1.
         -2    1    5    5    0  503  0.30620201833E+02 -0.40782453546E+02  0.43208501308E+02  0.66841453177E+02  0.00000000000E+00 0.  1.
         -1    1    6    6    0  502 -0.31574538870E+03  0.42466166328E+03 -0.62370232157E+02  0.53284399650E+03  0.00000000000E+00 0.  1.
<mgrwt>
<rscale>  0 0.12804450E+04</rscale>
<asrwt>0</asrwt>
<pdfrwt beam="1">  1        1 0.92792084E-01 0.12804450E+04</pdfrwt>
<pdfrwt beam="2">  1       -1 0.10455005E+00 0.12804450E+04</pdfrwt>
<totfact> 0.28774264E+01</totfact>
</mgrwt>
</event>
<event>
12    1  0.1472088E-007  0.2670477E+04  0.7818608E-02  0.8344648E-01
          2   -1    0    0  501    0  0.00000000000E+00  0.00000000000E+00  0.10736133343E+04  0.10736133343E+04  0.00000000000E+00 0. -1.
         -2   -1    0    0    0  501 -0.00000000000E+00 -0.00000000000E+00 -0.16606183287E+04  0.16606183287E+04  0.00000000000E+00 0.  1.
         23    2    1    2    0    0 -0.62574057551E+03  0.93380618510E+02  0.75753207431E+03  0.99122963135E+03  0.91706764800E+02 0.  0.
        254    2    1    2    0    0  0.62574057551E+03 -0.93380618510E+02 -0.13445370687E+04  0.17430020317E+04  0.91104607217E+03 0.  0.
        -24    2    4    4    0    0  0.28043967057E+03 -0.34714885182E+03 -0.15964434970E+03  0.48045815486E+03  0.78708233546E+02 0.  0.
         24    2    4    4    0    0  0.34530090494E+03  0.25376823331E+03 -0.11848927190E+04  0.12625438769E+04  0.80095281853E+02 0.  0.
         13    1    3    3    0    0 -0.16377281673E+03  0.65384881511E+02  0.21779432329E+03  0.28023398346E+03  0.00000000000E+00 0.  1.
        -13    1    3    3    0    0 -0.46196775878E+03  0.27995736999E+02  0.53973775102E+03  0.71099564789E+03  0.00000000000E+00 0. -1.
          2    1    6    6  502    0  0.23725381764E+03  0.12678070456E+03 -0.71248189548E+03  0.76157282805E+03  0.00000000000E+00 0. -1.
          3    1    5    5  503    0  0.21198913446E+03 -0.30682789672E+03 -0.12070825451E+03  0.39198626767E+03  0.00000000000E+00 0. -1.
         -2    1    5    5    0  503  0.68450536118E+02 -0.40320955107E+02 -0.38936095187E+02  0.88471887196E+02  0.00000000000E+00 0.  1.
         -1    1    6    6    0  502  0.10804708730E+03  0.12698752875E+03 -0.47241082355E+03  0.50097104880E+03  0.00000000000E+00 0.  1.
<mgrwt>
<rscale>  0 0.26704771E+04</rscale>
<asrwt>0</asrwt>
<pdfrwt beam="1">  1        2 0.16517128E+00 0.26704771E+04</pdfrwt>
<pdfrwt beam="2">  1       -2 0.25547974E+00 0.26704771E+04</pdfrwt>
<totfact> 0.11830926E+00</totfact>
</mgrwt>
</event>
<event>
12    1  0.1472088E-007  0.2154399E+04  0.7818608E-02  0.8537652E-01
          2   -1    0    0  501    0  0.00000000000E+00  0.00000000000E+00  0.31256584134E+04  0.31256584134E+04  0.00000000000E+00 0. -1.
         -2   -1    0    0    0  501 -0.00000000000E+00 -0.00000000000E+00 -0.37123643958E+03  0.37123643958E+03  0.00000000000E+00 0.  1.
         23    2    1    2    0    0  0.66171390089E+03 -0.49731207506E+03  0.62660356834E+03  0.10423551985E+04  0.93208054185E+02 0.  0.
        254    2    1    2    0    0 -0.66171390089E+03  0.49731207506E+03  0.21278184055E+04  0.24545396544E+04  0.90109331482E+03 0.  0.
        -24    2    4    4    0    0 -0.19605506128E+03  0.64810266265E+03  0.89026303865E+03  0.11213203833E+04  0.79476257715E+02 0.  0.
         24    2    4    4    0    0 -0.46565883961E+03 -0.15079058759E+03  0.12375553668E+04  0.13332192712E+04  0.79714383528E+02 0.  0.
         13    1    3    3    0    0  0.46294747708E+03 -0.35455697396E+03  0.38692099003E+03  0.69981345146E+03  0.00000000000E+00 0.  1.
        -13    1    3    3    0    0  0.19876642382E+03 -0.14275510110E+03  0.23968257831E+03  0.34254174705E+03  0.00000000000E+00 0. -1.
          2    1    6    6  502    0 -0.30970300959E+03 -0.13643231810E+03  0.88207074107E+03  0.94476373968E+03  0.00000000000E+00 0. -1.
          1    1    5    5  503    0 -0.18624502326E+03  0.50819586203E+03  0.71929694200E+03  0.90018794352E+03  0.00000000000E+00 0. -1.
         -2    1    5    5    0  503 -0.98100380267E+01  0.13990680062E+03  0.17096609664E+03  0.22113243974E+03  0.00000000000E+00 0.  1.
         -1    1    6    6    0  502 -0.15595583002E+03 -0.14358269487E+02  0.35548462574E+03  0.38845553151E+03  0.00000000000E+00 0.  1.
<mgrwt>
<rscale>  0 0.21543986E+04</rscale>
<asrwt>0</asrwt>
<pdfrwt beam="1">  1        2 0.48087051E+00 0.21543986E+04</pdfrwt>
<pdfrwt beam="2">  1       -2 0.57113300E-01 0.21543986E+04</pdfrwt>
<totfact> 0.38272880E+00</totfact>
</mgrwt>
</event>
<event>
12    1  0.1472088E-007  0.1222972E+04  0.7818608E-02  0.9092984E-01
         -1   -1    0    0    0  501 -0.00000000000E+00  0.00000000000E+00  0.45012825969E+03  0.45012825969E+03  0.00000000000E+00 0.  1.
          1   -1    0    0  501    0  0.00000000000E+00 -0.00000000000E+00 -0.83068557202E+03  0.83068557202E+03  0.00000000000E+00 0. -1.
         23    2    1    2    0    0 -0.23751930293E+03 -0.13053405078E+03 -0.10643864550E+03  0.30540499383E+03  0.92132878634E+02 0.  0.
        254    2    1    2    0    0  0.23751930293E+03  0.13053405078E+03 -0.27411866683E+03  0.97540883788E+03  0.89600602668E+03 0.  0.
        -24    2    4    4    0    0  0.34327783456E+03 -0.19944193174E+03 -0.42698912361E+03  0.58867241059E+03  0.81232625715E+02 0.  0.
         24    2    4    4    0    0 -0.10575853163E+03  0.32997598251E+03  0.15287045678E+03  0.38673642729E+03  0.78273057885E+02 0.  0.
         13    1    3    3    0    0 -0.76272673840E+02 -0.47795711546E+02 -0.83404552019E+02  0.12271214330E+03  0.00000000000E+00 0. -1.
        -13    1    3    3    0    0 -0.16124662909E+03 -0.82738339232E+02 -0.23034093479E+02  0.18269285052E+03  0.00000000000E+00 0.  1.
          4    1    6    6  502    0 -0.70514840190E+02  0.29758773363E+03  0.14409025117E+03  0.33807218516E+03  0.00000000000E+00 0. -1.
          1    1    5    5  503    0  0.33067440224E+03 -0.17813613266E+03 -0.37332952209E+03  0.52957810956E+03  0.00000000000E+00 0. -1.
         -2    1    5    5    0  503  0.12603432321E+02 -0.21305799070E+02 -0.53659601511E+02  0.59094301033E+02  0.00000000000E+00 0.  1.
         -3    1    6    6    0  502 -0.35243691443E+02  0.32388248882E+02  0.87802056128E+01  0.48664242137E+02  0.00000000000E+00 0.  1.
<mgrwt>
<rscale>  0 0.12229719E+04</rscale>
<asrwt>0</asrwt>
<pdfrwt beam="1">  1        1 0.12779778E+00 0.12229719E+04</pdfrwt>
<pdfrwt beam="2">  1       -1 0.69250502E-01 0.12229719E+04</pdfrwt>
<totfact> 0.43363892E+01</totfact>
</mgrwt>
</event>
<event>
12    1  0.1472088E-007  0.1441164E+04  0.7818608E-02  0.8924550E-01
          2   -1    0    0  501    0  0.00000000000E+00  0.00000000000E+00  0.39387679687E+04  0.39387679687E+04  0.00000000000E+00 0.  1.
         -2   -1    0    0    0  501 -0.00000000000E+00 -0.00000000000E+00 -0.13182753482E+03  0.13182753482E+03  0.00000000000E+00 0. -1.
         23    2    1    2    0    0  0.16169909330E+03  0.32170387579E+03  0.46425198368E+03  0.59437264879E+03  0.90049768505E+02 0.  0.
        254    2    1    2    0    0 -0.16169909330E+03 -0.32170387579E+03  0.33426884502E+04  0.34762228548E+04  0.88369637326E+03 0.  0.
        -24    2    4    4    0    0 -0.32668782984E+03  0.20664331474E+03  0.14209851874E+04  0.14748233412E+04  0.80489671771E+02 0.  0.
         24    2    4    4    0    0  0.16498873654E+03 -0.52834719053E+03  0.19217032628E+04  0.20013995136E+04  0.79275125472E+02 0.  0.
         11    1    3    3    0    0  0.15106520074E+03  0.25481558328E+03  0.41813621955E+03  0.51243494656E+03  0.00000000000E+00 0. -1.
        -11    1    3    3    0    0  0.10633892559E+02  0.66888292509E+02  0.46115764138E+02  0.81937702236E+02  0.00000000000E+00 0.  1.
          4    1    6    6  502    0  0.26434498322E+02 -0.19308025191E+03  0.74316099252E+03  0.76828837501E+03  0.00000000000E+00 0. -1.
          3    1    5    5  503    0 -0.38886239848E+02 -0.26554092629E+01  0.13686023916E+03  0.14230219925E+03  0.00000000000E+00 0. -1.
         -4    1    5    5    0  503 -0.28780158999E+03  0.20929872400E+03  0.12841249482E+04  0.13325211420E+04  0.00000000000E+00 0.  1.
         -3    1    6    6    0  502  0.13855423821E+03 -0.33526693862E+03  0.11785422703E+04  0.12331111385E+04  0.00000000000E+00 0.  1.
<mgrwt>
<rscale>  0 0.14411635E+04</rscale>
<asrwt>0</asrwt>
<pdfrwt beam="1">  1        2 0.60596421E+00 0.14411635E+04</pdfrwt>
<pdfrwt beam="2">  1       -2 0.20281162E-01 0.14411635E+04</pdfrwt>
<totfact> 0.79486441E+00</totfact>
</mgrwt>
</event>
<event>
12    1  0.1563168E-007  0.1552434E+04  0.7818608E-02  0.8850315E-01
         -1   -1    0    0    0  501 -0.00000000000E+00  0.00000000000E+00  0.58899345321E+03  0.58899345321E+03  0.00000000000E+00 0.  1.
          1   -1    0    0  501    0  0.00000000000E+00 -0.00000000000E+00 -0.10229534205E+04  0.10229534205E+04  0.00000000000E+00 0. -1.
         23    2    1    2    0    0  0.10968627172E+03  0.43430768519E+03  0.11476056374E+03  0.47114735577E+03  0.90308361957E+02 0.  0.
        254    2    1    2    0    0 -0.10968627172E+03 -0.43430768519E+03 -0.54872053102E+03  0.11407995179E+04  0.89424553413E+03 0.  0.
        -24    2    4    4    0    0 -0.19163514790E+03 -0.65451198698E+03 -0.56927340811E+03  0.89201805758E+03  0.80709546206E+02 0.  0.
         24    2    4    4    0    0  0.81948876185E+02  0.22020430179E+03  0.20552877090E+02  0.24878146035E+03  0.79146960901E+02 0.  0.
         11    1    3    3    0    0 -0.12139836974E+02  0.21525411646E+02  0.16420647124E+02  0.29670804509E+02  0.00000000000E+00 0. -1.
        -11    1    3    3    0    0  0.12182610869E+03  0.41278227355E+03  0.98339916615E+02  0.44147655126E+03  0.00000000000E+00 0.  1.
          2    1    6    6  502    0  0.66675790564E+02  0.21105263599E+03 -0.33520727942E+00  0.22133456253E+03  0.00000000000E+00 0. -1.
          1    1    5    5  503    0 -0.15445381597E+03 -0.55370847886E+03 -0.43992400395E+03  0.72386614100E+03  0.00000000000E+00 0. -1.
         -2    1    5    5    0  503 -0.37181331936E+02 -0.10080350812E+03 -0.12934940415E+03  0.16815191658E+03  0.00000000000E+00 0.  1.
         -1    1    6    6    0  502  0.15273085621E+02  0.91516658046E+01  0.20888084369E+02  0.27446897821E+02  0.00000000000E+00 0.  1.
<mgrwt>
<rscale>  0 0.15524340E+04</rscale>
<asrwt>0</asrwt>
<pdfrwt beam="1">  1        1 0.15737745E+00 0.15524340E+04</pdfrwt>
<pdfrwt beam="2">  1       -1 0.90614379E-01 0.15524340E+04</pdfrwt>
<totfact> 0.16646785E+01</totfact>
</mgrwt>
</event>
<event>
12    1  0.1472088E-007  0.2772862E+04  0.7818608E-02  0.8311743E-01
         -2   -1    0    0    0  501 -0.00000000000E+00  0.00000000000E+00  0.65998173087E+03  0.65998173087E+03  0.00000000000E+00 0.  1.
          2   -1    0    0  501    0  0.00000000000E+00 -0.00000000000E+00 -0.29124920919E+04  0.29124920919E+04  0.00000000000E+00 0. -1.
         23    2    1    2    0    0 -0.11793338011E+04  0.30647145190E+03 -0.13863853077E+04  0.18479149381E+04  0.89288474209E+02 0.  0.
        254    2    1    2    0    0  0.11793338011E+04 -0.30647145190E+03 -0.86612505331E+03  0.17245588847E+04  0.85975448449E+03 0.  0.
        -24    2    4    4    0    0  0.13412947734E+03 -0.40471000198E+03 -0.18984705306E+03  0.47330118210E+03  0.78684198044E+02 0.  0.
         24    2    4    4    0    0  0.10452043238E+04  0.98238550087E+02 -0.67627800025E+03  0.12512577026E+04  0.78682994244E+02 0.  0.
         13    1    3    3    0    0 -0.48985011601E+03  0.90882403938E+02 -0.60566003603E+03  0.78424283659E+03  0.00000000000E+00 0.  1.
        -13    1    3    3    0    0 -0.68948368509E+03  0.21558904796E+03 -0.78072527172E+03  0.10636721015E+04  0.00000000000E+00 0. -1.
          4    1    6    6  502    0  0.46325158414E+03  0.77058707730E+02 -0.32621271096E+03  0.57179962175E+03  0.00000000000E+00 0. -1.
          1    1    5    5  503    0  0.12818871654E+03 -0.37332145291E+03 -0.19610600645E+03  0.44074802327E+03  0.00000000000E+00 0. -1.
         -2    1    5    5    0  503  0.59407608041E+01 -0.31388549077E+02  0.62589533958E+01  0.32553158828E+02  0.00000000000E+00 0.  1.
         -3    1    6    6    0  502  0.58195273961E+03  0.21179842357E+02 -0.35006528929E+03  0.67945808085E+03  0.00000000000E+00 0.  1.
<mgrwt>
<rscale>  0 0.27728625E+04</rscale>
<asrwt>0</asrwt>
<pdfrwt beam="1">  1        2 0.44807570E+00 0.27728625E+04</pdfrwt>
<pdfrwt beam="2">  1       -2 0.10153565E+00 0.27728625E+04</pdfrwt>
<totfact> 0.13706041E+00</totfact>
</mgrwt>
</event>
<event>
12    1  0.1472088E-007  0.2891606E+04  0.7818608E-02  0.8275379E-01
          2   -1    0    0  501    0  0.00000000000E+00  0.00000000000E+00  0.34166517793E+04  0.34166517793E+04  0.00000000000E+00 0. -1.
         -2   -1    0    0    0  501 -0.00000000000E+00 -0.00000000000E+00 -0.61181121611E+03  0.61181121611E+03  0.00000000000E+00 0.  1.
         23    2    1    2    0    0 -0.11291471784E+04  0.60639544432E+03  0.97646582826E+03  0.16138113806E+04  0.90624903575E+02 0.  0.
        254    2    1    2    0    0  0.11291471784E+04 -0.60639544432E+03  0.18283747350E+04  0.24146516148E+04  0.91918412952E+03 0.  0.
        -24    2    4    4    0    0  0.84107106710E+03 -0.38668527896E+03  0.54096324131E+03  0.10752572254E+04  0.81306995421E+02 0.  0.
         24    2    4    4    0    0  0.28807611131E+03 -0.21971016535E+03  0.12874114937E+04  0.13393943894E+04  0.72722579650E+02 0.  0.
         13    1    3    3    0    0 -0.61960297001E+03  0.32123973914E+03  0.47621729411E+03  0.84491758276E+03  0.00000000000E+00 0. -1.
        -13    1    3    3    0    0 -0.50954420839E+03  0.28515570517E+03  0.50024853415E+03  0.76889379788E+03  0.00000000000E+00 0.  1.
          4    1    6    6  502    0  0.51626103663E+02 -0.90968763400E+01  0.16076930128E+03  0.16909989938E+03  0.00000000000E+00 0. -1.
          1    1    5    5  503    0  0.16808805930E+03 -0.10836894721E+03  0.13751112821E+03  0.24270709668E+03  0.00000000000E+00 0. -1.
         -2    1    5    5    0  503  0.67298300780E+03 -0.27831633175E+03  0.40345211310E+03  0.83255012874E+03  0.00000000000E+00 0.  1.
         -3    1    6    6    0  502  0.23645000764E+03 -0.21061328901E+03  0.11266421924E+04  0.11702944900E+04  0.00000000000E+00 0.  1.
<mgrwt>
<rscale>  0 0.28916057E+04</rscale>
<asrwt>0</asrwt>
<pdfrwt beam="1">  1        2 0.52563872E+00 0.28916057E+04</pdfrwt>
<pdfrwt beam="2">  1       -2 0.94124805E-01 0.28916057E+04</pdfrwt>
<totfact> 0.76348690E-01</totfact>
</mgrwt>
</event>
<event>
12    1  0.1476395E-007  0.2308750E+04  0.7818608E-02  0.8474479E-01
         -1   -1    0    0    0  501 -0.00000000000E+00  0.00000000000E+00  0.61941382301E+03  0.61941382301E+03  0.00000000000E+00 0.  1.
          1   -1    0    0  501    0  0.00000000000E+00 -0.00000000000E+00 -0.21513590529E+04  0.21513590529E+04  0.00000000000E+00 0. -1.
         23    2    1    2    0    0  0.16287412733E+02  0.85885741407E+03 -0.96541282140E+02  0.86930434005E+03  0.92024339022E+02 0.  0.
        254    2    1    2    0    0 -0.16287412733E+02 -0.85885741407E+03 -0.14354039478E+04  0.19014685359E+04  0.90404466823E+03 0.  0.
        -24    2    4    4    0    0 -0.39429272969E+03 -0.27265143517E+03 -0.88420708928E+03  0.10089807570E+04  0.80090133428E+02 0.  0.
         24    2    4    4    0    0  0.37800531695E+03 -0.58620597889E+03 -0.55119685851E+03  0.89248777890E+03  0.78682840047E+02 0.  0.
         13    1    3    3    0    0 -0.93114421434E+01  0.31120359733E+03 -0.76907995143E+02  0.32070114073E+03  0.00000000000E+00 0. -1.
        -13    1    3    3    0    0  0.25598854876E+02  0.54765381674E+03 -0.19633286997E+02  0.54860319933E+03  0.00000000000E+00 0.  1.
          2    1    6    6  502    0  0.88304512909E+00  0.23228211270E+01 -0.43239635698E+01  0.49871763194E+01  0.00000000000E+00 0. -1.
          3    1    5    5  503    0 -0.35303320976E+01 -0.16730678345E+02 -0.50753343460E+02  0.53556332165E+02  0.00000000000E+00 0. -1.
         -4    1    5    5    0  503 -0.39076239759E+03 -0.25592075683E+03 -0.83345374582E+03  0.95542442483E+03  0.00000000000E+00 0.  1.
         -1    1    6    6    0  502  0.37712227183E+03 -0.58852880002E+03 -0.54687289494E+03  0.88750060258E+03  0.00000000000E+00 0.  1.
<mgrwt>
<rscale>  0 0.23087499E+04</rscale>
<asrwt>0</asrwt>
<pdfrwt beam="1">  1        1 0.33097832E+00 0.23087499E+04</pdfrwt>
<pdfrwt beam="2">  1       -1 0.95294435E-01 0.23087499E+04</pdfrwt>
<totfact> 0.22577982E+00</totfact>
</mgrwt>
</event>
<event>
12    1  0.1472088E-007  0.1462940E+04  0.7818608E-02  0.8909478E-01
         -2   -1    0    0    0  501 -0.00000000000E+00  0.00000000000E+00  0.74693512294E+03  0.74693512294E+03  0.00000000000E+00 0. -1.
          2   -1    0    0  501    0  0.00000000000E+00 -0.00000000000E+00 -0.71632515969E+03  0.71632515969E+03  0.00000000000E+00 0.  1.
         23    2    1    2    0    0 -0.39238470006E+03  0.19142610202E+03  0.12123430271E+03  0.46182998029E+03  0.89327874528E+02 0.  0.
        254    2    1    2    0    0  0.39238470006E+03 -0.19142610202E+03 -0.90624339456E+02  0.10014303023E+04  0.89668287268E+03 0.  0.
        -24    2    4    4    0    0 -0.11116478839E+03 -0.30286854471E+03  0.21554142126E+03  0.39640466861E+03  0.81188616579E+02 0.  0.
         24    2    4    4    0    0  0.50354948845E+03  0.11144244269E+03 -0.30616576072E+03  0.60502563373E+03  0.79605521669E+02 0.  0.
         13    1    3    3    0    0 -0.31282798649E+03  0.15405570993E+03  0.57866759021E+02  0.35347287406E+03  0.00000000000E+00 0. -1.
        -13    1    3    3    0    0 -0.79556713571E+02  0.37370392085E+02  0.63367543686E+02  0.10835710624E+03  0.00000000000E+00 0.  1.
          4    1    6    6  502    0  0.50005512310E+03  0.10726126591E+03 -0.31028505471E+03  0.59819471787E+03  0.00000000000E+00 0. -1.
          1    1    5    5  503    0 -0.92590421363E+02 -0.13552765945E+03  0.11290022132E+03  0.19921644656E+03  0.00000000000E+00 0. -1.
         -2    1    5    5    0  503 -0.18574367025E+02 -0.16734088527E+03  0.10264119994E+03  0.19718822205E+03  0.00000000000E+00 0.  1.
         -3    1    6    6    0  502  0.34943653468E+01  0.41811767829E+01  0.41192939955E+01  0.68309158601E+01  0.00000000000E+00 0.  1.
<mgrwt>
<rscale>  0 0.14629401E+04</rscale>
<asrwt>0</asrwt>
<pdfrwt beam="1">  1        2 0.11020387E+00 0.14629401E+04</pdfrwt>
<pdfrwt beam="2">  1       -2 0.11491310E+00 0.14629401E+04</pdfrwt>
<totfact> 0.22771445E+01</totfact>
</mgrwt>
</event>
<event>
12    1  0.1472088E-007  0.1329318E+04  0.7818608E-02  0.9006633E-01
          2   -1    0    0  501    0  0.00000000000E+00  0.00000000000E+00  0.20778023101E+04  0.20778023101E+04  0.00000000000E+00 0. -1.
         -2   -1    0    0    0  501 -0.00000000000E+00 -0.00000000000E+00 -0.21261491036E+03  0.21261491036E+03  0.00000000000E+00 0.  1.
         23    2    1    2    0    0 -0.43949514442E+02 -0.27486851938E+03  0.14371991933E+03  0.32666657608E+03  0.92581714999E+02 0.  0.
        254    2    1    2    0    0  0.43949514442E+02  0.27486851938E+03  0.17214674804E+04  0.19637506444E+04  0.90298507430E+03 0.  0.
        -24    2    4    4    0    0  0.72796458913E+02 -0.23847595554E+03  0.11962771387E+04  0.12246183276E+04  0.80255529285E+02 0.  0.
         24    2    4    4    0    0 -0.28846944471E+02  0.51334447492E+03  0.52519034171E+03  0.73913231675E+03  0.78338946272E+02 0.  0.
         13    1    3    3    0    0  0.47527013857E+01 -0.21897498427E+03  0.11245227495E+03  0.24620752638E+03  0.00000000000E+00 0.  1.
        -13    1    3    3    0    0 -0.48702215828E+02 -0.55893535111E+02  0.31267644385E+02  0.80459049703E+02  0.00000000000E+00 0. -1.
          2    1    6    6  502    0 -0.19479240329E+02  0.49408412728E+02  0.32209583498E+02  0.62113519633E+02  0.00000000000E+00 0. -1.
          1    1    5    5  503    0  0.21438424086E+01 -0.84232494800E+01  0.67877476062E+01  0.11028177984E+02  0.00000000000E+00 0. -1.
         -2    1    5    5    0  503  0.70652616504E+02 -0.23005270606E+03  0.11894893911E+04  0.12135901497E+04  0.00000000000E+00 0.  1.
         -1    1    6    6    0  502 -0.93677041419E+01  0.46393606219E+03  0.49298075821E+03  0.67701879711E+03  0.00000000000E+00 0.  1.
<mgrwt>
<rscale>  0 0.13293182E+04</rscale>
<asrwt>0</asrwt>
<pdfrwt beam="1">  1        2 0.31966188E+00 0.13293182E+04</pdfrwt>
<pdfrwt beam="2">  1       -2 0.32709988E-01 0.13293182E+04</pdfrwt>
<totfact> 0.51603133E+01</totfact>
</mgrwt>
</event>
<event>
12    1  0.1472088E-007  0.1390277E+04  0.7818608E-02  0.8960887E-01
         -1   -1    0    0    0  501 -0.00000000000E+00  0.00000000000E+00  0.25981619350E+03  0.25981619350E+03  0.00000000000E+00 0.  1.
          1   -1    0    0  501    0  0.00000000000E+00 -0.00000000000E+00 -0.18598440143E+04  0.18598440143E+04  0.00000000000E+00 0. -1.
         23    2    1    2    0    0 -0.24747567855E+03 -0.27156311804E+03 -0.70077862986E+03  0.79616545710E+03  0.88306333069E+02 0.  0.
        254    2    1    2    0    0  0.24747567855E+03  0.27156311804E+03 -0.89924919093E+03  0.13234947507E+04  0.89888737289E+03 0.  0.
        -24    2    4    4    0    0 -0.13802650034E+03  0.42019598450E+03 -0.16675773064E+03  0.47942007717E+03  0.80121716651E+02 0.  0.
         24    2    4    4    0    0  0.38550217889E+03 -0.14863286646E+03 -0.73249146028E+03  0.84407467351E+03  0.72212576103E+02 0.  0.
         11    1    3    3    0    0 -0.22476196732E+03 -0.19711722556E+03 -0.57930087095E+03  0.65189158734E+03  0.00000000000E+00 0. -1.
        -11    1    3    3    0    0 -0.22713711228E+02 -0.74445892481E+02 -0.12147775891E+03  0.14427386976E+03  0.00000000000E+00 0.  1.
          2    1    6    6  502    0  0.38112140258E+03 -0.13407601073E+03 -0.70061971226E+03  0.80876318002E+03  0.00000000000E+00 0. -1.
          3    1    5    5  503    0 -0.10159966748E+03  0.19622945494E+03 -0.10250218163E+03  0.24358815377E+03  0.00000000000E+00 0. -1.
         -4    1    5    5    0  503 -0.36426832854E+02  0.22396652956E+03 -0.64255549016E+02  0.23583192340E+03  0.00000000000E+00 0.  1.
         -1    1    6    6    0  502  0.43807763110E+01 -0.14556855733E+02 -0.31871748026E+02  0.35311493485E+02  0.00000000000E+00 0.  1.
<mgrwt>
<rscale>  0 0.13902771E+04</rscale>
<asrwt>0</asrwt>
<pdfrwt beam="1">  1        1 0.28612986E+00 0.13902771E+04</pdfrwt>
<pdfrwt beam="2">  1       -1 0.39971721E-01 0.13902771E+04</pdfrwt>
<totfact> 0.22089183E+01</totfact>
</mgrwt>
</event>
<event>
12    1  0.1472088E-007  0.1310681E+04  0.7818608E-02  0.9021138E-01
         -1   -1    0    0    0  501 -0.00000000000E+00  0.00000000000E+00  0.19930391679E+03  0.19930391679E+03  0.00000000000E+00 0.  1.
          1   -1    0    0  501    0  0.00000000000E+00 -0.00000000000E+00 -0.21548557961E+04  0.21548557961E+04  0.00000000000E+00 0. -1.
         23    2    1    2    0    0  0.22503618742E+01  0.21254524795E+03 -0.11004169210E+04  0.11244985140E+04  0.91645847840E+02 0.  0.
        254    2    1    2    0    0 -0.22503618742E+01 -0.21254524795E+03 -0.85513495829E+03  0.12296611989E+04  0.85768894159E+03 0.  0.
        -24    2    4    4    0    0 -0.12239699035E+03  0.15856833960E+02  0.13690370519E+03  0.20180216466E+03  0.82152460333E+02 0.  0.
         24    2    4    4    0    0  0.12014662847E+03 -0.22840208191E+03 -0.99203866348E+03  0.10278590342E+04  0.75833772021E+02 0.  0.
         11    1    3    3    0    0 -0.18433507668E+02  0.34378432639E+01 -0.14761473629E+03  0.14880095209E+03  0.00000000000E+00 0.  1.
        -11    1    3    3    0    0  0.20683869543E+02  0.20910740468E+03 -0.95280218473E+03  0.97569756194E+03  0.00000000000E+00 0. -1.
          2    1    6    6  502    0 -0.82228473654E+01 -0.27088355354E+02 -0.72554706405E+02  0.77881831233E+02  0.00000000000E+00 0. -1.
          3    1    5    5  503    0 -0.36013764509E+02 -0.23940567657E+02  0.80079006349E+02  0.91009830633E+02  0.00000000000E+00 0. -1.
         -4    1    5    5    0  503 -0.86383225837E+02  0.39797401618E+02  0.56824698840E+02  0.11079233403E+03  0.00000000000E+00 0.  1.
         -1    1    6    6    0  502  0.12836947584E+03 -0.20131372655E+03 -0.91948395708E+03  0.94997720296E+03  0.00000000000E+00 0.  1.
<mgrwt>
<rscale>  0 0.13106810E+04</rscale>
<asrwt>0</asrwt>
<pdfrwt beam="1">  1        1 0.33151627E+00 0.13106810E+04</pdfrwt>
<pdfrwt beam="2">  1       -1 0.30662142E-01 0.13106810E+04</pdfrwt>
<totfact> 0.22589342E+01</totfact>
</mgrwt>
</event>
<event>
12    1  0.1472088E-007  0.2043784E+04  0.7818608E-02  0.8586419E-01
         -3   -1    0    0    0  501 -0.00000000000E+00  0.00000000000E+00  0.16886227709E+04  0.16886227709E+04  0.00000000000E+00 0.  1.
          3   -1    0    0  501    0  0.00000000000E+00 -0.00000000000E+00 -0.61841122434E+03  0.61841122434E+03  0.00000000000E+00 0. -1.
         23    2    1    2    0    0 -0.37529648831E+03  0.22416728320E+02  0.12554260679E+04  0.13138629257E+04  0.93761462049E+02 0.  0.
        254    2    1    2    0    0  0.37529648831E+03 -0.22416728320E+02 -0.18521452139E+03  0.99317106948E+03  0.90040790227E+03 0.  0.
        -24    2    4    4    0    0  0.26589246795E+03  0.31690103641E+03 -0.38980704758E+03  0.57442863773E+03  0.83028032045E+02 0.  0.
         24    2    4    4    0    0  0.10940402036E+03 -0.33931776473E+03  0.20459252620E+03  0.41874243175E+03  0.79883272601E+02 0.  0.
         13    1    3    3    0    0 -0.63783892026E+02  0.12966012368E+02  0.35781040766E+03  0.36368226544E+03  0.00000000000E+00 0. -1.
        -13    1    3    3    0    0 -0.31151259628E+03  0.94507159513E+01  0.89761566025E+03  0.95018066030E+03  0.00000000000E+00 0.  1.
          2    1    6    6  502    0  0.91716595781E+02 -0.28439928647E+03  0.20256761717E+03  0.36101042590E+03  0.00000000000E+00 0. -1.
          1    1    5    5  503    0  0.23593467814E+03  0.28032027247E+03 -0.37639962041E+03  0.52528211634E+03  0.00000000000E+00 0. -1.
         -2    1    5    5    0  503  0.29957789812E+02  0.36580763936E+02 -0.13407427175E+02  0.49146521382E+02  0.00000000000E+00 0.  1.
         -1    1    6    6    0  502  0.17687424580E+02 -0.54918478263E+02  0.20249090296E+01  0.57732005851E+02  0.00000000000E+00 0.  1.
<mgrwt>
<rscale>  0 0.20437840E+04</rscale>
<asrwt>0</asrwt>
<pdfrwt beam="1">  1        3 0.95140189E-01 0.20437840E+04</pdfrwt>
<pdfrwt beam="2">  1       -3 0.25978812E+00 0.20437840E+04</pdfrwt>
<totfact> 0.15254081E-01</totfact>
</mgrwt>
</event>
<event>
12    1  0.1472088E-007  0.1852123E+04  0.7818608E-02  0.8679062E-01
          2   -1    0    0  501    0  0.00000000000E+00  0.00000000000E+00  0.28916686262E+04  0.28916686262E+04  0.00000000000E+00 0. -1.
         -2   -1    0    0    0  501 -0.00000000000E+00 -0.00000000000E+00 -0.29657266881E+03  0.29657266881E+03  0.00000000000E+00 0.  1.
         23    2    1    2    0    0  0.61761650399E+03 -0.29561277291E+03  0.12975611872E+04  0.14700438831E+04  0.92341356972E+02 0.  0.
        254    2    1    2    0    0 -0.61761650399E+03  0.29561277291E+03  0.12975347703E+04  0.17181974120E+04  0.89429794197E+03 0.  0.
        -24    2    4    4    0    0 -0.56046415703E+03 -0.44306166008E+02  0.12330383592E+04  0.13576281634E+04  0.81777302163E+02 0.  0.
         24    2    4    4    0    0 -0.57152346958E+02  0.33991893892E+03  0.64496411034E+02  0.36056924855E+03  0.83899464633E+02 0.  0.
         11    1    3    3    0    0  0.55154604352E+03 -0.29054272345E+03  0.11972024649E+04  0.13497821507E+04  0.00000000000E+00 0. -1.
        -11    1    3    3    0    0  0.66070460463E+02 -0.50700494662E+01  0.10035872223E+03  0.12026173238E+03  0.00000000000E+00 0.  1.
          2    1    6    6  502    0 -0.21079954466E+02  0.29550773625E+02 -0.13152186111E+02  0.38608194747E+02  0.00000000000E+00 0. -1.
          1    1    5    5  503    0 -0.92487825082E+02 -0.24731951183E+02  0.27572356201E+03  0.29187180378E+03  0.00000000000E+00 0. -1.
         -2    1    5    5    0  503 -0.46797633195E+03 -0.19574214825E+02  0.95731479722E+03  0.10657563596E+04  0.00000000000E+00 0.  1.
         -1    1    6    6    0  502 -0.36072392492E+02  0.31036816530E+03  0.77648597144E+02  0.32196105381E+03  0.00000000000E+00 0.  1.
<mgrwt>
<rscale>  0 0.18521230E+04</rscale>
<asrwt>0</asrwt>
<pdfrwt beam="1">  1        2 0.44487208E+00 0.18521230E+04</pdfrwt>
<pdfrwt beam="2">  1       -2 0.45626566E-01 0.18521230E+04</pdfrwt>
<totfact> 0.87299349E+00</totfact>
</mgrwt>
</event>
<event>
12    1  0.1472088E-007  0.1267567E+04  0.7818608E-02  0.9055688E-01
         -1   -1    0    0    0  501 -0.00000000000E+00  0.00000000000E+00  0.12524835433E+04  0.12524835433E+04  0.00000000000E+00 0.  1.
          1   -1    0    0  501    0  0.00000000000E+00 -0.00000000000E+00 -0.32070789475E+03  0.32070789475E+03  0.00000000000E+00 0. -1.
         23    2    1    2    0    0 -0.11835553114E+03  0.27439759821E+03  0.21832335620E+03  0.38106156400E+03  0.90778599048E+02 0.  0.
        254    2    1    2    0    0  0.11835553114E+03 -0.27439759821E+03  0.71345229235E+03  0.11921298740E+04  0.90711487116E+03 0.  0.
        -24    2    4    4    0    0  0.39148831564E+03  0.92340812247E+02  0.99318467729E+02  0.42222817837E+03  0.81379049437E+02 0.  0.
         24    2    4    4    0    0 -0.27313278450E+03 -0.36673841045E+03  0.61413382462E+03  0.76990169568E+03  0.80558592313E+02 0.  0.
         13    1    3    3    0    0 -0.11364555235E+03  0.17466668204E+03  0.17542961097E+03  0.27239550251E+03  0.00000000000E+00 0.  1.
        -13    1    3    3    0    0 -0.47099787859E+01  0.99730916168E+02  0.42893745227E+02  0.10866606149E+03  0.00000000000E+00 0. -1.
          2    1    6    6  502    0 -0.63696310185E+02 -0.14977423598E+03  0.21451691234E+03  0.26927132669E+03  0.00000000000E+00 0. -1.
          1    1    5    5  503    0  0.92128715549E+02  0.17265412991E+02  0.59542670382E+02  0.11104559564E+03  0.00000000000E+00 0. -1.
         -2    1    5    5    0  503  0.29935960009E+03  0.75075399257E+02  0.39775797347E+02  0.31118258273E+03  0.00000000000E+00 0.  1.
         -1    1    6    6    0  502 -0.20943647432E+03 -0.21696417447E+03  0.39961691228E+03  0.50063036899E+03  0.00000000000E+00 0.  1.
<mgrwt>
<rscale>  0 0.12675667E+04</rscale>
<asrwt>0</asrwt>
<pdfrwt beam="1">  1        1 0.49339677E-01 0.12675667E+04</pdfrwt>
<pdfrwt beam="2">  1       -1 0.19268977E+00 0.12675667E+04</pdfrwt>
<totfact> 0.13387514E+01</totfact>
</mgrwt>
</event>
<event>
12    1  0.1472088E-007  0.3057463E+04  0.7818608E-02  0.8227510E-01
         -2   -1    0    0    0  501 -0.00000000000E+00  0.00000000000E+00  0.54198748962E+03  0.54198748962E+03  0.00000000000E+00 0.  1.
          2   -1    0    0  501    0  0.00000000000E+00 -0.00000000000E+00 -0.43119440829E+04  0.43119440829E+04  0.00000000000E+00 0. -1.
         23    2    1    2    0    0 -0.16885116321E+03 -0.10799680198E+04 -0.34744719795E+03  0.11507362110E+04  0.92911962932E+02 0.  0.
        254    2    1    2    0    0  0.16885116321E+03  0.10799680198E+04 -0.34225093953E+04  0.37031953615E+04  0.89735371257E+03 0.  0.
        -24    2    4    4    0    0  0.35736226642E+03  0.10893303569E+04 -0.24088264252E+04  0.26690126390E+04  0.82675899244E+02 0.  0.
         24    2    4    4    0    0 -0.18851110320E+03 -0.93623371045E+01 -0.10136829701E+04  0.10341827225E+04  0.79728604297E+02 0.  0.
         11    1    3    3    0    0 -0.41075236970E+02 -0.93079384012E+02 -0.38044928804E+02  0.10862027172E+03  0.00000000000E+00 0. -1.
        -11    1    3    3    0    0 -0.12777592624E+03 -0.98688863576E+03 -0.30940226914E+03  0.10421159393E+04  0.00000000000E+00 0.  1.
          2    1    6    6  502    0 -0.11798395865E+03 -0.31190214119E+02 -0.76837685208E+03  0.77800773182E+03  0.00000000000E+00 0. -1.
          1    1    5    5  503    0  0.34127437831E+03  0.10741424996E+04 -0.23696067044E+04  0.26239828971E+04  0.00000000000E+00 0. -1.
         -2    1    5    5    0  503  0.16087888107E+02  0.15187857296E+02 -0.39219720781E+02  0.45029741850E+02  0.00000000000E+00 0.  1.
         -1    1    6    6    0  502 -0.70527144551E+02  0.21827877015E+02 -0.24530611801E+03  0.25617499072E+03  0.00000000000E+00 0.  1.
<mgrwt>
<rscale>  0 0.30574628E+04</rscale>
<asrwt>0</asrwt>
<pdfrwt beam="1">  1        2 0.66337601E+00 0.30574628E+04</pdfrwt>
<pdfrwt beam="2">  1       -2 0.83382692E-01 0.30574628E+04</pdfrwt>
<totfact> 0.19819624E-01</totfact>
</mgrwt>
</event>
<event>
12    1  0.1472088E-007  0.1936347E+04  0.7818608E-02  0.8636973E-01
         -4   -1    0    0    0  501 -0.00000000000E+00  0.00000000000E+00  0.14979571654E+04  0.14979571654E+04  0.00000000000E+00 0.  1.
          4   -1    0    0  501    0  0.00000000000E+00 -0.00000000000E+00 -0.62575906579E+03  0.62575906579E+03  0.00000000000E+00 0. -1.
         23    2    1    2    0    0  0.43846612762E+03 -0.12442566976E+03 -0.29739387046E+03  0.55207927032E+03  0.92812252229E+02 0.  0.
        254    2    1    2    0    0 -0.43846612762E+03  0.12442566976E+03  0.11695919701E+04  0.15716369609E+04  0.94570770747E+03 0.  0.
        -24    2    4    4    0    0 -0.63602332072E+03  0.31300728749E+03  0.58922022511E+03  0.92521951753E+03  0.79696018829E+02 0.  0.
         24    2    4    4    0    0  0.19755719309E+03 -0.18858161773E+03  0.58037174496E+03  0.64641744334E+03  0.80201481462E+02 0.  0.
         11    1    3    3    0    0  0.30007388899E+03 -0.62827899774E+02 -0.24272935192E+03  0.39103608801E+03  0.00000000000E+00 0. -1.
        -11    1    3    3    0    0  0.13839223864E+03 -0.61597769983E+02 -0.54664518535E+02  0.16104318231E+03  0.00000000000E+00 0.  1.
          4    1    6    6  502    0  0.17780951050E+03 -0.17871889285E+03  0.56722330507E+03  0.62072453029E+03  0.00000000000E+00 0. -1.
          3    1    5    5  503    0 -0.55394904419E+03  0.28829431693E+03  0.48769895193E+03  0.79235309329E+03  0.00000000000E+00 0. -1.
         -4    1    5    5    0  503 -0.82074276528E+02  0.24712970557E+02  0.10152127318E+03  0.13286642424E+03  0.00000000000E+00 0.  1.
         -3    1    6    6    0  502  0.19747682594E+02 -0.98627248815E+01  0.13148439883E+02  0.25692913055E+02  0.00000000000E+00 0.  1.
<mgrwt>
<rscale>  0 0.19363474E+04</rscale>
<asrwt>0</asrwt>
<pdfrwt beam="1">  1        4 0.96270626E-01 0.19363474E+04</pdfrwt>
<pdfrwt beam="2">  1       -4 0.23045495E+00 0.19363474E+04</pdfrwt>
<totfact> 0.14136055E-01</totfact>
</mgrwt>
</event>
<event>
12    1  0.1472088E-007  0.1291220E+04  0.7818608E-02  0.9036557E-01
          2   -1    0    0  501    0  0.00000000000E+00  0.00000000000E+00  0.10746764557E+04  0.10746764557E+04  0.00000000000E+00 0. -1.
         -2   -1    0    0    0  501 -0.00000000000E+00 -0.00000000000E+00 -0.38784910957E+03  0.38784910957E+03  0.00000000000E+00 0.  1.
         23    2    1    2    0    0  0.29060264361E+03  0.13355758713E+03  0.17030175613E+03  0.37379279491E+03  0.91819604836E+02 0.  0.
        254    2    1    2    0    0 -0.29060264361E+03 -0.13355758713E+03  0.51652558996E+03  0.10887327703E+04  0.90346711867E+03 0.  0.
        -24    2    4    4    0    0 -0.55539436516E+03  0.45133825168E+02  0.12398833957E+03  0.57634047970E+03  0.79342782663E+02 0.  0.
         24    2    4    4    0    0  0.26479172155E+03 -0.17869141230E+03  0.39253725040E+03  0.51239229062E+03  0.80094256383E+02 0.  0.
         11    1    3    3    0    0  0.20907366432E+03  0.65208914084E+02  0.76578232716E+02  0.23200910610E+03  0.00000000000E+00 0.  1.
        -11    1    3    3    0    0  0.81528979292E+02  0.68348673044E+02  0.93723523409E+02  0.14178368881E+03  0.00000000000E+00 0. -1.
          2    1    6    6  502    0  0.18714497021E+03 -0.12887384420E+03  0.21756438955E+03  0.31458857449E+03  0.00000000000E+00 0. -1.
          1    1    5    5  503    0 -0.39220260875E+03  0.65055870233E+02  0.10230320424E+03  0.41051321313E+03  0.00000000000E+00 0. -1.
         -2    1    5    5    0  503 -0.16319175642E+03 -0.19922045065E+02  0.21685135322E+02  0.16582726656E+03  0.00000000000E+00 0.  1.
         -1    1    6    6    0  502  0.77646751338E+02 -0.49817568095E+02  0.17497286084E+03  0.19780371613E+03  0.00000000000E+00 0.  1.
<mgrwt>
<rscale>  0 0.12912201E+04</rscale>
<asrwt>0</asrwt>
<pdfrwt beam="1">  1        2 0.16533484E+00 0.12912201E+04</pdfrwt>
<pdfrwt beam="2">  1       -2 0.59669094E-01 0.12912201E+04</pdfrwt>
<totfact> 0.58058403E+01</totfact>
</mgrwt>
</event>
<event>
12    1  0.1472088E-007  0.1658062E+04  0.7818608E-02  0.8785651E-01
          1   -1    0    0  501    0  0.00000000000E+00  0.00000000000E+00  0.40025278470E+03  0.40025278470E+03  0.00000000000E+00 0. -1.
         -1   -1    0    0    0  501 -0.00000000000E+00 -0.00000000000E+00 -0.17171465857E+04  0.17171465857E+04  0.00000000000E+00 0.  1.
         23    2    1    2    0    0 -0.43893314564E+03  0.21845535825E+02  0.14413046133E+02  0.44904748227E+03  0.91084420521E+02 0.  0.
        254    2    1    2    0    0  0.43893314564E+03 -0.21845535825E+02 -0.13313068471E+04  0.16683518881E+04  0.90436749588E+03 0.  0.
        -24    2    4    4    0    0  0.55932645853E+03 -0.30454701696E+03 -0.63451508171E+03  0.90257495732E+03  0.80232112723E+02 0.  0.
         24    2    4    4    0    0 -0.12039331290E+03  0.28270148114E+03 -0.69679176538E+03  0.76577693077E+03  0.80503827022E+02 0.  0.
         13    1    3    3    0    0  0.12088165633E+01  0.73835880826E+01  0.41340659543E+01  0.85480472490E+01  0.00000000000E+00 0.  1.
        -13    1    3    3    0    0 -0.44014196220E+03  0.14461947742E+02  0.10278980179E+02  0.44049943502E+03  0.00000000000E+00 0. -1.
          2    1    6    6  502    0 -0.57149581923E+02  0.18311395285E+03 -0.50964374071E+03  0.54454892974E+03  0.00000000000E+00 0. -1.
          3    1    5    5  503    0  0.46080345877E+02 -0.47436581852E+01 -0.61109828330E+02  0.76683190385E+02  0.00000000000E+00 0. -1.
         -4    1    5    5    0  503  0.51324611266E+03 -0.29980335877E+03 -0.57340525338E+03  0.82589176693E+03  0.00000000000E+00 0.  1.
         -1    1    6    6    0  502 -0.63243730976E+02  0.99587528285E+02 -0.18714802468E+03  0.22122800103E+03  0.00000000000E+00 0.  1.
<mgrwt>
<rscale>  0 0.16580624E+04</rscale>
<asrwt>0</asrwt>
<pdfrwt beam="1">  1        1 0.61577351E-01 0.16580624E+04</pdfrwt>
<pdfrwt beam="2">  1       -1 0.26417640E+00 0.16580624E+04</pdfrwt>
<totfact> 0.32287650E+00</totfact>
</mgrwt>
</event>
<event>
12    1  0.1472088E-007  0.1596424E+04  0.7818608E-02  0.8822748E-01
          4   -1    0    0  501    0  0.00000000000E+00  0.00000000000E+00  0.91210773916E+03  0.91210773916E+03  0.00000000000E+00 0. -1.
         -4   -1    0    0    0  501 -0.00000000000E+00 -0.00000000000E+00 -0.69853823285E+03  0.69853823285E+03  0.00000000000E+00 0.  1.
         23    2    1    2    0    0  0.12907454780E+03 -0.52341285566E+03  0.85009309062E+02  0.55316992244E+03  0.90272499184E+02 0.  0.
        254    2    1    2    0    0 -0.12907454780E+03  0.52341285566E+03  0.12856019724E+03  0.10574760496E+04  0.90061457613E+03 0.  0.
        -24    2    4    4    0    0 -0.37362749659E+03  0.65495830717E+03  0.12818669411E+03  0.76909298991E+03  0.80649291634E+02 0.  0.
         24    2    4    4    0    0  0.24455294879E+03 -0.13154545151E+03  0.37350313352E+00  0.28838305966E+03  0.77809376171E+02 0.  0.
         11    1    3    3    0    0 -0.54669975461E+01 -0.24071125495E+02  0.20355547799E+02  0.31994616281E+02  0.00000000000E+00 0.  1.
        -11    1    3    3    0    0  0.13454154535E+03 -0.49934173016E+03  0.64653761264E+02  0.52117530616E+03  0.00000000000E+00 0. -1.
          2    1    6    6  502    0  0.44630471600E+02 -0.40189126934E+02  0.29046907018E+02  0.66714074424E+02  0.00000000000E+00 0. -1.
          1    1    5    5  503    0  0.34091506259E+01  0.15677695830E+02  0.86256465453E+00  0.16067248436E+02  0.00000000000E+00 0. -1.
         -2    1    5    5    0  503 -0.37703664721E+03  0.63928061134E+03  0.12732412945E+03  0.75302574147E+03  0.00000000000E+00 0.  1.
         -1    1    6    6    0  502  0.19992247719E+03 -0.91356324579E+02 -0.28673403885E+02  0.22166898523E+03  0.00000000000E+00 0.  1.
<mgrwt>
<rscale>  0 0.15964237E+04</rscale>
<asrwt>0</asrwt>
<pdfrwt beam="1">  1        4 0.14032427E+00 0.15964237E+04</pdfrwt>
<pdfrwt beam="2">  1       -4 0.10746742E+00 0.15964237E+04</pdfrwt>
<totfact> 0.47303289E-01</totfact>
</mgrwt>
</event>
<event>
12    1  0.1904320E-007  0.3318030E+04  0.7818608E-02  0.8158323E-01
         -2   -1    0    0    0  501 -0.00000000000E+00  0.00000000000E+00  0.11966206049E+04  0.11966206049E+04  0.00000000000E+00 0.  1.
          2   -1    0    0  501    0  0.00000000000E+00 -0.00000000000E+00 -0.23000862230E+04  0.23000862230E+04  0.00000000000E+00 0. -1.
         23    2    1    2    0    0  0.83871499022E+03  0.41218034619E+03 -0.17948163728E+04  0.20255795610E+04  0.90946541323E+02 0.  0.
        254    2    1    2    0    0 -0.83871499022E+03 -0.41218034619E+03  0.69135075469E+03  0.14711272669E+04  0.90161748916E+03 0.  0.
        -24    2    4    4    0    0 -0.38812750803E+03  0.23752843702E+03  0.81625489348E+02  0.46953625703E+03  0.82090530951E+02 0.  0.
         24    2    4    4    0    0 -0.45058748219E+03 -0.64970878321E+03  0.60972526534E+03  0.10015910099E+04  0.79177457288E+02 0.  0.
         11    1    3    3    0    0  0.72937860072E+03  0.32613062302E+03 -0.14971763683E+04  0.16970242792E+04  0.00000000000E+00 0. -1.
        -11    1    3    3    0    0  0.10933638950E+03  0.86049723172E+02 -0.29764000451E+03  0.32855528182E+03  0.00000000000E+00 0.  1.
          2    1    6    6  502    0 -0.40618982043E+03 -0.57506686867E+03  0.57102475517E+03  0.90651053203E+03  0.00000000000E+00 0. -1.
          3    1    5    5  503    0 -0.29205627157E+03  0.17930852031E+03  0.24688622239E+02  0.34359560428E+03  0.00000000000E+00 0. -1.
         -4    1    5    5    0  503 -0.96071236466E+02  0.58219916714E+02  0.56936867109E+02  0.12594065275E+03  0.00000000000E+00 0.  1.
         -1    1    6    6    0  502 -0.44397661758E+02 -0.74641914543E+02  0.38700510165E+02  0.95080477824E+02  0.00000000000E+00 0.  1.
<mgrwt>
<rscale>  0 0.33180299E+04</rscale>
<asrwt>0</asrwt>
<pdfrwt beam="1">  1        2 0.35385941E+00 0.33180299E+04</pdfrwt>
<pdfrwt beam="2">  1       -2 0.18409548E+00 0.33180299E+04</pdfrwt>
<totfact> 0.64247638E-01</totfact>
</mgrwt>
</event>
<event>
12    1  0.1719144E-007  0.1763098E+04  0.7818608E-02  0.8726173E-01
         -2   -1    0    0    0  501 -0.00000000000E+00  0.00000000000E+00  0.82549790018E+03  0.82549790018E+03  0.00000000000E+00 0. -1.
          2   -1    0    0  501    0  0.00000000000E+00 -0.00000000000E+00 -0.94140642184E+03  0.94140642184E+03  0.00000000000E+00 0.  1.
         23    2    1    2    0    0 -0.42430540331E+03 -0.34346248977E+03 -0.38777990124E+03  0.67538921912E+03  0.88180430649E+02 0.  0.
        254    2    1    2    0    0  0.42430540331E+03  0.34346248977E+03  0.27187137958E+03  0.10915151029E+04  0.90525665734E+03 0.  0.
        -24    2    4    4    0    0 -0.10223482296E+03  0.48647553549E+03  0.99425902935E+02  0.51315332880E+03  0.79563955594E+02 0.  0.
         24    2    4    4    0    0  0.52654022626E+03 -0.14301304572E+03  0.17244547665E+03  0.57836177410E+03  0.84068770704E+02 0.  0.
         13    1    3    3    0    0 -0.24979725109E+03 -0.17993802344E+03 -0.16864759955E+03  0.35102474524E+03  0.00000000000E+00 0. -1.
        -13    1    3    3    0    0 -0.17450815221E+03 -0.16352446632E+03 -0.21913230169E+03  0.32436447389E+03  0.00000000000E+00 0.  1.
          4    1    6    6  502    0  0.51588991463E+03 -0.13286584155E+03  0.15354475357E+03  0.55441115359E+03  0.00000000000E+00 0. -1.
          3    1    5    5  503    0 -0.98037407864E+02  0.48862199143E+03  0.96536565624E+02  0.50762396747E+03  0.00000000000E+00 0. -1.
         -4    1    5    5    0  503 -0.41974150918E+01 -0.21464559433E+01  0.28893373112E+01  0.55293613254E+01  0.00000000000E+00 0.  1.
         -1    1    6    6    0  502  0.10650311627E+02 -0.10147204172E+02  0.18900723075E+02  0.23950620514E+02  0.00000000000E+00 0.  1.
<mgrwt>
<rscale>  0 0.17630984E+04</rscale>
<asrwt>0</asrwt>
<pdfrwt beam="1">  1        2 0.14483176E+00 0.17630984E+04</pdfrwt>
<pdfrwt beam="2">  1       -2 0.12699968E+00 0.17630984E+04</pdfrwt>
<totfact> 0.11998845E+01</totfact>
</mgrwt>
</event>
<event>
12    1  0.1472088E-007  0.2075748E+04  0.7818608E-02  0.8572002E-01
         -1   -1    0    0    0  501 -0.00000000000E+00  0.00000000000E+00  0.17371799670E+04  0.17371799670E+04  0.00000000000E+00 0.  1.
          1   -1    0    0  501    0  0.00000000000E+00 -0.00000000000E+00 -0.62007558569E+03  0.62007558569E+03  0.00000000000E+00 0. -1.
         23    2    1    2    0    0  0.71786734715E+02 -0.62294699034E+03  0.11007554933E+04  0.12703322650E+04  0.94154763367E+02 0.  0.
        254    2    1    2    0    0 -0.71786734715E+02  0.62294699034E+03  0.16348888034E+02  0.10869232877E+04  0.88764782381E+03 0.  0.
        -24    2    4    4    0    0  0.85868133648E+02  0.77992781584E+03  0.16762464679E+03  0.80640226593E+03  0.80782782692E+02 0.  0.
         24    2    4    4    0    0 -0.15765486836E+03 -0.15698082550E+03 -0.15127575876E+03  0.28052102176E+03  0.79433313961E+02 0.  0.
         13    1    3    3    0    0  0.72109177876E+02 -0.53459708659E+03  0.10008303693E+04  0.11369499578E+04  0.00000000000E+00 0.  1.
        -13    1    3    3    0    0 -0.32244316181E+00 -0.88349903754E+02  0.99925124024E+02  0.13338230720E+03  0.00000000000E+00 0. -1.
          4    1    6    6  502    0 -0.13319325660E+03 -0.16147437329E+03 -0.12267176996E+03  0.24261652866E+03  0.00000000000E+00 0. -1.
          1    1    5    5  503    0  0.29428048252E+02  0.22341772755E+03  0.85589002348E+02  0.24105387018E+03  0.00000000000E+00 0. -1.
         -2    1    5    5    0  503  0.56440085396E+02  0.55651008829E+03  0.82035644445E+02  0.56534839574E+03  0.00000000000E+00 0.  1.
         -3    1    6    6    0  502 -0.24461611760E+02  0.44935477926E+01 -0.28603988800E+02  0.37904493097E+02  0.00000000000E+00 0.  1.
<mgrwt>
<rscale>  0 0.20757484E+04</rscale>
<asrwt>0</asrwt>
<pdfrwt beam="1">  1        1 0.95396245E-01 0.20757484E+04</pdfrwt>
<pdfrwt beam="2">  1       -1 0.26725845E+00 0.20757484E+04</pdfrwt>
<totfact> 0.16197942E+00</totfact>
</mgrwt>
</event>
<event>
12    1  0.1472088E-007  0.3089721E+04  0.7818608E-02  0.8218565E-01
         -1   -1    0    0    0  501 -0.00000000000E+00  0.00000000000E+00  0.91968873762E+03  0.91968873762E+03  0.00000000000E+00 0.  1.
          1   -1    0    0  501    0  0.00000000000E+00 -0.00000000000E+00 -0.25950012674E+04  0.25950012674E+04  0.00000000000E+00 0. -1.
         23    2    1    2    0    0  0.10810316105E+04 -0.69803874054E+03 -0.14274417490E+04  0.19238582793E+04  0.88052859381E+02 0.  0.
        254    2    1    2    0    0 -0.10810316105E+04  0.69803874054E+03 -0.24787078076E+03  0.15908317256E+04  0.90189701690E+03 0.  0.
        -24    2    4    4    0    0 -0.69129131861E+03  0.48571640400E+03 -0.58185374857E+03  0.10288640634E+04  0.78761436677E+02 0.  0.
         24    2    4    4    0    0 -0.38974029190E+03  0.21232233654E+03  0.33398296780E+03  0.56196766224E+03  0.85350810757E+02 0.  0.
         13    1    3    3    0    0  0.10433321528E+04 -0.66092597623E+03 -0.13462454132E+04  0.18269487786E+04  0.00000000000E+00 0. -1.
        -13    1    3    3    0    0  0.37699457697E+02 -0.37112764314E+02 -0.81196335788E+02  0.96909500726E+02  0.00000000000E+00 0.  1.
          2    1    6    6  502    0  0.54405179389E+00  0.14290646634E+02  0.10907118500E+02  0.17985655605E+02  0.00000000000E+00 0. -1.
          1    1    5    5  503    0 -0.20515489579E+03  0.10151292664E+03 -0.15879096142E+03  0.27858207941E+03  0.00000000000E+00 0. -1.
         -2    1    5    5    0  503 -0.48613642282E+03  0.38420347736E+03 -0.42306278714E+03  0.75028198397E+03  0.00000000000E+00 0.  1.
         -1    1    6    6    0  502 -0.39028434370E+03  0.19803168991E+03  0.32307584930E+03  0.54398200664E+03  0.00000000000E+00 0.  1.
<mgrwt>
<rscale>  0 0.30897207E+04</rscale>
<asrwt>0</asrwt>
<pdfrwt beam="1">  1        1 0.39923097E+00 0.30897207E+04</pdfrwt>
<pdfrwt beam="2">  1       -1 0.14149057E+00 0.30897207E+04</pdfrwt>
<totfact> 0.40030054E-01</totfact>
</mgrwt>
</event>
<event>
12    1  0.1472088E-007  0.1738985E+04  0.7818608E-02  0.8739437E-01
          2   -1    0    0  501    0  0.00000000000E+00  0.00000000000E+00  0.22265072598E+04  0.22265072598E+04  0.00000000000E+00 0. -1.
         -2   -1    0    0    0  501 -0.00000000000E+00 -0.00000000000E+00 -0.33955288988E+03  0.33955288988E+03  0.00000000000E+00 0.  1.
         23    2    1    2    0    0 -0.50168619443E+03  0.36398738618E+03  0.91211730639E+03  0.11066093427E+04  0.91926066868E+02 0.  0.
        254    2    1    2    0    0  0.50168619443E+03 -0.36398738618E+03  0.97483706357E+03  0.14594508070E+04  0.89191563650E+03 0.  0.
        -24    2    4    4    0    0  0.42622421198E+03 -0.98581554627E+01  0.99769971693E+03  0.10878444354E+04  0.78971693686E+02 0.  0.
         24    2    4    4    0    0  0.75461982450E+02 -0.35412923071E+03 -0.22862653354E+02  0.37160637161E+03  0.80414996478E+02 0.  0.
         11    1    3    3    0    0 -0.48855478930E+03  0.35996192938E+03  0.90827590840E+03  0.10923477004E+04  0.00000000000E+00 0. -1.
        -11    1    3    3    0    0 -0.13131405137E+02  0.40254568010E+01  0.38413979878E+01  0.14261642326E+02  0.00000000000E+00 0.  1.
          2    1    6    6  502    0  0.90147162062E+02 -0.25028027190E+03 -0.16264086274E+02  0.26651687720E+03  0.00000000000E+00 0. -1.
          3    1    5    5  503    0  0.38914885890E+03 -0.88228352551E+01  0.83944286427E+03  0.92529941056E+03  0.00000000000E+00 0. -1.
         -2    1    5    5    0  503  0.37075353087E+02 -0.10353202076E+01  0.15825685265E+03  0.16254502486E+03  0.00000000000E+00 0.  1.
         -1    1    6    6    0  502 -0.14685179613E+02 -0.10384895881E+03 -0.65985670796E+01  0.10508949440E+03  0.00000000000E+00 0.  1.
<mgrwt>
<rscale>  0 0.17389847E+04</rscale>
<asrwt>0</asrwt>
<pdfrwt beam="1">  1        2 0.34253957E+00 0.17389847E+04</pdfrwt>
<pdfrwt beam="2">  1       -2 0.52238908E-01 0.17389847E+04</pdfrwt>
<totfact> 0.16379291E+01</totfact>
</mgrwt>
</event>
<event>
12    1  0.1472088E-007  0.2854225E+04  0.7818608E-02  0.8286629E-01
          1   -1    0    0  501    0  0.00000000000E+00  0.00000000000E+00  0.20014867192E+04  0.20014867192E+04  0.00000000000E+00 0. -1.
         -1   -1    0    0    0  501 -0.00000000000E+00 -0.00000000000E+00 -0.10175688009E+04  0.10175688009E+04  0.00000000000E+00 0.  1.
         23    2    1    2    0    0  0.40595566974E+03 -0.27832563889E+03 -0.80799598106E+03  0.95057370656E+03  0.92020101822E+02 0.  0.
        254    2    1    2    0    0 -0.40595566974E+03  0.27832563889E+03  0.17919138994E+04  0.20684818135E+04  0.90851330368E+03 0.  0.
        -24    2    4    4    0    0 -0.66258300720E+03  0.35099986369E+03  0.13428290559E+04  0.15401471428E+04  0.81524245034E+02 0.  0.
         24    2    4    4    0    0  0.25662733746E+03 -0.72674224802E+02  0.44908484355E+03  0.52833467071E+03  0.79505938696E+02 0.  0.
         11    1    3    3    0    0  0.31224811106E+03 -0.17074425771E+03 -0.53519430524E+03  0.64271722302E+03  0.00000000000E+00 0.  1.
        -11    1    3    3    0    0  0.93707558681E+02 -0.10758138118E+03 -0.27280167582E+03  0.30785648355E+03  0.00000000000E+00 0. -1.
          4    1    6    6  502    0  0.24790540788E+03 -0.76138473144E+02  0.38899285074E+03  0.46751427388E+03  0.00000000000E+00 0. -1.
          1    1    5    5  503    0 -0.55483349743E+03  0.32588975978E+03  0.11558050501E+04  0.13228490690E+04  0.00000000000E+00 0. -1.
         -2    1    5    5    0  503 -0.10774950977E+03  0.25110103916E+02  0.18702400572E+03  0.21729807383E+03  0.00000000000E+00 0.  1.
         -3    1    6    6    0  502  0.87219295869E+01  0.34642483420E+01  0.60091992801E+02  0.60820396834E+02  0.00000000000E+00 0.  1.
<mgrwt>
<rscale>  0 0.28542252E+04</rscale>
<asrwt>0</asrwt>
<pdfrwt beam="1">  1        1 0.30792103E+00 0.28542252E+04</pdfrwt>
<pdfrwt beam="2">  1       -1 0.15654905E+00 0.28542252E+04</pdfrwt>
<totfact> 0.79542510E-01</totfact>
</mgrwt>
</event>
<event>
12    1  0.1472088E-007  0.1119133E+04  0.7818608E-02  0.9186742E-01
          1   -1    0    0  501    0  0.00000000000E+00  0.00000000000E+00  0.82833607288E+03  0.82833607288E+03  0.00000000000E+00 0. -1.
         -1   -1    0    0    0  501 -0.00000000000E+00 -0.00000000000E+00 -0.37800425851E+03  0.37800425851E+03  0.00000000000E+00 0.  1.
         23    2    1    2    0    0 -0.68399925596E+02 -0.83317182239E+02  0.23206783820E+03  0.27351231806E+03  0.96608508537E+02 0.  0.
        254    2    1    2    0    0  0.68399925596E+02  0.83317182239E+02  0.21826397617E+03  0.93282801334E+03  0.90050465656E+03 0.  0.
        -24    2    4    4    0    0  0.46605717068E+02  0.33310877206E+03  0.46012886997E+03  0.57550451211E+03  0.79707713502E+02 0.  0.
         24    2    4    4    0    0  0.21794208527E+02 -0.24979158982E+03 -0.24186489380E+03  0.35732350123E+03  0.79439485221E+02 0.  0.
         13    1    3    3    0    0 -0.32376962822E+02 -0.32000267666E+02  0.19592202609E+03  0.20114105786E+03  0.00000000000E+00 0. -1.
        -13    1    3    3    0    0 -0.36022962774E+02 -0.51316914573E+02  0.36145812118E+02  0.72371260193E+02  0.00000000000E+00 0.  1.
          2    1    6    6  502    0  0.81191477522E+01 -0.17603662277E+03 -0.11656742765E+03  0.21128837712E+03  0.00000000000E+00 0. -1.
          3    1    5    5  503    0  0.24205988117E+02  0.29420610088E+03  0.42948028327E+03  0.52114918533E+03  0.00000000000E+00 0. -1.
         -4    1    5    5    0  503  0.22399728952E+02  0.38902671180E+02  0.30648586693E+02  0.54355326770E+02  0.00000000000E+00 0.  1.
         -3    1    6    6    0  502  0.13675060775E+02 -0.73754967045E+02 -0.12529746615E+03  0.14603512411E+03  0.00000000000E+00 0.  1.
<mgrwt>
<rscale>  0 0.11191328E+04</rscale>
<asrwt>0</asrwt>
<pdfrwt beam="1">  1        1 0.12743632E+00 0.11191328E+04</pdfrwt>
<pdfrwt beam="2">  1       -1 0.58154502E-01 0.11191328E+04</pdfrwt>
<totfact> 0.62303681E+01</totfact>
</mgrwt>
</event>
<event>
12    1  0.1472088E-007  0.1588737E+04  0.7818608E-02  0.8827498E-01
          2   -1    0    0  501    0  0.00000000000E+00  0.00000000000E+00  0.20733241097E+03  0.20733241097E+03  0.00000000000E+00 0. -1.
         -2   -1    0    0    0  501 -0.00000000000E+00 -0.00000000000E+00 -0.30435234469E+04  0.30435234469E+04  0.00000000000E+00 0.  1.
         23    2    1    2    0    0  0.13479384015E+03 -0.25040705139E+03 -0.19389537039E+04  0.19618757785E+04  0.92423123562E+02 0.  0.
        254    2    1    2    0    0 -0.13479384015E+03  0.25040705139E+03 -0.89723733199E+03  0.12889800793E+04  0.88065983456E+03 0.  0.
        -24    2    4    4    0    0  0.24896038218E+03  0.23076916692E+03 -0.46231324591E+02  0.35180278840E+03  0.79951149176E+02 0.  0.
         24    2    4    4    0    0 -0.38375422233E+03  0.19637884465E+02 -0.85100600740E+03  0.93717729091E+03  0.80231541829E+02 0.  0.
         13    1    3    3    0    0  0.46602223553E+02 -0.37766176266E+02 -0.23930202432E+03  0.24670531034E+03  0.00000000000E+00 0. -1.
        -13    1    3    3    0    0  0.88191616599E+02 -0.21264087512E+03 -0.16996516796E+04  0.17151704682E+04  0.00000000000E+00 0.  1.
          4    1    6    6  502    0 -0.87890109065E+01  0.14567053049E+02 -0.47973431918E+02  0.50900843974E+02  0.00000000000E+00 0. -1.
          3    1    5    5  503    0  0.97258504013E+02  0.10332707908E+03 -0.58065840387E+02  0.15332104779E+03  0.00000000000E+00 0. -1.
         -4    1    5    5    0  503  0.15170187816E+03  0.12744208784E+03  0.11834515796E+02  0.19848174061E+03  0.00000000000E+00 0.  1.
         -3    1    6    6    0  502 -0.37496521142E+03  0.50708314168E+01 -0.80303257549E+03  0.88627644694E+03  0.00000000000E+00 0.  1.
<mgrwt>
<rscale>  0 0.15887367E+04</rscale>
<asrwt>0</asrwt>
<pdfrwt beam="1">  1        2 0.31897296E-01 0.15887367E+04</pdfrwt>
<pdfrwt beam="2">  1       -2 0.46823435E+00 0.15887367E+04</pdfrwt>
<totfact> 0.42210052E-01</totfact>
</mgrwt>
</event>
<event>
12    1  0.1472088E-007  0.1200003E+04  0.7818608E-02  0.9112854E-01
          1   -1    0    0  501    0  0.00000000000E+00  0.00000000000E+00  0.10427724669E+04  0.10427724669E+04  0.00000000000E+00 0. -1.
         -1   -1    0    0    0  501 -0.00000000000E+00 -0.00000000000E+00 -0.34523538160E+03  0.34523538160E+03  0.00000000000E+00 0.  1.
         23    2    1    2    0    0 -0.20348925037E+02 -0.13126278017E+03  0.40339620033E+03  0.43419283752E+03  0.90282498319E+02 0.  0.
        254    2    1    2    0    0  0.20348925037E+02  0.13126278017E+03  0.29414088494E+03  0.95381501094E+03  0.89755234872E+03 0.  0.
        -24    2    4    4    0    0  0.42445742983E+03 -0.81420075843E+02  0.92846901079E+02  0.44899680508E+03  0.78639973597E+02 0.  0.
         24    2    4    4    0    0 -0.40410850479E+03  0.21268285601E+03  0.20129398386E+03  0.50481820586E+03  0.76055717337E+02 0.  0.
         11    1    3    3    0    0  0.15520023520E+02 -0.20001497707E+02  0.18272171274E+03  0.18446722026E+03  0.00000000000E+00 0.  1.
        -11    1    3    3    0    0 -0.35868948557E+02 -0.11126128246E+03  0.22067448759E+03  0.24972561726E+03  0.00000000000E+00 0. -1.
          4    1    6    6  502    0 -0.20524280891E+03  0.93359287695E+02  0.60288826085E+02  0.23339946392E+03  0.00000000000E+00 0. -1.
          3    1    5    5  503    0  0.42355282139E+03 -0.72542650408E+02  0.94327912631E+02  0.43995134246E+03  0.00000000000E+00 0. -1.
         -4    1    5    5    0  503  0.90460844162E+00 -0.88774254354E+01 -0.14810115523E+01  0.90454626201E+01  0.00000000000E+00 0.  1.
         -3    1    6    6    0  502 -0.19886569589E+03  0.11932356832E+03  0.14100515778E+03  0.27141874194E+03  0.00000000000E+00 0.  1.
<mgrwt>
<rscale>  0 0.12000033E+04</rscale>
<asrwt>0</asrwt>
<pdfrwt beam="1">  1        1 0.16042653E+00 0.12000033E+04</pdfrwt>
<pdfrwt beam="2">  1       -1 0.53113136E-01 0.12000033E+04</pdfrwt>
<totfact> 0.49584021E+01</totfact>
</mgrwt>
</event>
<event>
12    1  0.1472088E-007  0.1548234E+04  0.7818608E-02  0.8852996E-01
         -2   -1    0    0    0  501 -0.00000000000E+00  0.00000000000E+00  0.42513655177E+03  0.42513655177E+03  0.00000000000E+00 0.  1.
          2   -1    0    0  501    0  0.00000000000E+00 -0.00000000000E+00 -0.14095646649E+04  0.14095646649E+04  0.00000000000E+00 0. -1.
         23    2    1    2    0    0  0.23919677342E+03 -0.59453498072E+01 -0.84556622415E+03  0.88260789953E+03  0.82243670204E+02 0.  0.
        254    2    1    2    0    0 -0.23919677342E+03  0.59453498072E+01 -0.13886188900E+03  0.95209331716E+03  0.91101515726E+03 0.  0.
        -24    2    4    4    0    0 -0.46158115917E+03 -0.29176889651E+03 -0.15465982709E+03  0.57220225704E+03  0.72866352880E+02 0.  0.
         24    2    4    4    0    0  0.22238438575E+03  0.29771424631E+03  0.15797938086E+02  0.37989106012E+03  0.77324350806E+02 0.  0.
         13    1    3    3    0    0  0.63581157971E+02 -0.77233143354E+01 -0.37306731127E+03  0.37852533862E+03  0.00000000000E+00 0.  1.
        -13    1    3    3    0    0  0.17561561545E+03  0.17779645281E+01 -0.47249891288E+03  0.50408256091E+03  0.00000000000E+00 0. -1.
          2    1    6    6  502    0  0.51890770856E+02  0.12702320795E+03 -0.81248261715E+01  0.13745384774E+03  0.00000000000E+00 0. -1.
          1    1    5    5  503    0 -0.28116211608E+03 -0.19784976507E+03 -0.64867154888E+02  0.34986342026E+03  0.00000000000E+00 0. -1.
         -2    1    5    5    0  503 -0.18041904309E+03 -0.93919131440E+02 -0.89792672199E+02  0.22233883678E+03  0.00000000000E+00 0.  1.
         -1    1    6    6    0  502  0.17049361489E+03  0.17069103836E+03  0.23922764258E+02  0.24243721238E+03  0.00000000000E+00 0.  1.
<mgrwt>
<rscale>  0 0.15482344E+04</rscale>
<asrwt>0</asrwt>
<pdfrwt beam="1">  1        2 0.21685610E+00 0.15482344E+04</pdfrwt>
<pdfrwt beam="2">  1       -2 0.65405623E-01 0.15482344E+04</pdfrwt>
<totfact> 0.29630454E+01</totfact>
</mgrwt>
</event>
<event>
12    1  0.1472088E-007  0.1901602E+04  0.7818608E-02  0.8654059E-01
          2   -1    0    0  501    0  0.00000000000E+00  0.00000000000E+00  0.93005133885E+03  0.93005133885E+03  0.00000000000E+00 0. -1.
         -2   -1    0    0    0  501 -0.00000000000E+00 -0.00000000000E+00 -0.97201387314E+03  0.97201387314E+03  0.00000000000E+00 0.  1.
         23    2    1    2    0    0 -0.73074310646E+03  0.43424810215E+02  0.62667806415E+02  0.74011558955E+03  0.89289585916E+02 0.  0.
        254    2    1    2    0    0  0.73074310646E+03 -0.43424810215E+02 -0.10463034070E+03  0.11619496224E+04  0.89627463153E+03 0.  0.
        -24    2    4    4    0    0 -0.29862246887E+02 -0.20030742405E+03  0.22718138727E+03  0.31373955149E+03  0.76199117632E+02 0.  0.
         24    2    4    4    0    0  0.76060535335E+03  0.15688261384E+03 -0.33181172797E+03  0.84821007095E+03  0.78921756085E+02 0.  0.
         11    1    3    3    0    0 -0.43937266228E+02  0.18980535590E+02 -0.10471792331E+02  0.48993902983E+02  0.00000000000E+00 0.  1.
        -11    1    3    3    0    0 -0.68680584023E+03  0.24444274626E+02  0.73139598746E+02  0.69112168657E+03  0.00000000000E+00 0. -1.
          4    1    6    6  502    0  0.54544290326E+03  0.99847545957E+02 -0.19973900959E+03  0.58938371635E+03  0.00000000000E+00 0. -1.
          1    1    5    5  503    0 -0.27227921971E+02 -0.50311080642E+02  0.26144260678E+02  0.62897431877E+02  0.00000000000E+00 0. -1.
         -2    1    5    5    0  503 -0.26343249160E+01 -0.14999634341E+03  0.20103712659E+03  0.25084211961E+03  0.00000000000E+00 0.  1.
         -1    1    6    6    0  502  0.21516245009E+03  0.57035067882E+02 -0.13207271838E+03  0.25882635460E+03  0.00000000000E+00 0.  1.
<mgrwt>
<rscale>  0 0.19016023E+04</rscale>
<asrwt>0</asrwt>
<pdfrwt beam="1">  1        2 0.14308482E+00 0.19016023E+04</pdfrwt>
<pdfrwt beam="2">  1       -2 0.14954060E+00 0.19016023E+04</pdfrwt>
<totfact> 0.79157634E+00</totfact>
</mgrwt>
</event>
<event>
12    1  0.1472088E-007  0.1858011E+04  0.7818608E-02  0.8676044E-01
         -2   -1    0    0    0  501 -0.00000000000E+00  0.00000000000E+00  0.64895003583E+03  0.64895003583E+03  0.00000000000E+00 0.  1.
          2   -1    0    0  501    0  0.00000000000E+00 -0.00000000000E+00 -0.13299194777E+04  0.13299194777E+04  0.00000000000E+00 0. -1.
         23    2    1    2    0    0  0.14519926799E+03  0.67629878485E+03 -0.92517971050E+02  0.70355152430E+03  0.89231712719E+02 0.  0.
        254    2    1    2    0    0 -0.14519926799E+03 -0.67629878485E+03 -0.58845147080E+03  0.12753179892E+04  0.89537587990E+03 0.  0.
        -24    2    4    4    0    0 -0.18566927715E+03  0.11736174981E+03 -0.38642127906E+03  0.45155009083E+03  0.79556387676E+02 0.  0.
         24    2    4    4    0    0  0.40470009154E+02 -0.79366053466E+03 -0.20203019174E+03  0.82376789839E+03  0.79009405276E+02 0.  0.
         11    1    3    3    0    0  0.18781991551E+02  0.63839530172E+02 -0.35932581389E+02  0.75626709729E+02  0.00000000000E+00 0. -1.
        -11    1    3    3    0    0  0.12641727644E+03  0.61245925468E+03 -0.56585389661E+02  0.62792481457E+03  0.00000000000E+00 0.  1.
          2    1    6    6  502    0  0.41009374725E+02 -0.18266399534E+03 -0.58513580780E+02  0.19614215035E+03  0.00000000000E+00 0. -1.
          1    1    5    5  503    0 -0.57817966028E+02  0.20761171235E+02 -0.51097532356E+02  0.79905577024E+02  0.00000000000E+00 0. -1.
         -2    1    5    5    0  503 -0.12785131112E+03  0.96600578572E+02 -0.33532374670E+03  0.37164451380E+03  0.00000000000E+00 0.  1.
         -1    1    6    6    0  502 -0.53936557123E+00 -0.61099653932E+03 -0.14351661096E+03  0.62762574804E+03  0.00000000000E+00 0.  1.
<mgrwt>
<rscale>  0 0.18580111E+04</rscale>
<asrwt>0</asrwt>
<pdfrwt beam="1">  1        2 0.20460299E+00 0.18580111E+04</pdfrwt>
<pdfrwt beam="2">  1       -2 0.99838470E-01 0.18580111E+04</pdfrwt>
<totfact> 0.12376688E+01</totfact>
</mgrwt>
</event>
<event>
12    1  0.1472088E-007  0.1473866E+04  0.7818608E-02  0.8902020E-01
          1   -1    0    0  501    0  0.00000000000E+00  0.00000000000E+00  0.13477465519E+04  0.13477465519E+04  0.00000000000E+00 0.  1.
         -1   -1    0    0    0  501 -0.00000000000E+00 -0.00000000000E+00 -0.40294659208E+03  0.40294659208E+03  0.00000000000E+00 0. -1.
         23    2    1    2    0    0 -0.46329671285E+02  0.28178188936E+03 -0.13180095130E+03  0.32764200968E+03  0.91816796553E+02 0.  0.
        254    2    1    2    0    0  0.46329671285E+02 -0.28178188936E+03  0.10766009112E+04  0.14230511343E+04  0.88569607509E+03 0.  0.
        -24    2    4    4    0    0 -0.31908170914E+03  0.66740258259E+01  0.82477762876E+03  0.88794493310E+03  0.79563732885E+02 0.  0.
         24    2    4    4    0    0  0.36541138043E+03 -0.28845591519E+03  0.25182328240E+03  0.53510620124E+03  0.78685380439E+02 0.  0.
         11    1    3    3    0    0 -0.38004490923E+02  0.13726510480E+03 -0.18108275763E+02  0.14357562459E+03  0.00000000000E+00 0. -1.
        -11    1    3    3    0    0 -0.83251803622E+01  0.14451678457E+03 -0.11369267554E+03  0.18406638509E+03  0.00000000000E+00 0.  1.
          4    1    6    6  502    0  0.10401542546E+03 -0.10359611641E+03  0.11697531035E+03  0.18770878323E+03  0.00000000000E+00 0. -1.
          1    1    5    5  503    0 -0.15504267246E+02 -0.16146094962E+02  0.86798026664E+02  0.89638028304E+02  0.00000000000E+00 0. -1.
         -2    1    5    5    0  503 -0.30357744190E+03  0.22820120788E+02  0.73797960210E+03  0.79830690480E+03  0.00000000000E+00 0.  1.
         -3    1    6    6    0  502  0.26139595496E+03 -0.18485979878E+03  0.13484797205E+03  0.34739741801E+03  0.00000000000E+00 0.  1.
<mgrwt>
<rscale>  0 0.14738655E+04</rscale>
<asrwt>0</asrwt>
<pdfrwt beam="1">  1        1 0.20734562E+00 0.14738655E+04</pdfrwt>
<pdfrwt beam="2">  1       -1 0.61991784E-01 0.14738655E+04</pdfrwt>
<totfact> 0.21398779E+01</totfact>
</mgrwt>
</event>
<event>
12    1  0.1472088E-007  0.2351997E+04  0.7818608E-02  0.8457697E-01
          1   -1    0    0  501    0  0.00000000000E+00  0.00000000000E+00  0.33569074160E+04  0.33569074160E+04  0.00000000000E+00 0. -1.
         -1   -1    0    0    0  501 -0.00000000000E+00 -0.00000000000E+00 -0.41197802475E+03  0.41197802475E+03  0.00000000000E+00 0.  1.
         23    2    1    2    0    0  0.57879852276E+03  0.65818511059E+03  0.20253332381E+04  0.22086731875E+04  0.89705931265E+02 0.  0.
        254    2    1    2    0    0 -0.57879852276E+03 -0.65818511059E+03  0.91959615309E+03  0.15602122532E+04  0.90575373058E+03 0.  0.
        -24    2    4    4    0    0 -0.28515831297E+03 -0.55129230460E+03  0.44665242312E+02  0.62757470765E+03  0.81342247581E+02 0.  0.
         24    2    4    4    0    0 -0.29364020979E+03 -0.10689280599E+03  0.87493091078E+03  0.93263754554E+03  0.81596862271E+02 0.  0.
         11    1    3    3    0    0  0.12079949894E+03  0.10638512203E+03  0.44601227742E+03  0.47417007998E+03  0.00000000000E+00 0.  1.
        -11    1    3    3    0    0  0.45799902382E+03  0.55179998856E+03  0.15793209607E+04  0.17345031076E+04  0.00000000000E+00 0. -1.
          2    1    6    6  502    0 -0.17244754925E+03 -0.93266403247E+02  0.61552326825E+03  0.64599200689E+03  0.00000000000E+00 0. -1.
          1    1    5    5  503    0 -0.14475896118E+03 -0.26937993555E+03  0.62493111980E+02  0.31213153567E+03  0.00000000000E+00 0. -1.
         -2    1    5    5    0  503 -0.14039935179E+03 -0.28191236906E+03 -0.17827869667E+02  0.31544317198E+03  0.00000000000E+00 0.  1.
         -1    1    6    6    0  502 -0.12119266054E+03 -0.13626402740E+02  0.25940764253E+03  0.28664553864E+03  0.00000000000E+00 0.  1.
<mgrwt>
<rscale>  0 0.23519967E+04</rscale>
<asrwt>0</asrwt>
<pdfrwt beam="1">  1        1 0.51644728E+00 0.23519967E+04</pdfrwt>
<pdfrwt beam="2">  1       -1 0.63381237E-01 0.23519967E+04</pdfrwt>
<totfact> 0.73479097E-01</totfact>
</mgrwt>
</event>
<event>
12    1  0.1472088E-007  0.1424084E+04  0.7818608E-02  0.8936568E-01
          1   -1    0    0  501    0  0.00000000000E+00  0.00000000000E+00  0.14683951179E+04  0.14683951179E+04  0.00000000000E+00 0. -1.
         -1   -1    0    0    0  501 -0.00000000000E+00 -0.00000000000E+00 -0.34527729212E+03  0.34527729212E+03  0.00000000000E+00 0.  1.
         23    2    1    2    0    0 -0.13886501689E+03 -0.38017360666E+03  0.19348075462E+03  0.45738983126E+03  0.89191878643E+02 0.  0.
        254    2    1    2    0    0  0.13886501689E+03  0.38017360666E+03  0.92963707120E+03  0.13562825788E+04  0.90081179238E+03 0.  0.
        -24    2    4    4    0    0 -0.23803151816E+03  0.43368997020E+03  0.80407089405E+03  0.94751799045E+03  0.80711496620E+02 0.  0.
         24    2    4    4    0    0  0.37689653505E+03 -0.53516363537E+02  0.12556617715E+03  0.40876458834E+03  0.80041392644E+02 0.  0.
         13    1    3    3    0    0 -0.10791163873E+02  0.82818818144E+00 -0.98472073467E+00  0.10867602695E+02  0.00000000000E+00 0.  1.
        -13    1    3    3    0    0 -0.12807385302E+03 -0.38100179485E+03  0.19446547535E+03  0.44652222857E+03  0.00000000000E+00 0. -1.
          4    1    6    6  502    0  0.17095569714E+03  0.15852926906E+02  0.54868162981E+02  0.18024339373E+03  0.00000000000E+00 0. -1.
          3    1    5    5  503    0 -0.21528061366E+03  0.32265270097E+03  0.62690777706E+03  0.73720001967E+03  0.00000000000E+00 0. -1.
         -4    1    5    5    0  503 -0.22750904501E+02  0.11103726923E+03  0.17716311699E+03  0.21031797078E+03  0.00000000000E+00 0.  1.
         -3    1    6    6    0  502  0.20594083792E+03 -0.69369290444E+02  0.70698014166E+02  0.22852119461E+03  0.00000000000E+00 0.  1.
<mgrwt>
<rscale>  0 0.14240836E+04</rscale>
<asrwt>0</asrwt>
<pdfrwt beam="1">  1        1 0.22590694E+00 0.14240836E+04</pdfrwt>
<pdfrwt beam="2">  1       -1 0.53119584E-01 0.14240836E+04</pdfrwt>
<totfact> 0.23932277E+01</totfact>
</mgrwt>
</event>
<event>
12    1  0.1472088E-007  0.1148596E+04  0.7818608E-02  0.9159080E-01
          1   -1    0    0  501    0  0.00000000000E+00  0.00000000000E+00  0.33978877069E+03  0.33978877069E+03  0.00000000000E+00 0. -1.
         -1   -1    0    0    0  501 -0.00000000000E+00 -0.00000000000E+00 -0.97065582273E+03  0.97065582273E+03  0.00000000000E+00 0.  1.
         23    2    1    2    0    0  0.12132151417E+03  0.29862115288E+02 -0.30510672695E+03  0.34224544443E+03  0.91821422733E+02 0.  0.
        254    2    1    2    0    0 -0.12132151417E+03 -0.29862115288E+02 -0.32576032510E+03  0.96819914899E+03  0.90314957065E+03 0.  0.
        -24    2    4    4    0    0 -0.28148530900E+00  0.27899923231E+03 -0.50517954034E+03  0.58272160606E+03  0.80730733478E+02 0.  0.
         24    2    4    4    0    0 -0.12104002887E+03 -0.30886134759E+03  0.17941921524E+03  0.38547754293E+03  0.79722397609E+02 0.  0.
         13    1    3    3    0    0  0.32612791898E+02 -0.14632343144E+02 -0.17497905611E+03  0.17859274828E+03  0.00000000000E+00 0.  1.
        -13    1    3    3    0    0  0.88708722277E+02  0.44494458433E+02 -0.13012767084E+03  0.16365269615E+03  0.00000000000E+00 0. -1.
          2    1    6    6  502    0 -0.24066384468E+02 -0.24446484511E+02 -0.21792654407E+01  0.34373982373E+02  0.00000000000E+00 0. -1.
          3    1    5    5  503    0 -0.50772038310E+01  0.13524190295E+03 -0.32582577972E+03  0.35281523358E+03  0.00000000000E+00 0. -1.
         -4    1    5    5    0  503  0.47957185220E+01  0.14375732936E+03 -0.17935376062E+03  0.22990637248E+03  0.00000000000E+00 0.  1.
         -1    1    6    6    0  502 -0.96973644398E+02 -0.28441486308E+03  0.18159848068E+03  0.35110356056E+03  0.00000000000E+00 0.  1.
<mgrwt>
<rscale>  0 0.11485956E+04</rscale>
<asrwt>0</asrwt>
<pdfrwt beam="1">  1        1 0.52275195E-01 0.11485956E+04</pdfrwt>
<pdfrwt beam="2">  1       -1 0.14933167E+00 0.11485956E+04</pdfrwt>
<totfact> 0.26121805E+01</totfact>
</mgrwt>
</event>
<event>
12    1  0.1472088E-007  0.3267246E+04  0.7818608E-02  0.8171280E-01
          2   -1    0    0  501    0  0.00000000000E+00  0.00000000000E+00  0.23504745477E+04  0.23504745477E+04  0.00000000000E+00 0.  1.
         -2   -1    0    0    0  501 -0.00000000000E+00 -0.00000000000E+00 -0.11353979142E+04  0.11353979142E+04  0.00000000000E+00 0. -1.
         23    2    1    2    0    0 -0.71504670949E+02 -0.14320074324E+04  0.52676208470E+02  0.14377090903E+04  0.92056727033E+02 0.  0.
        254    2    1    2    0    0  0.71504670949E+02  0.14320074324E+04  0.11624004251E+04  0.20481633715E+04  0.88771630823E+03 0.  0.
        -24    2    4    4    0    0 -0.22491475157E+03  0.22896422588E+03 -0.22302330988E+02  0.33160109153E+03  0.80315799982E+02 0.  0.
         24    2    4    4    0    0  0.29641942252E+03  0.12030432065E+04  0.11847027561E+04  0.17165622800E+04  0.88814470359E+02 0.  0.
         11    1    3    3    0    0 -0.69836788550E+02 -0.14196363103E+04  0.43152569463E+02  0.14220079377E+04  0.00000000000E+00 0. -1.
        -11    1    3    3    0    0 -0.16678823993E+01 -0.12371122053E+02  0.95236390068E+01  0.15701152585E+02  0.00000000000E+00 0.  1.
          2    1    6    6  502    0  0.70681190239E+02  0.25451007377E+03  0.20502095659E+03  0.33437224906E+03  0.00000000000E+00 0. -1.
          1    1    5    5  503    0 -0.14575229010E+03  0.16441961358E+03  0.20871725402E+02  0.22071059857E+03  0.00000000000E+00 0. -1.
         -2    1    5    5    0  503 -0.79162461478E+02  0.64544612299E+02 -0.43174056390E+02  0.11089049296E+03  0.00000000000E+00 0.  1.
         -1    1    6    6    0  502  0.22573823228E+03  0.94853313276E+03  0.97968179947E+03  0.13821900310E+04  0.00000000000E+00 0.  1.
<mgrwt>
<rscale>  0 0.32672459E+04</rscale>
<asrwt>0</asrwt>
<pdfrwt beam="1">  1        2 0.36161147E+00 0.32672459E+04</pdfrwt>
<pdfrwt beam="2">  1       -2 0.17467660E+00 0.32672459E+04</pdfrwt>
<totfact> 0.70182526E-01</totfact>
</mgrwt>
</event>
<event>
12    1  0.1472088E-007  0.2317324E+04  0.7818608E-02  0.8471122E-01
          1   -1    0    0  501    0  0.00000000000E+00  0.00000000000E+00  0.32072490528E+04  0.32072490528E+04  0.00000000000E+00 0. -1.
         -1   -1    0    0    0  501 -0.00000000000E+00 -0.00000000000E+00 -0.41858234239E+03  0.41858234239E+03  0.00000000000E+00 0.  1.
         23    2    1    2    0    0 -0.71250059287E+03 -0.34985963741E+02  0.12961615395E+03  0.73063303328E+03  0.90239511649E+02 0.  0.
        254    2    1    2    0    0  0.71250059287E+03  0.34985963741E+02  0.26590505565E+04  0.28951983619E+04  0.89595902837E+03 0.  0.
        -24    2    4    4    0    0 -0.13822323697E+03 -0.79928132361E+02  0.10952138911E+04  0.11094855582E+04  0.77269444620E+02 0.  0.
         24    2    4    4    0    0  0.85072382983E+03  0.11491409610E+03  0.15638366654E+04  0.17857128037E+04  0.79049460495E+02 0.  0.
         11    1    3    3    0    0 -0.45359502147E+03 -0.27822377900E+02  0.12604598348E+03  0.47160377242E+03  0.00000000000E+00 0. -1.
        -11    1    3    3    0    0 -0.25890557140E+03 -0.71635858414E+01  0.35701704718E+01  0.25902926086E+03  0.00000000000E+00 0.  1.
          4    1    6    6  502    0  0.12007302888E+03 -0.43045577263E+01  0.18249400352E+03  0.21849513222E+03  0.00000000000E+00 0. -1.
          1    1    5    5  503    0 -0.19428636476E+02 -0.42389943532E+02  0.18505457863E+03  0.19083913724E+03  0.00000000000E+00 0. -1.
         -4    1    5    5    0  503 -0.11879460049E+03 -0.37538188830E+02  0.91015931244E+03  0.91864642097E+03  0.00000000000E+00 0.  1.
         -3    1    6    6    0  502  0.73065080095E+03  0.11921865383E+03  0.13813426619E+04  0.15672176715E+04  0.00000000000E+00 0.  1.
<mgrwt>
<rscale>  0 0.23173242E+04</rscale>
<asrwt>0</asrwt>
<pdfrwt beam="1">  1        1 0.49342292E+00 0.23173242E+04</pdfrwt>
<pdfrwt beam="2">  1       -1 0.64397285E-01 0.23173242E+04</pdfrwt>
<totfact> 0.92733447E-01</totfact>
</mgrwt>
</event>
<event>
12    1  0.1472088E-007  0.1573119E+04  0.7818608E-02  0.8837235E-01
          2   -1    0    0  501    0  0.00000000000E+00  0.00000000000E+00  0.13599098478E+04  0.13599098478E+04  0.00000000000E+00 0. -1.
         -2   -1    0    0    0  501 -0.00000000000E+00 -0.00000000000E+00 -0.45493862046E+03  0.45493862046E+03  0.00000000000E+00 0.  1.
         23    2    1    2    0    0  0.21579678230E+03  0.31240967116E+03 -0.10844560257E+03  0.40537006797E+03  0.91631814356E+02 0.  0.
        254    2    1    2    0    0 -0.21579678230E+03 -0.31240967116E+03  0.10134168299E+04  0.14094784003E+04  0.90302139281E+03 0.  0.
        -24    2    4    4    0    0 -0.15666614195E+03 -0.19422208913E+03 -0.10355303031E+03  0.28188702412E+03  0.80439818124E+02 0.  0.
         24    2    4    4    0    0 -0.59130640350E+02 -0.11818758203E+03  0.11169698602E+04  0.11275913762E+04  0.79849269406E+02 0.  0.
         11    1    3    3    0    0  0.21315720603E+03  0.28264384248E+03 -0.77585314723E+02  0.36241277190E+03  0.00000000000E+00 0.  1.
        -11    1    3    3    0    0  0.26395762740E+01  0.29765828679E+02 -0.30860287844E+02  0.42957296070E+02  0.00000000000E+00 0. -1.
          4    1    6    6  502    0  0.18689582929E+02 -0.39313491967E+02  0.29976097910E+03  0.30290509363E+03  0.00000000000E+00 0. -1.
          3    1    5    5  503    0 -0.76853622455E+02 -0.37695680935E+02 -0.23226325570E+02  0.88695579625E+02  0.00000000000E+00 0. -1.
         -4    1    5    5    0  503 -0.79812519499E+02 -0.15652640820E+03 -0.80326704740E+02  0.19319144450E+03  0.00000000000E+00 0.  1.
         -3    1    6    6    0  502 -0.77820223278E+02 -0.78874090059E+02  0.81720888110E+03  0.82468628253E+03  0.00000000000E+00 0.  1.
<mgrwt>
<rscale>  0 0.15731186E+04</rscale>
<asrwt>0</asrwt>
<pdfrwt beam="1">  1        2 0.20921690E+00 0.15731186E+04</pdfrwt>
<pdfrwt beam="2">  1       -2 0.69990558E-01 0.15731186E+04</pdfrwt>
<totfact> 0.27264646E+01</totfact>
</mgrwt>
</event>
<event>
12    1  0.1472088E-007  0.1524261E+04  0.7818608E-02  0.8868478E-01
          2   -1    0    0  501    0  0.00000000000E+00  0.00000000000E+00  0.10880731186E+04  0.10880731186E+04  0.00000000000E+00 0. -1.
         -2   -1    0    0    0  501 -0.00000000000E+00 -0.00000000000E+00 -0.53382727842E+03  0.53382727842E+03  0.00000000000E+00 0.  1.
         23    2    1    2    0    0 -0.73496219949E+02 -0.87849395145E+02  0.67291325111E+03  0.68876513471E+03  0.92010633643E+02 0.  0.
        254    2    1    2    0    0  0.73496219949E+02  0.87849395145E+02 -0.11866741097E+03  0.93313526227E+03  0.91844447448E+03 0.  0.
        -24    2    4    4    0    0 -0.83843884794E+02 -0.38969774483E+03 -0.12200054075E+03  0.42453511304E+03  0.80323103233E+02 0.  0.
         24    2    4    4    0    0  0.15734010474E+03  0.47754713998E+03  0.33331297838E+01  0.50860014923E+03  0.76523346683E+02 0.  0.
         11    1    3    3    0    0 -0.39337337897E+02 -0.87680888696E+02  0.60665710383E+03  0.61422162614E+03  0.00000000000E+00 0. -1.
        -11    1    3    3    0    0 -0.34158882053E+02 -0.16850644895E+00  0.66256147280E+02  0.74543508570E+02  0.00000000000E+00 0.  1.
          2    1    6    6  502    0  0.70049575386E+02  0.24917956166E+03  0.38208080806E+02  0.26164337255E+03  0.00000000000E+00 0. -1.
          1    1    5    5  503    0 -0.53299287993E+02 -0.23542394777E+03 -0.32436941226E+02  0.24355164635E+03  0.00000000000E+00 0. -1.
         -2    1    5    5    0  503 -0.30544596801E+02 -0.15427379707E+03 -0.89563599527E+02  0.18098346669E+03  0.00000000000E+00 0.  1.
         -1    1    6    6    0  502  0.87290529357E+02  0.22836757832E+03 -0.34874951022E+02  0.24695677669E+03  0.00000000000E+00 0.  1.
<mgrwt>
<rscale>  0 0.15242613E+04</rscale>
<asrwt>0</asrwt>
<pdfrwt beam="1">  1        2 0.16739586E+00 0.15242613E+04</pdfrwt>
<pdfrwt beam="2">  1       -2 0.82127274E-01 0.15242613E+04</pdfrwt>
<totfact> 0.27848247E+01</totfact>
</mgrwt>
</event>
<event>
12    1  0.1472088E-007  0.2150635E+04  0.7818608E-02  0.8539261E-01
          1   -1    0    0  501    0  0.00000000000E+00  0.00000000000E+00  0.12817673994E+04  0.12817673994E+04  0.00000000000E+00 0. -1.
         -1   -1    0    0    0  501 -0.00000000000E+00 -0.00000000000E+00 -0.90211974091E+03  0.90211974091E+03  0.00000000000E+00 0.  1.
         23    2    1    2    0    0  0.77007543443E+03  0.36583224412E+03 -0.81156204750E+02  0.86082077248E+03  0.87044053320E+02 0.  0.
        254    2    1    2    0    0 -0.77007543443E+03 -0.36583224412E+03  0.46080386321E+03  0.13230663678E+04  0.90073026358E+03 0.  0.
        -24    2    4    4    0    0 -0.42042789098E+03 -0.60919931854E+03  0.48564895918E+03  0.88891640557E+03  0.80212488488E+02 0.  0.
         24    2    4    4    0    0 -0.34964754344E+03  0.24336707442E+03 -0.24845095970E+02  0.43414996224E+03  0.79924798212E+02 0.  0.
         13    1    3    3    0    0  0.21186532721E+03  0.13017805280E+03  0.56099491557E+01  0.24872618244E+03  0.00000000000E+00 0. -1.
        -13    1    3    3    0    0  0.55821010722E+03  0.23565419132E+03 -0.86766153906E+02  0.61209459003E+03  0.00000000000E+00 0.  1.
          4    1    6    6  502    0 -0.87487151420E+02  0.98371111983E+02 -0.27795933793E+02  0.13454921505E+03  0.00000000000E+00 0. -1.
          1    1    5    5  503    0 -0.17182542423E+03 -0.24269204395E+03  0.14887493816E+03  0.33254646565E+03  0.00000000000E+00 0. -1.
         -2    1    5    5    0  503 -0.24860246675E+03 -0.36650727460E+03  0.33677402102E+03  0.55636993992E+03  0.00000000000E+00 0.  1.
         -3    1    6    6    0  502 -0.26216039202E+03  0.14499596244E+03  0.29508378227E+01  0.29960074718E+03  0.00000000000E+00 0.  1.
<mgrwt>
<rscale>  0 0.21506350E+04</rscale>
<asrwt>0</asrwt>
<pdfrwt beam="1">  1        1 0.19719498E+00 0.21506350E+04</pdfrwt>
<pdfrwt beam="2">  1       -1 0.13878765E+00 0.21506350E+04</pdfrwt>
<totfact> 0.36604019E+00</totfact>
</mgrwt>
</event>
<event>
12    1  0.1472088E-007  0.1542399E+04  0.7818608E-02  0.8856737E-01
          2   -1    0    0  501    0  0.00000000000E+00  0.00000000000E+00  0.13796845306E+04  0.13796845306E+04  0.00000000000E+00 0. -1.
         -2   -1    0    0    0  501 -0.00000000000E+00 -0.00000000000E+00 -0.43107610055E+03  0.43107610055E+03  0.00000000000E+00 0.  1.
         23    2    1    2    0    0 -0.17678154153E+03  0.96009788321E+01  0.85877836459E+03  0.88155710811E+03  0.91097547399E+02 0.  0.
        254    2    1    2    0    0  0.17678154153E+03 -0.96009788321E+01  0.89830065470E+02  0.92920352306E+03  0.90774768212E+03 0.  0.
        -24    2    4    4    0    0  0.42022879333E+03  0.29738851819E+03  0.86805504014E+01  0.52106247858E+03  0.79991156618E+02 0.  0.
         24    2    4    4    0    0 -0.24344725180E+03 -0.30698949702E+03  0.81149515069E+02  0.40814104448E+03  0.80527962244E+02 0.  0.
         11    1    3    3    0    0 -0.56901618797E+02  0.41465821671E+01  0.11739389455E+03  0.13052323488E+03  0.00000000000E+00 0.  1.
        -11    1    3    3    0    0 -0.11987992273E+03  0.54543966651E+01  0.74138447004E+03  0.75103387323E+03  0.00000000000E+00 0. -1.
          2    1    6    6  502    0 -0.46465479562E+02 -0.11838076172E+03  0.30088218683E+02  0.13068414762E+03  0.00000000000E+00 0. -1.
          1    1    5    5  503    0  0.84898593595E+02  0.75983777967E+02  0.32643931601E+02  0.11851975354E+03  0.00000000000E+00 0. -1.
         -2    1    5    5    0  503  0.33533019973E+03  0.22140474022E+03 -0.23963381200E+02  0.40254272504E+03  0.00000000000E+00 0.  1.
         -1    1    6    6    0  502 -0.19698177224E+03 -0.18860873531E+03  0.51061296385E+02  0.27745689686E+03  0.00000000000E+00 0.  1.
<mgrwt>
<rscale>  0 0.15423995E+04</rscale>
<asrwt>0</asrwt>
<pdfrwt beam="1">  1        2 0.21225916E+00 0.15423995E+04</pdfrwt>
<pdfrwt beam="2">  1       -2 0.66319400E-01 0.15423995E+04</pdfrwt>
<totfact> 0.29927478E+01</totfact>
</mgrwt>
</event>
<event>
12    1  0.1472088E-007  0.2103440E+04  0.7818608E-02  0.8559729E-01
          2   -1    0    0  501    0  0.00000000000E+00  0.00000000000E+00  0.25421520895E+04  0.25421520895E+04  0.00000000000E+00 0. -1.
         -2   -1    0    0    0  501 -0.00000000000E+00 -0.00000000000E+00 -0.43510975112E+03  0.43510975112E+03  0.00000000000E+00 0.  1.
         23    2    1    2    0    0  0.51019287841E+03  0.66362784734E+03  0.59744809951E+03  0.10319690721E+04  0.85540874329E+02 0.  0.
        254    2    1    2    0    0 -0.51019287841E+03 -0.66362784734E+03  0.15095942389E+04  0.19452927685E+04  0.89698968575E+03 0.  0.
        -24    2    4    4    0    0 -0.21735252341E+03  0.19430228931E+03  0.51486205887E+03  0.59709450241E+03  0.80270829555E+02 0.  0.
         24    2    4    4    0    0 -0.29284035500E+03 -0.85793013666E+03  0.99473217999E+03  0.13481982661E+04  0.79667195031E+02 0.  0.
         13    1    3    3    0    0  0.30561351758E+03  0.44102355499E+03  0.34315725701E+03  0.63691310335E+03  0.00000000000E+00 0.  1.
        -13    1    3    3    0    0  0.20457936082E+03  0.22260429236E+03  0.25429084250E+03  0.39505596873E+03  0.00000000000E+00 0. -1.
          4    1    6    6  502    0 -0.12794386402E+03 -0.29211433223E+03  0.30975906722E+03  0.44457968370E+03  0.00000000000E+00 0. -1.
          1    1    5    5  503    0 -0.18373517633E+02  0.53486676975E+02  0.12651993198E+03  0.13858464544E+03  0.00000000000E+00 0. -1.
         -2    1    5    5    0  503 -0.19897900578E+03  0.14081561234E+03  0.38834212689E+03  0.45850985697E+03  0.00000000000E+00 0.  1.
         -3    1    6    6    0  502 -0.16489649097E+03 -0.56581580443E+03  0.68497311277E+03  0.90361858242E+03  0.00000000000E+00 0.  1.
<mgrwt>
<rscale>  0 0.21034402E+04</rscale>
<asrwt>0</asrwt>
<pdfrwt beam="1">  1        2 0.39110031E+00 0.21034402E+04</pdfrwt>
<pdfrwt beam="2">  1       -2 0.66939963E-01 0.21034402E+04</pdfrwt>
<totfact> 0.62125269E+00</totfact>
</mgrwt>
</event>
<event>
12    1  0.1472088E-007  0.1535477E+04  0.7818608E-02  0.8861198E-01
         -2   -1    0    0    0  501 -0.00000000000E+00  0.00000000000E+00  0.11065484700E+04  0.11065484700E+04  0.00000000000E+00 0.  1.
          2   -1    0    0  501    0  0.00000000000E+00 -0.00000000000E+00 -0.53266774462E+03  0.53266774462E+03  0.00000000000E+00 0. -1.
         23    2    1    2    0    0 -0.23324257293E+02  0.31814899419E+02 -0.33976566676E+03  0.35408547742E+03  0.91540199959E+02 0.  0.
        254    2    1    2    0    0  0.23324257293E+02 -0.31814899419E+02  0.91364639218E+03  0.12851307372E+04  0.90291476511E+03 0.  0.
        -24    2    4    4    0    0 -0.41075150274E+03  0.71850503419E+02  0.28424925187E+03  0.50974029023E+03  0.71820849685E+02 0.  0.
         24    2    4    4    0    0  0.43407576004E+03 -0.10366540284E+03  0.62939714031E+03  0.77539044701E+03  0.76950008984E+02 0.  0.
         11    1    3    3    0    0 -0.47095838494E+02 -0.59867807958E+01 -0.24188312595E+03  0.24649808552E+03  0.00000000000E+00 0. -1.
        -11    1    3    3    0    0  0.23771581201E+02  0.37801680215E+02 -0.97882540810E+02  0.10758739190E+03  0.00000000000E+00 0.  1.
          4    1    6    6  502    0  0.29610178709E+03 -0.37393667919E+02  0.44375822281E+03  0.53478585904E+03  0.00000000000E+00 0. -1.
          1    1    5    5  503    0 -0.17893920898E+03  0.64515063884E+02  0.11084338653E+03  0.22015378787E+03  0.00000000000E+00 0. -1.
         -2    1    5    5    0  503 -0.23181229377E+03  0.73354395355E+01  0.17340586534E+03  0.28958650236E+03  0.00000000000E+00 0.  1.
         -3    1    6    6    0  502  0.13797397295E+03 -0.66271734920E+02  0.18563891750E+03  0.24060458796E+03  0.00000000000E+00 0.  1.
<mgrwt>
<rscale>  0 0.15354774E+04</rscale>
<asrwt>0</asrwt>
<pdfrwt beam="1">  1        2 0.81948884E-01 0.15354774E+04</pdfrwt>
<pdfrwt beam="2">  1       -2 0.17023823E+00 0.15354774E+04</pdfrwt>
<totfact> 0.11685513E+01</totfact>
</mgrwt>
</event>
<event>
12    1  0.1472088E-007  0.1258031E+04  0.7818608E-02  0.9063526E-01
         -2   -1    0    0    0  501 -0.00000000000E+00  0.00000000000E+00  0.87124213815E+03  0.87124213815E+03  0.00000000000E+00 0.  1.
          2   -1    0    0  501    0  0.00000000000E+00 -0.00000000000E+00 -0.45413357826E+03  0.45413357826E+03  0.00000000000E+00 0. -1.
         23    2    1    2    0    0 -0.20177364487E+03  0.12780602419E+03 -0.73672197085E+02  0.26517548310E+03  0.88563314259E+02 0.  0.
        254    2    1    2    0    0  0.20177364487E+03 -0.12780602419E+03  0.49078075698E+03  0.10602002333E+04  0.90890692577E+03 0.  0.
        -24    2    4    4    0    0 -0.14638973995E+03 -0.32327102354E+03  0.53828351240E+03  0.65039141809E+03  0.85590574187E+02 0.  0.
         24    2    4    4    0    0  0.34816338482E+03  0.19546499935E+03 -0.47502755418E+02  0.40980881522E+03  0.79135609934E+02 0.  0.
         13    1    3    3    0    0 -0.71066404646E+02  0.52317899891E+02 -0.72534145277E+02  0.11423133874E+03  0.00000000000E+00 0.  1.
        -13    1    3    3    0    0 -0.13070724022E+03  0.75488124296E+02 -0.11380518078E+01  0.15094414436E+03  0.00000000000E+00 0. -1.
          2    1    6    6  502    0  0.19179013759E+03  0.88047684491E+02  0.10879939608E+02  0.21131546254E+03  0.00000000000E+00 0. -1.
          1    1    5    5  503    0 -0.12486215096E+03 -0.31970951887E+03  0.50638679624E+03  0.61174530697E+03  0.00000000000E+00 0. -1.
         -2    1    5    5    0  503 -0.21527588986E+02 -0.35615046689E+01  0.31896716160E+02  0.38646111122E+02  0.00000000000E+00 0.  1.
         -1    1    6    6    0  502  0.15637324722E+03  0.10741731486E+03 -0.58382695027E+02  0.19849335268E+03  0.00000000000E+00 0.  1.
<mgrwt>
<rscale>  0 0.12580307E+04</rscale>
<asrwt>0</asrwt>
<pdfrwt beam="1">  1        2 0.69866704E-01 0.12580307E+04</pdfrwt>
<pdfrwt beam="2">  1       -2 0.13403725E+00 0.12580307E+04</pdfrwt>
<totfact> 0.27163297E+01</totfact>
</mgrwt>
</event>
<event>
12    1  0.1472088E-007  0.1430985E+04  0.7818608E-02  0.8931690E-01
         -1   -1    0    0    0  501 -0.00000000000E+00  0.00000000000E+00  0.23963846098E+03  0.23963846098E+03  0.00000000000E+00 0.  1.
          1   -1    0    0  501    0  0.00000000000E+00 -0.00000000000E+00 -0.21362579836E+04  0.21362579836E+04  0.00000000000E+00 0. -1.
         23    2    1    2    0    0 -0.50869868138E+02  0.37714988969E+02  0.12230803884E+03  0.16558628218E+03  0.91920599453E+02 0.  0.
        254    2    1    2    0    0  0.50869868138E+02 -0.37714988969E+02 -0.20189275615E+04  0.22103101624E+04  0.89743654466E+03 0.  0.
        -24    2    4    4    0    0  0.16983948004E+03 -0.51939895437E+02 -0.10078317018E+02  0.19628841661E+03  0.82972093522E+02 0.  0.
         24    2    4    4    0    0 -0.11896961190E+03  0.14224906467E+02 -0.20088492444E+04  0.20140217458E+04  0.80325519550E+02 0.  0.
         13    1    3    3    0    0 -0.12814838214E+02 -0.28557071419E+02  0.17453361013E+02  0.35837776397E+02  0.00000000000E+00 0. -1.
        -13    1    3    3    0    0 -0.38055029925E+02  0.66272060388E+02  0.10485467783E+03  0.12974850578E+03  0.00000000000E+00 0.  1.
          2    1    6    6  502    0 -0.12261078275E+03  0.22300509955E+02 -0.19781035518E+04  0.19820253223E+04  0.00000000000E+00 0. -1.
          1    1    5    5  503    0  0.98561611613E+02 -0.60943222434E+02 -0.33663585896E+02  0.12067188844E+03  0.00000000000E+00 0. -1.
         -2    1    5    5    0  503  0.71277868424E+02  0.90033269976E+01  0.23585268878E+02  0.75616528167E+02  0.00000000000E+00 0.  1.
         -1    1    6    6    0  502  0.36411708515E+01 -0.80756034881E+01 -0.30745692672E+02  0.31996423468E+02  0.00000000000E+00 0.  1.
<mgrwt>
<rscale>  0 0.14309851E+04</rscale>
<asrwt>0</asrwt>
<pdfrwt beam="1">  1        1 0.32865506E+00 0.14309851E+04</pdfrwt>
<pdfrwt beam="2">  1       -1 0.36867457E-01 0.14309851E+04</pdfrwt>
<totfact> 0.16570060E+01</totfact>
</mgrwt>
</event>
<event>
12    1  0.1472088E-007  0.1683334E+04  0.7818608E-02  0.8770927E-01
          2   -1    0    0  501    0  0.00000000000E+00  0.00000000000E+00  0.62795216812E+03  0.62795216812E+03  0.00000000000E+00 0. -1.
         -2   -1    0    0    0  501 -0.00000000000E+00 -0.00000000000E+00 -0.11281160764E+04  0.11281160764E+04  0.00000000000E+00 0.  1.
         23    2    1    2    0    0  0.98535768468E+02  0.55271388520E+03 -0.39078858846E+03  0.68945450531E+03  0.86196620937E+02 0.  0.
        254    2    1    2    0    0 -0.98535768468E+02 -0.55271388520E+03 -0.10937531977E+03  0.10666137392E+04  0.90027771906E+03 0.  0.
        -24    2    4    4    0    0  0.17157854399E+03 -0.54581128836E+03 -0.36714493667E+03  0.68445876967E+03  0.79619367028E+02 0.  0.
         24    2    4    4    0    0 -0.27011431245E+03 -0.69025968431E+01  0.25776961690E+03  0.38215496949E+03  0.81165618778E+02 0.  0.
         13    1    3    3    0    0  0.41732385236E+02  0.24015879125E+03 -0.22211345828E+03  0.32977602299E+03  0.00000000000E+00 0. -1.
        -13    1    3    3    0    0  0.56803383232E+02  0.31255509395E+03 -0.16867513018E+03  0.35967848232E+03  0.00000000000E+00 0.  1.
          2    1    6    6  502    0 -0.90486555136E+01 -0.12006827720E+02  0.37989979844E+02  0.40856831094E+02  0.00000000000E+00 0. -1.
          3    1    5    5  503    0 -0.62865581546E+01 -0.22825654989E+02 -0.26191064722E+02  0.35305852354E+02  0.00000000000E+00 0. -1.
         -4    1    5    5    0  503  0.17786510214E+03 -0.52298563337E+03 -0.34095387195E+03  0.64915291732E+03  0.00000000000E+00 0.  1.
         -1    1    6    6    0  502 -0.26106565694E+03  0.51042308766E+01  0.21977963706E+03  0.34129813839E+03  0.00000000000E+00 0.  1.
<mgrwt>
<rscale>  0 0.16833335E+04</rscale>
<asrwt>0</asrwt>
<pdfrwt beam="1">  1        2 0.96608027E-01 0.16833335E+04</pdfrwt>
<pdfrwt beam="2">  1       -2 0.17355632E+00 0.16833335E+04</pdfrwt>
<totfact> 0.89833872E+00</totfact>
</mgrwt>
</event>
<event>
12    1  0.1472088E-007  0.2892405E+04  0.7818608E-02  0.8275141E-01
          2   -1    0    0  501    0  0.00000000000E+00  0.00000000000E+00  0.10130898829E+04  0.10130898829E+04  0.00000000000E+00 0. -1.
         -2   -1    0    0    0  501 -0.00000000000E+00 -0.00000000000E+00 -0.20644781777E+04  0.20644781777E+04  0.00000000000E+00 0.  1.
         23    2    1    2    0    0 -0.31564786916E+03 -0.12649356055E+04 -0.49344609210E+03  0.13969580837E+04  0.91143723587E+02 0.  0.
        254    2    1    2    0    0  0.31564786916E+03  0.12649356055E+04 -0.55794220265E+03  0.16806099769E+04  0.90191725204E+03 0.  0.
        -24    2    4    4    0    0  0.23966038877E+03  0.43847439507E+02 -0.35496044823E+03  0.43785806299E+03  0.79768813614E+02 0.  0.
         24    2    4    4    0    0  0.75987480387E+02  0.12210881660E+04 -0.20298175442E+03  0.12427519139E+04  0.80002003205E+02 0.  0.
         11    1    3    3    0    0 -0.14017430464E+03 -0.57479469919E+03 -0.17565053764E+03  0.61716358712E+03  0.00000000000E+00 0.  1.
        -11    1    3    3    0    0 -0.17547356452E+03 -0.69014090635E+03 -0.31779555446E+03  0.77979449658E+03  0.00000000000E+00 0. -1.
          2    1    6    6  502    0  0.39695028652E+02  0.59512239028E+03 -0.58522159998E+02  0.59930893362E+03  0.00000000000E+00 0. -1.
          1    1    5    5  503    0  0.15735493325E+03  0.66616020789E+02 -0.24218827864E+03  0.29640079547E+03  0.00000000000E+00 0. -1.
         -2    1    5    5    0  503  0.82305455525E+02 -0.22768581281E+02 -0.11277216959E+03  0.14145726753E+03  0.00000000000E+00 0.  1.
         -1    1    6    6    0  502  0.36292451736E+02  0.62596577575E+03 -0.14445959442E+03  0.64344298029E+03  0.00000000000E+00 0.  1.
<mgrwt>
<rscale>  0 0.28924052E+04</rscale>
<asrwt>0</asrwt>
<pdfrwt beam="1">  1        2 0.15585998E+00 0.28924052E+04</pdfrwt>
<pdfrwt beam="2">  1       -2 0.31761202E+00 0.28924052E+04</pdfrwt>
<totfact> 0.52848374E-01</totfact>
</mgrwt>
</event>
<event>
12    1  0.1472088E-007  0.2369502E+04  0.7818608E-02  0.8451011E-01
         -1   -1    0    0    0  501 -0.00000000000E+00  0.00000000000E+00  0.62757304345E+03  0.62757304345E+03  0.00000000000E+00 0.  1.
          1   -1    0    0  501    0  0.00000000000E+00 -0.00000000000E+00 -0.22366074816E+04  0.22366074816E+04  0.00000000000E+00 0. -1.
         23    2    1    2    0    0 -0.77436156773E+03  0.48424622204E+03 -0.12064537256E+04  0.15161105651E+04  0.94500859684E+02 0.  0.
        254    2    1    2    0    0  0.77436156773E+03 -0.48424622204E+03 -0.40258071256E+03  0.13480699599E+04  0.90614079792E+03 0.  0.
        -24    2    4    4    0    0 -0.70635392922E+02 -0.42022935587E+03 -0.10209311927E+03  0.44557528271E+03  0.80822381154E+02 0.  0.
         24    2    4    4    0    0  0.84499696065E+03 -0.64016866176E+02 -0.30048759329E+03  0.90249467724E+03  0.78011704656E+02 0.  0.
         11    1    3    3    0    0 -0.14547325042E+01  0.97746248951E+01 -0.59154945472E+01  0.11517491664E+02  0.00000000000E+00 0.  1.
        -11    1    3    3    0    0 -0.77290683522E+03  0.47447159715E+03 -0.12005382310E+04  0.15045930734E+04  0.00000000000E+00 0. -1.
          2    1    6    6  502    0  0.41746153931E+03 -0.42418990846E+02 -0.10899586715E+03  0.43353616532E+03  0.00000000000E+00 0. -1.
          1    1    5    5  503    0  0.39306113391E+01 -0.40207240165E+01  0.69170959397E+01  0.89141541021E+01  0.00000000000E+00 0. -1.
         -2    1    5    5    0  503 -0.74566004261E+02 -0.41620863185E+03 -0.10901021521E+03  0.43666112861E+03  0.00000000000E+00 0.  1.
         -1    1    6    6    0  502  0.42753542134E+03 -0.21597875330E+02 -0.19149172614E+03  0.46895851192E+03  0.00000000000E+00 0.  1.
<mgrwt>
<rscale>  0 0.23695017E+04</rscale>
<asrwt>0</asrwt>
<pdfrwt beam="1">  1        1 0.34409346E+00 0.23695017E+04</pdfrwt>
<pdfrwt beam="2">  1       -1 0.96549698E-01 0.23695017E+04</pdfrwt>
<totfact> 0.19072961E+00</totfact>
</mgrwt>
</event>
<event>
12    1  0.1472088E-007  0.1324478E+04  0.7818608E-02  0.9010376E-01
          2   -1    0    0  501    0  0.00000000000E+00  0.00000000000E+00  0.82964378990E+03  0.82964378990E+03  0.00000000000E+00 0. -1.
         -2   -1    0    0    0  501 -0.00000000000E+00 -0.00000000000E+00 -0.52861295323E+03  0.52861295323E+03  0.00000000000E+00 0.  1.
         23    2    1    2    0    0 -0.27855178623E+03 -0.20095470486E+03  0.63164886202E+02  0.36084794989E+03  0.90816017721E+02 0.  0.
        254    2    1    2    0    0  0.27855178623E+03  0.20095470486E+03  0.23786595047E+03  0.99740879325E+03  0.90568769421E+03 0.  0.
        -24    2    4    4    0    0 -0.77345902727E+02  0.16700779553E+02 -0.30077366050E+03  0.32123606189E+03  0.80414600049E+02 0.  0.
         24    2    4    4    0    0  0.35589768895E+03  0.18425392530E+03  0.53863961097E+03  0.67617273136E+03  0.80400610241E+02 0.  0.
         11    1    3    3    0    0 -0.18581776068E+03 -0.13809219563E+03 -0.14522741214E+01  0.23151631428E+03  0.00000000000E+00 0.  1.
        -11    1    3    3    0    0 -0.92734025544E+02 -0.62862509228E+02  0.64617160323E+02  0.12933163561E+03  0.00000000000E+00 0. -1.
          2    1    6    6  502    0  0.18767025177E+03  0.71886837433E+02  0.32362267928E+03  0.38094550705E+03  0.00000000000E+00 0. -1.
          1    1    5    5  503    0 -0.76551288371E+02 -0.11093190324E+02 -0.26421568672E+03  0.27530544443E+03  0.00000000000E+00 0. -1.
         -2    1    5    5    0  503 -0.79461435633E+00  0.27793969877E+02 -0.36557973785E+02  0.45930617466E+02  0.00000000000E+00 0.  1.
         -1    1    6    6    0  502  0.16822743718E+03  0.11236708787E+03  0.21501693169E+03  0.29522722431E+03  0.00000000000E+00 0.  1.
<mgrwt>
<rscale>  0 0.13244779E+04</rscale>
<asrwt>0</asrwt>
<pdfrwt beam="1">  1        2 0.12763751E+00 0.13244779E+04</pdfrwt>
<pdfrwt beam="2">  1       -2 0.81325070E-01 0.13244779E+04</pdfrwt>
<totfact> 0.42772444E+01</totfact>
</mgrwt>
</event>
<event>
12    1  0.1472088E-007  0.2618647E+04  0.7818608E-02  0.8361895E-01
          1   -1    0    0  501    0  0.00000000000E+00  0.00000000000E+00  0.13667254644E+04  0.13667254644E+04  0.00000000000E+00 0. -1.
         -1   -1    0    0    0  501 -0.00000000000E+00 -0.00000000000E+00 -0.12543326847E+04  0.12543326847E+04  0.00000000000E+00 0.  1.
         23    2    1    2    0    0  0.78188691652E+03 -0.84324142359E+03  0.81277095031E+02  0.11570798984E+04  0.99119505361E+02 0.  0.
        254    2    1    2    0    0 -0.78188691652E+03  0.84324142359E+03  0.31115684703E+02  0.14639782508E+04  0.90546169670E+03 0.  0.
        -24    2    4    4    0    0 -0.90147705071E+03  0.89734411106E+03  0.12535242161E+03  0.12807033300E+04  0.81243235421E+02 0.  0.
         24    2    4    4    0    0  0.11959013418E+03 -0.54102687469E+02 -0.94236736909E+02  0.18327492075E+03  0.86488340308E+02 0.  0.
         11    1    3    3    0    0  0.26396645767E+03 -0.32688468924E+03  0.67929447020E+02  0.42561285296E+03  0.00000000000E+00 0.  1.
        -11    1    3    3    0    0  0.51792045886E+03 -0.51635673435E+03  0.13347648011E+02  0.73146704541E+03  0.00000000000E+00 0. -1.
          2    1    6    6  502    0  0.36354847461E+01 -0.21002451435E+02  0.10310762367E+02  0.23677659010E+02  0.00000000000E+00 0. -1.
          3    1    5    5  503    0 -0.13364342937E+03  0.95045178466E+02  0.19562487542E+02  0.16515702553E+03  0.00000000000E+00 0. -1.
         -2    1    5    5    0  503 -0.76783362134E+03  0.80229893260E+03  0.10578993407E+03  0.11155463045E+04  0.00000000000E+00 0.  1.
         -1    1    6    6    0  502  0.11595464944E+03 -0.33100236034E+02 -0.10454749928E+03  0.15959726174E+03  0.00000000000E+00 0.  1.
<mgrwt>
<rscale>  0 0.26186473E+04</rscale>
<asrwt>0</asrwt>
<pdfrwt beam="1">  1        1 0.21026546E+00 0.26186473E+04</pdfrwt>
<pdfrwt beam="2">  1       -1 0.19297426E+00 0.26186473E+04</pdfrwt>
<totfact> 0.12009793E+00</totfact>
</mgrwt>
</event>
<event>
12    1  0.1472088E-007  0.1497856E+04  0.7818608E-02  0.8885880E-01
         -1   -1    0    0    0  501 -0.00000000000E+00  0.00000000000E+00  0.50180488407E+03  0.50180488407E+03  0.00000000000E+00 0.  1.
          1   -1    0    0  501    0  0.00000000000E+00 -0.00000000000E+00 -0.11177519884E+04  0.11177519884E+04  0.00000000000E+00 0. -1.
         23    2    1    2    0    0 -0.30992517587E+03  0.23899100930E+03  0.71433804925E+02  0.40943755329E+03  0.96778119390E+02 0.  0.
        254    2    1    2    0    0  0.30992517587E+03 -0.23899100930E+03 -0.68738090929E+03  0.12101193192E+04  0.91581981586E+03 0.  0.
        -24    2    4    4    0    0 -0.10760743311E+03 -0.20699470120E+03  0.13676448989E+03  0.28213951502E+03  0.80448830070E+02 0.  0.
         24    2    4    4    0    0  0.41753260898E+03 -0.31996308105E+02 -0.82414539918E+03  0.92797980419E+03  0.81077954477E+02 0.  0.
         13    1    3    3    0    0 -0.76509425427E+01  0.10260295331E+02  0.24290270139E+02  0.27455924780E+02  0.00000000000E+00 0. -1.
        -13    1    3    3    0    0 -0.30227423332E+03  0.22873071397E+03  0.47143534786E+02  0.38198162851E+03  0.00000000000E+00 0.  1.
          4    1    6    6  502    0  0.20944106053E+03 -0.16775769318E+02 -0.50164494935E+03  0.54387005754E+03  0.00000000000E+00 0. -1.
          1    1    5    5  503    0  0.84219490584E+01 -0.35814602316E+02  0.38259041171E+02  0.53078895960E+02  0.00000000000E+00 0. -1.
         -2    1    5    5    0  503 -0.11602938217E+03 -0.17118009888E+03  0.98505448720E+02  0.22906061906E+03  0.00000000000E+00 0.  1.
         -3    1    6    6    0  502  0.20809154845E+03 -0.15220538787E+02 -0.32250044983E+03  0.38410974666E+03  0.00000000000E+00 0.  1.
<mgrwt>
<rscale>  0 0.14978563E+04</rscale>
<asrwt>0</asrwt>
<pdfrwt beam="1">  1        1 0.17196185E+00 0.14978563E+04</pdfrwt>
<pdfrwt beam="2">  1       -1 0.77200751E-01 0.14978563E+04</pdfrwt>
<totfact> 0.20015681E+01</totfact>
</mgrwt>
</event>
<event>
12    1  0.1846913E-007  0.1758357E+04  0.7818608E-02  0.8728764E-01
          2   -1    0    0  501    0  0.00000000000E+00  0.00000000000E+00  0.23035818171E+04  0.23035818171E+04  0.00000000000E+00 0. -1.
         -2   -1    0    0    0  501 -0.00000000000E+00 -0.00000000000E+00 -0.33554460207E+03  0.33554460207E+03  0.00000000000E+00 0.  1.
         23    2    1    2    0    0 -0.17863725109E+03  0.27862897301E+03  0.16222101020E+04  0.16582451594E+04  0.93091468267E+02 0.  0.
        254    2    1    2    0    0  0.17863725109E+03 -0.27862897301E+03  0.34582711305E+03  0.98088125983E+03  0.85614618009E+03 0.  0.
        -24    2    4    4    0    0  0.18247238523E+02  0.26039406619E+03 -0.63367723245E+02  0.28032469045E+03  0.80177504997E+02 0.  0.
         24    2    4    4    0    0  0.16039001257E+03 -0.53902303920E+03  0.40919483630E+03  0.70055656938E+03  0.84073181973E+02 0.  0.
         13    1    3    3    0    0 -0.18536350468E+03  0.28044833106E+03  0.15711594218E+04  0.16067211407E+04  0.00000000000E+00 0. -1.
        -13    1    3    3    0    0  0.67262535845E+01 -0.18193580499E+01  0.51050680227E+02  0.51524018697E+02  0.00000000000E+00 0.  1.
          2    1    6    6  502    0  0.15238182403E+03 -0.53946115638E+03  0.40436579450E+03  0.69119480271E+03  0.00000000000E+00 0. -1.
          3    1    5    5  503    0 -0.12893094716E+02  0.22633928291E+03 -0.56803241864E+02  0.23371416552E+03  0.00000000000E+00 0. -1.
         -4    1    5    5    0  503  0.31140333239E+02  0.34054783280E+02 -0.65644813813E+01  0.46610524931E+02  0.00000000000E+00 0.  1.
         -1    1    6    6    0  502  0.80081885431E+01  0.43811718114E+00  0.48290418021E+01  0.93617666674E+01  0.00000000000E+00 0.  1.
<mgrwt>
<rscale>  0 0.17583566E+04</rscale>
<asrwt>0</asrwt>
<pdfrwt beam="1">  1        2 0.35439719E+00 0.17583566E+04</pdfrwt>
<pdfrwt beam="2">  1       -2 0.51622248E-01 0.17583566E+04</pdfrwt>
<totfact> 0.15159814E+01</totfact>
</mgrwt>
</event>
<event>
12    1  0.1472088E-007  0.1242859E+04  0.7818608E-02  0.9076148E-01
         -2   -1    0    0    0  501 -0.00000000000E+00  0.00000000000E+00  0.35836003545E+03  0.35836003545E+03  0.00000000000E+00 0.  1.
          2   -1    0    0  501    0  0.00000000000E+00 -0.00000000000E+00 -0.10776154645E+04  0.10776154645E+04  0.00000000000E+00 0. -1.
         23    2    1    2    0    0  0.24308094090E+03 -0.72369911129E+02 -0.23143094413E+02  0.27059497004E+03  0.91434605733E+02 0.  0.
        254    2    1    2    0    0 -0.24308094090E+03  0.72369911129E+02 -0.69611233466E+03  0.11653805299E+04  0.89956303237E+03 0.  0.
        -24    2    4    4    0    0 -0.28747551197E+03  0.14084855485E+03 -0.88522840703E+03  0.94473638568E+03  0.80106307051E+02 0.  0.
         24    2    4    4    0    0  0.44394571070E+02 -0.68478643726E+02  0.18911607237E+03  0.22064414425E+03  0.79112242885E+02 0.  0.
         11    1    3    3    0    0  0.11902830708E+03 -0.16525679489E+02 -0.52960816499E+02  0.13132282381E+03  0.00000000000E+00 0. -1.
        -11    1    3    3    0    0  0.12405263382E+03 -0.55844231639E+02  0.29817722086E+02  0.13927214623E+03  0.00000000000E+00 0.  1.
          2    1    6    6  502    0  0.59548394045E+02 -0.71002891801E+02  0.18082412494E+03  0.20318657937E+03  0.00000000000E+00 0. -1.
          3    1    5    5  503    0 -0.26742085654E+03  0.12992060590E+03 -0.86335442745E+03  0.91311234015E+03  0.00000000000E+00 0. -1.
         -4    1    5    5    0  503 -0.20054655428E+02  0.10927948956E+02 -0.21873979588E+02  0.31624045531E+02  0.00000000000E+00 0.  1.
         -1    1    6    6    0  502 -0.15153822976E+02  0.25242480747E+01  0.82919474342E+01  0.17457564875E+02  0.00000000000E+00 0.  1.
<mgrwt>
<rscale>  0 0.12428585E+04</rscale>
<asrwt>0</asrwt>
<pdfrwt beam="1">  1        2 0.16578699E+00 0.12428585E+04</pdfrwt>
<pdfrwt beam="2">  1       -2 0.55132313E-01 0.12428585E+04</pdfrwt>
<totfact> 0.68466029E+01</totfact>
</mgrwt>
</event>
<event>
12    1  0.1472088E-007  0.1613563E+04  0.7818608E-02  0.8812259E-01
         -1   -1    0    0    0  501 -0.00000000000E+00  0.00000000000E+00  0.73133943039E+03  0.73133943039E+03  0.00000000000E+00 0.  1.
          1   -1    0    0  501    0  0.00000000000E+00 -0.00000000000E+00 -0.89000593839E+03  0.89000593839E+03  0.00000000000E+00 0. -1.
         23    2    1    2    0    0 -0.18990347986E+02 -0.76565616280E+02 -0.60945417136E+03  0.62146546105E+03  0.92531104920E+02 0.  0.
        254    2    1    2    0    0  0.18990347986E+02  0.76565616280E+02  0.45078766336E+03  0.99987990773E+03  0.88900359140E+03 0.  0.
        -24    2    4    4    0    0 -0.30247560805E+03  0.28412880595E+03  0.43822981338E+03  0.60876580020E+03  0.79559778291E+02 0.  0.
         24    2    4    4    0    0  0.32146595604E+03 -0.20756318967E+03  0.12557849982E+02  0.39111410753E+03  0.79935642345E+02 0.  0.
         11    1    3    3    0    0 -0.42730076136E+02 -0.19141996995E+01 -0.18944193857E+03  0.19421063734E+03  0.00000000000E+00 0.  1.
        -11    1    3    3    0    0  0.23739728150E+02 -0.74651416581E+02 -0.42001223279E+03  0.42725482371E+03  0.00000000000E+00 0. -1.
          2    1    6    6  502    0  0.22428302441E+03 -0.18506565998E+03  0.16874188741E+02  0.29126776647E+03  0.00000000000E+00 0. -1.
          3    1    5    5  503    0 -0.15871054904E+03  0.19617961611E+03  0.28896951418E+03  0.38363897127E+03  0.00000000000E+00 0. -1.
         -4    1    5    5    0  503 -0.14376505901E+03  0.87949189841E+02  0.14926029920E+03  0.22512682892E+03  0.00000000000E+00 0.  1.
         -1    1    6    6    0  502  0.97182931630E+02 -0.22497529690E+02 -0.43163387597E+01  0.99846341058E+02  0.00000000000E+00 0.  1.
<mgrwt>
<rscale>  0 0.16135631E+04</rscale>
<asrwt>0</asrwt>
<pdfrwt beam="1">  1        1 0.13692399E+00 0.16135631E+04</pdfrwt>
<pdfrwt beam="2">  1       -1 0.11251376E+00 0.16135631E+04</pdfrwt>
<totfact> 0.12859344E+01</totfact>
</mgrwt>
</event>
<event>
12    1  0.1472088E-007  0.2019540E+04  0.7818608E-02  0.8597539E-01
         -1   -1    0    0    0  501 -0.00000000000E+00  0.00000000000E+00  0.44007270736E+03  0.44007270736E+03  0.00000000000E+00 0.  1.
          1   -1    0    0  501    0  0.00000000000E+00 -0.00000000000E+00 -0.23169698673E+04  0.23169698673E+04  0.00000000000E+00 0. -1.
         23    2    1    2    0    0 -0.41718122009E+02 -0.60866609525E+03 -0.30973715781E+02  0.61794876336E+03  0.93201318939E+02 0.  0.
        254    2    1    2    0    0  0.41718122009E+02  0.60866609525E+03 -0.18459234441E+04  0.21390938113E+04  0.89222987770E+03 0.  0.
        -24    2    4    4    0    0  0.20537814912E+02 -0.22628762208E+03 -0.36949871912E+03  0.44090595275E+03  0.78999151886E+02 0.  0.
         24    2    4    4    0    0  0.21180307098E+02  0.83495371733E+03 -0.14764247250E+04  0.16981878585E+04  0.80098181861E+02 0.  0.
         11    1    3    3    0    0 -0.25740948832E+02 -0.44170574268E+02  0.86010909394E+01  0.51842211018E+02  0.00000000000E+00 0. -1.
        -11    1    3    3    0    0 -0.15977173177E+02 -0.56449552098E+03 -0.39574806720E+02  0.56610655234E+03  0.00000000000E+00 0.  1.
          4    1    6    6  502    0  0.26941271432E+02  0.23380208645E+03 -0.35807174401E+03  0.42849109862E+03  0.00000000000E+00 0. -1.
          3    1    5    5  503    0  0.25193707276E+02 -0.46257674556E+02 -0.42847512758E+02  0.67899960907E+02  0.00000000000E+00 0. -1.
         -4    1    5    5    0  503 -0.46558923645E+01 -0.18002994752E+03 -0.32665120636E+03  0.37300599185E+03  0.00000000000E+00 0.  1.
         -3    1    6    6    0  502 -0.57609643343E+01  0.60115163088E+03 -0.11183529810E+04  0.12696967599E+04  0.00000000000E+00 0.  1.
<mgrwt>
<rscale>  0 0.20195398E+04</rscale>
<asrwt>0</asrwt>
<pdfrwt beam="1">  1        1 0.35645690E+00 0.20195398E+04</pdfrwt>
<pdfrwt beam="2">  1       -1 0.67703495E-01 0.20195398E+04</pdfrwt>
<totfact> 0.37076340E+00</totfact>
</mgrwt>
</event>
<event>
12    1  0.1472088E-007  0.2588939E+04  0.7818608E-02  0.8371968E-01
         -2   -1    0    0    0  501 -0.00000000000E+00  0.00000000000E+00  0.11693457573E+04  0.11693457573E+04  0.00000000000E+00 0.  1.
          2   -1    0    0  501    0  0.00000000000E+00 -0.00000000000E+00 -0.14329818352E+04  0.14329818352E+04  0.00000000000E+00 0. -1.
         23    2    1    2    0    0  0.68625167285E+03  0.34864616724E+03  0.72827980994E+03  0.10635267000E+04  0.90565178589E+02 0.  0.
        254    2    1    2    0    0 -0.68625167285E+03 -0.34864616724E+03 -0.99191588781E+03  0.15388008926E+04  0.88967159672E+03 0.  0.
        -24    2    4    4    0    0 -0.30892986507E+03 -0.60996300119E+03 -0.73325462552E+03  0.10062782626E+04  0.86261645755E+02 0.  0.
         24    2    4    4    0    0 -0.37732180778E+03  0.26131683395E+03 -0.25866126229E+03  0.53252262998E+03  0.77565897758E+02 0.  0.
         11    1    3    3    0    0  0.55868570120E+03  0.24685347789E+03  0.59677175378E+03  0.85393376698E+03  0.00000000000E+00 0.  1.
        -11    1    3    3    0    0  0.12756597165E+03  0.10179268935E+03  0.13150805616E+03  0.20959293300E+03  0.00000000000E+00 0. -1.
          2    1    6    6  502    0 -0.32493127081E+03  0.22066194635E+03 -0.25014014157E+03  0.46566309252E+03  0.00000000000E+00 0. -1.
          3    1    5    5  503    0 -0.30281351539E+03 -0.60940611828E+03 -0.73292843388E+03  0.10001279575E+04  0.00000000000E+00 0. -1.
         -4    1    5    5    0  503 -0.61163496820E+01 -0.55688290583E+00 -0.32619164056E+00  0.61503051136E+01  0.00000000000E+00 0.  1.
         -1    1    6    6    0  502 -0.52390536972E+02  0.40654887603E+02 -0.85211207252E+01  0.66859537454E+02  0.00000000000E+00 0.  1.
<mgrwt>
<rscale>  0 0.25889390E+04</rscale>
<asrwt>0</asrwt>
<pdfrwt beam="1">  1        2 0.22045874E+00 0.25889390E+04</pdfrwt>
<pdfrwt beam="2">  1       -2 0.17989935E+00 0.25889390E+04</pdfrwt>
<totfact> 0.22282963E+00</totfact>
</mgrwt>
</event>
<event>
12    1  0.1472088E-007  0.1186085E+04  0.7818608E-02  0.9125124E-01
         -1   -1    0    0    0  501 -0.00000000000E+00  0.00000000000E+00  0.14787787504E+03  0.14787787504E+03  0.00000000000E+00 0.  1.
          1   -1    0    0  501    0  0.00000000000E+00 -0.00000000000E+00 -0.23783106096E+04  0.23783106096E+04  0.00000000000E+00 0. -1.
         23    2    1    2    0    0 -0.17776554646E+03  0.14848815928E+02 -0.14216352930E+03  0.24601273275E+03  0.92145096283E+02 0.  0.
        254    2    1    2    0    0  0.17776554646E+03 -0.14848815928E+02 -0.20882692053E+04  0.22801757519E+04  0.89806019232E+03 0.  0.
        -24    2    4    4    0    0  0.64420657259E+00  0.36017833720E+03 -0.15657510242E+04  0.16086828884E+04  0.80966142380E+02 0.  0.
         24    2    4    4    0    0  0.17712133989E+03 -0.37502715312E+03 -0.52251818112E+03  0.67149286350E+03  0.76551169209E+02 0.  0.
         11    1    3    3    0    0 -0.18026046206E+03  0.76796709960E+01 -0.10641739090E+03  0.20946950283E+03  0.00000000000E+00 0.  1.
        -11    1    3    3    0    0  0.24949155990E+01  0.71691449321E+01 -0.35746138392E+02  0.36543229918E+02  0.00000000000E+00 0. -1.
          4    1    6    6  502    0  0.15269993638E+03 -0.26387733009E+03 -0.34265254570E+03  0.45864941184E+03  0.00000000000E+00 0. -1.
          3    1    5    5  503    0 -0.41557064351E+01  0.71964957148E+02 -0.47716590429E+03  0.48258007125E+03  0.00000000000E+00 0. -1.
         -4    1    5    5    0  503  0.47999130076E+01  0.28821338005E+03 -0.10885851199E+04  0.11261028172E+04  0.00000000000E+00 0.  1.
         -3    1    6    6    0  502  0.24421403507E+02 -0.11114982303E+03 -0.17986563542E+03  0.21284345166E+03  0.00000000000E+00 0.  1.
<mgrwt>
<rscale>  0 0.11860852E+04</rscale>
<asrwt>0</asrwt>
<pdfrwt beam="1">  1        1 0.36589392E+00 0.11860852E+04</pdfrwt>
<pdfrwt beam="2">  1       -1 0.22750443E-01 0.11860852E+04</pdfrwt>
<totfact> 0.26950062E+01</totfact>
</mgrwt>
</event>
<event>
12    1  0.1472088E-007  0.1675860E+04  0.7818608E-02  0.8775253E-01
         -2   -1    0    0    0  501 -0.00000000000E+00  0.00000000000E+00  0.32232017216E+03  0.32232017216E+03  0.00000000000E+00 0.  1.
          2   -1    0    0  501    0  0.00000000000E+00 -0.00000000000E+00 -0.21783509027E+04  0.21783509027E+04  0.00000000000E+00 0. -1.
         23    2    1    2    0    0 -0.51305024742E+03 -0.89768948007E+02 -0.11457749908E+04  0.12617647906E+04  0.89280662623E+02 0.  0.
        254    2    1    2    0    0  0.51305024742E+03  0.89768948007E+02 -0.71025573974E+03  0.12389062843E+04  0.87129016125E+03 0.  0.
        -24    2    4    4    0    0  0.63732470502E+03  0.21863812777E+03 -0.22375187793E+03  0.71442837145E+03  0.79734462526E+02 0.  0.
         24    2    4    4    0    0 -0.12427445760E+03 -0.12886917976E+03 -0.48650386182E+03  0.52447791288E+03  0.79622027290E+02 0.  0.
         13    1    3    3    0    0 -0.39500532793E+03 -0.98531643500E+02 -0.94002784077E+03  0.10243974011E+04  0.00000000000E+00 0. -1.
        -13    1    3    3    0    0 -0.11804491948E+03  0.87626954925E+01 -0.20574715003E+03  0.23736738949E+03  0.00000000000E+00 0.  1.
          2    1    6    6  502    0 -0.87370191885E+02 -0.68316670624E+02 -0.38500429856E+03  0.40066073906E+03  0.00000000000E+00 0. -1.
          1    1    5    5  503    0  0.42161668403E+03  0.10531005243E+03 -0.15264568847E+03  0.46059911160E+03  0.00000000000E+00 0. -1.
         -2    1    5    5    0  503  0.21570802099E+03  0.11332807533E+03 -0.71106189459E+02  0.25382925985E+03  0.00000000000E+00 0.  1.
         -1    1    6    6    0  502 -0.36904265716E+02 -0.60552509134E+02 -0.10149956326E+03  0.12381717382E+03  0.00000000000E+00 0.  1.
<mgrwt>
<rscale>  0 0.16758597E+04</rscale>
<asrwt>0</asrwt>
<pdfrwt beam="1">  1        2 0.33513088E+00 0.16758597E+04</pdfrwt>
<pdfrwt beam="2">  1       -2 0.49587722E-01 0.16758597E+04</pdfrwt>
<totfact> 0.19495866E+01</totfact>
</mgrwt>
</event>
<event>
12    1  0.1472088E-007  0.1723299E+04  0.7818608E-02  0.8748187E-01
          1   -1    0    0  501    0  0.00000000000E+00  0.00000000000E+00  0.23902665362E+04  0.23902665362E+04  0.00000000000E+00 0. -1.
         -1   -1    0    0    0  501 -0.00000000000E+00 -0.00000000000E+00 -0.31060954973E+03  0.31060954973E+03  0.00000000000E+00 0.  1.
         23    2    1    2    0    0 -0.56316805298E+03 -0.15133314202E+03  0.10884893609E+04  0.12387010595E+04  0.97525638286E+02 0.  0.
        254    2    1    2    0    0  0.56316805298E+03  0.15133314202E+03  0.99116762558E+03  0.14621750265E+04  0.90304073569E+03 0.  0.
        -24    2    4    4    0    0  0.33684453346E+03  0.52252103513E+03  0.50042015429E+03  0.80174054338E+03  0.76649176139E+02 0.  0.
         24    2    4    4    0    0  0.22632351952E+03 -0.37118789311E+03  0.49074747129E+03  0.66043448311E+03  0.79610542126E+02 0.  0.
         13    1    3    3    0    0 -0.45025616134E+03 -0.11951635799E+03  0.94315625975E+03  0.10519308442E+04  0.00000000000E+00 0.  1.
        -13    1    3    3    0    0 -0.11291189165E+03 -0.31816784031E+02  0.14533310118E+03  0.18677021529E+03  0.00000000000E+00 0. -1.
          4    1    6    6  502    0  0.13716824552E+03 -0.26153599694E+03  0.37775079376E+03  0.47949125901E+03  0.00000000000E+00 0. -1.
          3    1    5    5  503    0  0.26905745829E+03  0.38025346930E+03  0.40676977069E+03  0.61842239863E+03  0.00000000000E+00 0. -1.
         -4    1    5    5    0  503  0.67787075170E+02  0.14226756583E+03  0.93650383602E+02  0.18331814475E+03  0.00000000000E+00 0.  1.
         -3    1    6    6    0  502  0.89155273999E+02 -0.10965189617E+03  0.11299667753E+03  0.18094322410E+03  0.00000000000E+00 0.  1.
<mgrwt>
<rscale>  0 0.17232987E+04</rscale>
<asrwt>0</asrwt>
<pdfrwt beam="1">  1        1 0.36773330E+00 0.17232987E+04</pdfrwt>
<pdfrwt beam="2">  1       -1 0.47786086E-01 0.17232987E+04</pdfrwt>
<totfact> 0.67102333E+00</totfact>
</mgrwt>
</event>
<event>
12    1  0.1472088E-007  0.1816671E+04  0.7818608E-02  0.8697484E-01
         -2   -1    0    0    0  501 -0.00000000000E+00  0.00000000000E+00  0.11494997214E+04  0.11494997214E+04  0.00000000000E+00 0. -1.
          2   -1    0    0  501    0  0.00000000000E+00 -0.00000000000E+00 -0.71776716455E+03  0.71776716455E+03  0.00000000000E+00 0.  1.
         23    2    1    2    0    0 -0.47297676838E+03 -0.15191654738E+03 -0.31200848642E+03  0.59351992269E+03  0.90171737417E+02 0.  0.
        254    2    1    2    0    0  0.47297676838E+03  0.15191654738E+03  0.74374104331E+03  0.12737469633E+04  0.90691506011E+03 0.  0.
        -24    2    4    4    0    0  0.52466991357E+03  0.41722035673E+02  0.90890527019E+03  0.10531744908E+04  0.77771919068E+02 0.  0.
         24    2    4    4    0    0 -0.51693145188E+02  0.11019451171E+03 -0.16516422688E+03  0.22057247253E+03  0.80981369004E+02 0.  0.
         11    1    3    3    0    0 -0.44790391710E+03 -0.12181722566E+03 -0.27439902296E+03  0.53921440933E+03  0.00000000000E+00 0.  1.
        -11    1    3    3    0    0 -0.25072851280E+02 -0.30099321724E+02 -0.37609463462E+02  0.54305513361E+02  0.00000000000E+00 0. -1.
          4    1    6    6  502    0 -0.42484442847E+02  0.12270538195E+03 -0.13958016132E+03  0.19064144375E+03  0.00000000000E+00 0. -1.
          1    1    5    5  503    0  0.40285346896E+03  0.81355219502E+00  0.71137884085E+03  0.81752763533E+03  0.00000000000E+00 0. -1.
         -2    1    5    5    0  503  0.12181644461E+03  0.40908483478E+02  0.19752642935E+03  0.23564685546E+03  0.00000000000E+00 0.  1.
         -3    1    6    6    0  502 -0.92087023412E+01 -0.12510870235E+02 -0.25584065564E+02  0.29931028777E+02  0.00000000000E+00 0.  1.
<mgrwt>
<rscale>  0 0.18166708E+04</rscale>
<asrwt>0</asrwt>
<pdfrwt beam="1">  1        2 0.11042572E+00 0.18166708E+04</pdfrwt>
<pdfrwt beam="2">  1       -2 0.17684611E+00 0.18166708E+04</pdfrwt>
<totfact> 0.71309001E+00</totfact>
</mgrwt>
</event>
<event>
12    1  0.1472088E-007  0.1643541E+04  0.7818608E-02  0.8794237E-01
         -1   -1    0    0    0  501 -0.00000000000E+00  0.00000000000E+00  0.19405431611E+04  0.19405431611E+04  0.00000000000E+00 0.  1.
          1   -1    0    0  501    0  0.00000000000E+00 -0.00000000000E+00 -0.34799892633E+03  0.34799892633E+03  0.00000000000E+00 0. -1.
         23    2    1    2    0    0 -0.35729004663E+03 -0.14191447990E+03 -0.22295201814E+02  0.39594034166E+03  0.92064005475E+02 0.  0.
        254    2    1    2    0    0  0.35729004663E+03  0.14191447990E+03  0.16148394366E+04  0.18926017458E+04  0.90908694037E+03 0.  0.
        -24    2    4    4    0    0  0.56578051691E+03  0.72563613532E+02  0.15443191581E+04  0.16482226961E+04  0.79644978378E+02 0.  0.
         24    2    4    4    0    0 -0.20849047029E+03  0.69350866370E+02  0.70520278520E+02  0.24437904970E+03  0.80437499860E+02 0.  0.
         13    1    3    3    0    0 -0.35610535124E+03 -0.13762509198E+03 -0.34129645524E+02  0.38329690819E+03  0.00000000000E+00 0. -1.
        -13    1    3    3    0    0 -0.11846953857E+01 -0.42893879192E+01  0.11834443711E+02  0.12643433466E+02  0.00000000000E+00 0.  1.
          4    1    6    6  502    0 -0.19284201724E+02  0.29791433696E+02 -0.69014488048E+01  0.36153007529E+02  0.00000000000E+00 0. -1.
          1    1    5    5  503    0  0.92018805164E+02  0.29450015642E+02  0.19771734981E+03  0.22006116045E+03  0.00000000000E+00 0. -1.
         -2    1    5    5    0  503  0.47376171175E+03  0.43113597890E+02  0.13466018083E+04  0.14281615356E+04  0.00000000000E+00 0.  1.
         -3    1    6    6    0  502 -0.18920626856E+03  0.39559432674E+02  0.77421727324E+02  0.20822604217E+03  0.00000000000E+00 0.  1.
<mgrwt>
<rscale>  0 0.16435412E+04</rscale>
<asrwt>0</asrwt>
<pdfrwt beam="1">  1        1 0.53538297E-01 0.16435412E+04</pdfrwt>
<pdfrwt beam="2">  1       -1 0.29854510E+00 0.16435412E+04</pdfrwt>
<totfact> 0.23325870E+00</totfact>
</mgrwt>
</event>
<event>
12    1  0.1472088E-007  0.1576005E+04  0.7818608E-02  0.8835426E-01
          1   -1    0    0  501    0  0.00000000000E+00  0.00000000000E+00  0.19279911088E+04  0.19279911088E+04  0.00000000000E+00 0. -1.
         -1   -1    0    0    0  501 -0.00000000000E+00 -0.00000000000E+00 -0.32206996830E+03  0.32206996830E+03  0.00000000000E+00 0.  1.
         23    2    1    2    0    0  0.18615739855E+03 -0.91338608938E+02 -0.14381891078E+03  0.26833562213E+03  0.91229427750E+02 0.  0.
        254    2    1    2    0    0 -0.18615739855E+03  0.91338608938E+02  0.17497400513E+04  0.19817254550E+04  0.90699956630E+03 0.  0.
        -24    2    4    4    0    0 -0.38156417929E+03  0.17902769145E+03  0.16914518737E+04  0.17448557443E+04  0.76615860164E+02 0.  0.
         24    2    4    4    0    0  0.19540678074E+03 -0.87689082509E+02  0.58288177552E+02  0.23686971067E+03  0.82683511284E+02 0.  0.
         13    1    3    3    0    0  0.10018417907E+03 -0.87828632087E+02 -0.11936863991E+03  0.17888434963E+03  0.00000000000E+00 0.  1.
        -13    1    3    3    0    0  0.85973219479E+02 -0.35099768514E+01 -0.24450270872E+02  0.89451272494E+02  0.00000000000E+00 0. -1.
          2    1    6    6  502    0  0.16148794861E+03 -0.89938350827E+02  0.20398330722E+02  0.18596600870E+03  0.00000000000E+00 0. -1.
          3    1    5    5  503    0 -0.18412992453E+03  0.12429514892E+03  0.81064323602E+03  0.84053290790E+03  0.00000000000E+00 0. -1.
         -4    1    5    5    0  503 -0.19743425476E+03  0.54732542522E+02  0.88080863770E+03  0.90432283639E+03  0.00000000000E+00 0.  1.
         -1    1    6    6    0  502  0.33918832132E+02  0.22492683178E+01  0.37889846830E+02  0.50903701968E+02  0.00000000000E+00 0.  1.
<mgrwt>
<rscale>  0 0.15760051E+04</rscale>
<asrwt>0</asrwt>
<pdfrwt beam="1">  1        1 0.29661401E+00 0.15760051E+04</pdfrwt>
<pdfrwt beam="2">  1       -1 0.49549227E-01 0.15760051E+04</pdfrwt>
<totfact> 0.13097935E+01</totfact>
</mgrwt>
</event>
<event>
12    1  0.1472088E-007  0.1547737E+04  0.7818608E-02  0.8853314E-01
         -2   -1    0    0    0  501 -0.00000000000E+00  0.00000000000E+00  0.25800127766E+03  0.25800127766E+03  0.00000000000E+00 0.  1.
          2   -1    0    0  501    0  0.00000000000E+00 -0.00000000000E+00 -0.23211999278E+04  0.23211999278E+04  0.00000000000E+00 0. -1.
         23    2    1    2    0    0  0.83824628757E+01 -0.19652633601E+03 -0.14575934802E+04  0.14734906194E+04  0.88898737856E+02 0.  0.
        254    2    1    2    0    0 -0.83824628757E+01  0.19652633601E+03 -0.60560516990E+03  0.11057105860E+04  0.90396095697E+03 0.  0.
        -24    2    4    4    0    0  0.42804744116E+03  0.19066307411E+03 -0.37433243326E+03  0.60509978673E+03  0.80274289786E+02 0.  0.
         24    2    4    4    0    0 -0.43642990403E+03  0.58632619037E+01 -0.23127273664E+03  0.50061079926E+03  0.81355114440E+02 0.  0.
         13    1    3    3    0    0 -0.18088914288E+02 -0.17755083742E+03 -0.13245006120E+04  0.13364704935E+04  0.00000000000E+00 0. -1.
        -13    1    3    3    0    0  0.26471377164E+02 -0.18975498589E+02 -0.13309286816E+03  0.13702012593E+03  0.00000000000E+00 0.  1.
          2    1    6    6  502    0 -0.31879029002E+03 -0.22948940689E+02 -0.13989555958E+03  0.34889062825E+03  0.00000000000E+00 0. -1.
          1    1    5    5  503    0  0.41726677890E+03  0.16768172122E+03 -0.34898396549E+03  0.56922625781E+03  0.00000000000E+00 0. -1.
         -2    1    5    5    0  503  0.10780662255E+02  0.22981352886E+02 -0.25348467770E+02  0.35873528923E+02  0.00000000000E+00 0.  1.
         -1    1    6    6    0  502 -0.11763961402E+03  0.28812202592E+02 -0.91377177060E+02  0.15172017101E+03  0.00000000000E+00 0.  1.
<mgrwt>
<rscale>  0 0.15477371E+04</rscale>
<asrwt>0</asrwt>
<pdfrwt beam="1">  1        2 0.35710769E+00 0.15477371E+04</pdfrwt>
<pdfrwt beam="2">  1       -2 0.39692504E-01 0.15477371E+04</pdfrwt>
<totfact> 0.25527074E+01</totfact>
</mgrwt>
</event>
<event>
12    1  0.1472088E-007  0.2651164E+04  0.7818608E-02  0.8351027E-01
         -1   -1    0    0    0  501 -0.00000000000E+00  0.00000000000E+00  0.80849116713E+03  0.80849116713E+03  0.00000000000E+00 0.  1.
          1   -1    0    0  501    0  0.00000000000E+00 -0.00000000000E+00 -0.21733916987E+04  0.21733916987E+04  0.00000000000E+00 0. -1.
         23    2    1    2    0    0  0.68024546817E+03  0.37636633574E+03  0.37939351838E+03  0.86934832850E+03  0.86264470294E+02 0.  0.
        254    2    1    2    0    0 -0.68024546817E+03 -0.37636633574E+03 -0.17442940500E+04  0.21125345373E+04  0.90324687828E+03 0.  0.
        -24    2    4    4    0    0 -0.50103966456E+03 -0.66763761881E+03 -0.11714862357E+04  0.14406360086E+04  0.79192004167E+02 0.  0.
         24    2    4    4    0    0 -0.17920580361E+03  0.29127128308E+03 -0.57280781430E+03  0.67189852871E+03  0.79907198460E+02 0.  0.
         13    1    3    3    0    0  0.52393886734E+03  0.27567327389E+03  0.32621093720E+03  0.67595951520E+03  0.00000000000E+00 0.  1.
        -13    1    3    3    0    0  0.15630660083E+03  0.10069306185E+03  0.53182581183E+02  0.19338881330E+03  0.00000000000E+00 0. -1.
          4    1    6    6  502    0 -0.83902881872E+02  0.20838561870E+03 -0.35437941586E+03  0.41958197060E+03  0.00000000000E+00 0. -1.
          1    1    5    5  503    0 -0.46559470864E+03 -0.64603687857E+03 -0.11249232280E+04  0.13782577226E+04  0.00000000000E+00 0. -1.
         -2    1    5    5    0  503 -0.35444955918E+02 -0.21600740243E+02 -0.46563007710E+02  0.62378286014E+02  0.00000000000E+00 0.  1.
         -3    1    6    6    0  502 -0.95302921736E+02  0.82885664376E+02 -0.21842839844E+03  0.25231655810E+03  0.00000000000E+00 0.  1.
<mgrwt>
<rscale>  0 0.26511643E+04</rscale>
<asrwt>0</asrwt>
<pdfrwt beam="1">  1        1 0.33436796E+00 0.26511643E+04</pdfrwt>
<pdfrwt beam="2">  1       -1 0.12438325E+00 0.26511643E+04</pdfrwt>
<totfact> 0.11281605E+00</totfact>
</mgrwt>
</event>
<event>
12    1  0.1472088E-007  0.2075001E+04  0.7818608E-02  0.8572336E-01
          3   -1    0    0  501    0  0.00000000000E+00  0.00000000000E+00  0.75193037628E+03  0.75193037628E+03  0.00000000000E+00 0. -1.
         -3   -1    0    0    0  501 -0.00000000000E+00 -0.00000000000E+00 -0.14315250616E+04  0.14315250616E+04  0.00000000000E+00 0.  1.
         23    2    1    2    0    0  0.67126400912E+02  0.16665214459E+03  0.58614524815E+03  0.61980916997E+03  0.91204518846E+02 0.  0.
        254    2    1    2    0    0 -0.67126400912E+02 -0.16665214459E+03 -0.12657399335E+04  0.15636462679E+04  0.90034059166E+03 0.  0.
        -24    2    4    4    0    0 -0.32361574328E+03  0.19645046430E+03 -0.90831353162E+03  0.98727870733E+03  0.79786214272E+02 0.  0.
         24    2    4    4    0    0  0.25648934237E+03 -0.36310260889E+03 -0.35742640183E+03  0.57636756058E+03  0.82556918733E+02 0.  0.
         11    1    3    3    0    0 -0.19890570876E+02  0.62859467672E+02  0.20174965106E+03  0.21224954461E+03  0.00000000000E+00 0. -1.
        -11    1    3    3    0    0  0.87016971788E+02  0.10379267692E+03  0.38439559709E+03  0.40755962536E+03  0.00000000000E+00 0.  1.
          4    1    6    6  502    0  0.17878047621E+03 -0.27904772424E+03 -0.22127461612E+03  0.39848782518E+03  0.00000000000E+00 0. -1.
          1    1    5    5  503    0 -0.16995637282E+03  0.84359968363E+02 -0.36046684824E+03  0.40735503140E+03  0.00000000000E+00 0. -1.
         -2    1    5    5    0  503 -0.15365937046E+03  0.11209049594E+03 -0.54784668338E+03  0.57992367593E+03  0.00000000000E+00 0.  1.
         -3    1    6    6    0  502  0.77708866157E+02 -0.84054884649E+02 -0.13615178571E+03  0.17787973540E+03  0.00000000000E+00 0.  1.
<mgrwt>
<rscale>  0 0.20750009E+04</rscale>
<asrwt>0</asrwt>
<pdfrwt beam="1">  1        3 0.11568160E+00 0.20750009E+04</pdfrwt>
<pdfrwt beam="2">  1       -3 0.22023462E+00 0.20750009E+04</pdfrwt>
<totfact> 0.16381434E-01</totfact>
</mgrwt>
</event>
<event>
12    1  0.1472088E-007  0.1291217E+04  0.7818608E-02  0.9036559E-01
          1   -1    0    0  501    0  0.00000000000E+00  0.00000000000E+00  0.95866312581E+03  0.95866312581E+03  0.00000000000E+00 0. -1.
         -1   -1    0    0    0  501 -0.00000000000E+00 -0.00000000000E+00 -0.43478277593E+03  0.43478277593E+03  0.00000000000E+00 0.  1.
         23    2    1    2    0    0 -0.13680705735E+03  0.17790285257E+03 -0.10707196045E+03  0.26827170549E+03  0.10069611391E+03 0.  0.
        254    2    1    2    0    0  0.13680705735E+03 -0.17790285257E+03  0.63095231033E+03  0.11251741962E+04  0.90418502426E+03 0.  0.
        -24    2    4    4    0    0 -0.36787683630E+03 -0.17343125707E+03  0.35017955273E+03  0.54238607727E+03  0.78391135043E+02 0.  0.
         24    2    4    4    0    0  0.50468389365E+03 -0.44715955089E+01  0.28077275760E+03  0.58278811898E+03  0.77992451828E+02 0.  0.
         13    1    3    3    0    0  0.11332713356E+02  0.31764662666E+02 -0.33558746556E+02  0.47577449035E+02  0.00000000000E+00 0. -1.
        -13    1    3    3    0    0 -0.14813977070E+03  0.14613818991E+03 -0.73513213889E+02  0.22069425645E+03  0.00000000000E+00 0.  1.
          2    1    6    6  502    0  0.10703052628E+03 -0.27468060293E+02  0.40936348970E+02  0.11783807771E+03  0.00000000000E+00 0. -1.
          3    1    5    5  503    0 -0.11003407283E+03 -0.16184254101E+02  0.78185264486E+02  0.13594985417E+03  0.00000000000E+00 0. -1.
         -4    1    5    5    0  503 -0.25784276346E+03 -0.15724700296E+03  0.27199428825E+03  0.40643622310E+03  0.00000000000E+00 0.  1.
         -1    1    6    6    0  502  0.39765336736E+03  0.22996464784E+02  0.23983640863E+03  0.46495004126E+03  0.00000000000E+00 0.  1.
<mgrwt>
<rscale>  0 0.12912168E+04</rscale>
<asrwt>0</asrwt>
<pdfrwt beam="1">  1        1 0.14748663E+00 0.12912168E+04</pdfrwt>
<pdfrwt beam="2">  1       -1 0.66889658E-01 0.12912168E+04</pdfrwt>
<totfact> 0.36320128E+01</totfact>
</mgrwt>
</event>
<event>
12    1  0.1472088E-007  0.3054398E+04  0.7818608E-02  0.8228366E-01
         -1   -1    0    0    0  501 -0.00000000000E+00  0.00000000000E+00  0.17847876638E+04  0.17847876638E+04  0.00000000000E+00 0.  1.
          1   -1    0    0  501    0  0.00000000000E+00 -0.00000000000E+00 -0.13067869046E+04  0.13067869046E+04  0.00000000000E+00 0. -1.
         23    2    1    2    0    0  0.10043267619E+03  0.54927406981E+03 -0.10685316918E+04  0.12090840175E+04  0.91298733689E+02 0.  0.
        254    2    1    2    0    0 -0.10043267619E+03 -0.54927406981E+03  0.15465324510E+04  0.18824905508E+04  0.91663478312E+03 0.  0.
        -24    2    4    4    0    0  0.15714883520E+03 -0.67317003901E+03  0.13734922562E+04  0.15397012704E+04  0.79657808184E+02 0.  0.
         24    2    4    4    0    0 -0.25758151139E+03  0.12389596920E+03  0.17304019481E+03  0.34278928040E+03  0.76571114283E+02 0.  0.
         13    1    3    3    0    0  0.10575966923E+03  0.40451026956E+03 -0.73815126857E+03  0.84834012112E+03  0.00000000000E+00 0. -1.
        -13    1    3    3    0    0 -0.53269930352E+01  0.14476380025E+03 -0.33038042325E+03  0.36074389639E+03  0.00000000000E+00 0.  1.
          4    1    6    6  502    0 -0.21873317889E+03  0.10524813605E+03  0.17564159951E+03  0.29961866626E+03  0.00000000000E+00 0. -1.
          3    1    5    5  503    0  0.12397460768E+03 -0.51026097071E+03  0.96384989986E+03  0.10976076672E+04  0.00000000000E+00 0. -1.
         -4    1    5    5    0  503  0.33174227524E+02 -0.16290906831E+03  0.40964235634E+03  0.44209360323E+03  0.00000000000E+00 0.  1.
         -3    1    6    6    0  502 -0.38848332499E+02  0.18647833155E+02 -0.26014047000E+01  0.43170614146E+02  0.00000000000E+00 0.  1.
<mgrwt>
<rscale>  0 0.30543982E+04</rscale>
<asrwt>0</asrwt>
<pdfrwt beam="1">  1        1 0.20104414E+00 0.30543982E+04</pdfrwt>
<pdfrwt beam="2">  1       -1 0.27458272E+00 0.30543982E+04</pdfrwt>
<totfact> 0.36560507E-01</totfact>
</mgrwt>
</event>
<event>
12    1  0.1472088E-007  0.1525011E+04  0.7818608E-02  0.8867989E-01
          2   -1    0    0  501    0  0.00000000000E+00  0.00000000000E+00  0.14994589897E+04  0.14994589897E+04  0.00000000000E+00 0. -1.
         -2   -1    0    0    0  501 -0.00000000000E+00 -0.00000000000E+00 -0.38774958832E+03  0.38774958832E+03  0.00000000000E+00 0.  1.
         23    2    1    2    0    0 -0.25956740540E+03  0.41395023264E+03  0.27930763829E+03  0.57004703058E+03  0.90613614958E+02 0.  0.
        254    2    1    2    0    0  0.25956740540E+03 -0.41395023264E+03  0.83240176310E+03  0.13171615474E+04  0.89626548175E+03 0.  0.
        -24    2    4    4    0    0 -0.15117958891E+02 -0.55360480401E+03  0.82767463022E+03  0.99979406973E+03  0.88521503933E+02 0.  0.
         24    2    4    4    0    0  0.27468536429E+03  0.13965457137E+03  0.47271328778E+01  0.31736747770E+03  0.75791301989E+02 0.  0.
         11    1    3    3    0    0 -0.13610368876E+03  0.16401574889E+03  0.81286693903E+02  0.22810722607E+03  0.00000000000E+00 0. -1.
        -11    1    3    3    0    0 -0.12346371664E+03  0.24993448375E+03  0.19802094438E+03  0.34193980451E+03  0.00000000000E+00 0.  1.
          2    1    6    6  502    0  0.23686660319E+03  0.11017096006E+03  0.30360486746E+02  0.26299275143E+03  0.00000000000E+00 0. -1.
          1    1    5    5  503    0 -0.39658376107E+02 -0.50315241279E+03  0.74206108432E+03  0.89743511752E+03  0.00000000000E+00 0. -1.
         -2    1    5    5    0  503  0.24540417216E+02 -0.50452391220E+02  0.85613545895E+02  0.10235895221E+03  0.00000000000E+00 0.  1.
         -1    1    6    6    0  502  0.37818761103E+02  0.29483611304E+02 -0.25633353868E+02  0.54374726275E+02  0.00000000000E+00 0.  1.
<mgrwt>
<rscale>  0 0.15250110E+04</rscale>
<asrwt>0</asrwt>
<pdfrwt beam="1">  1        2 0.23068599E+00 0.15250110E+04</pdfrwt>
<pdfrwt beam="2">  1       -2 0.59653784E-01 0.15250110E+04</pdfrwt>
<totfact> 0.32114100E+01</totfact>
</mgrwt>
</event>
<event>
12    1  0.1472088E-007  0.1739073E+04  0.7818608E-02  0.8739388E-01
          1   -1    0    0  501    0  0.00000000000E+00  0.00000000000E+00  0.15108160221E+04  0.15108160221E+04  0.00000000000E+00 0. -1.
         -1   -1    0    0    0  501 -0.00000000000E+00 -0.00000000000E+00 -0.50045382319E+03  0.50045382319E+03  0.00000000000E+00 0.  1.
         23    2    1    2    0    0  0.41922625823E+03 -0.12042522057E+03  0.87812833837E+03  0.98480336044E+03  0.92061885469E+02 0.  0.
        254    2    1    2    0    0 -0.41922625823E+03  0.12042522057E+03  0.13223386058E+03  0.10264664849E+04  0.91972537281E+03 0.  0.
        -24    2    4    4    0    0  0.14345150049E+03 -0.35611142032E+02  0.35783213299E+03  0.39560008049E+03  0.81296382770E+02 0.  0.
         24    2    4    4    0    0 -0.56267775872E+03  0.15603636260E+03 -0.22559827241E+03  0.63086640440E+03  0.78385158555E+02 0.  0.
         13    1    3    3    0    0  0.13366734147E+03 -0.51763711657E+02  0.38528245888E+03  0.41108273272E+03  0.00000000000E+00 0. -1.
        -13    1    3    3    0    0  0.28555891676E+03 -0.68661508909E+02  0.49284587949E+03  0.57372062772E+03  0.00000000000E+00 0.  1.
          2    1    6    6  502    0 -0.60178997138E+02  0.70557827154E+01 -0.86157563028E+00  0.60597343826E+02  0.00000000000E+00 0. -1.
          1    1    5    5  503    0  0.10289534548E+03 -0.34782727610E+02  0.15825693626E+03  0.19194412764E+03  0.00000000000E+00 0. -1.
         -2    1    5    5    0  503  0.40556155007E+02 -0.82841442196E+00  0.19957519673E+03  0.20365595285E+03  0.00000000000E+00 0.  1.
         -1    1    6    6    0  502 -0.50249876158E+03  0.14898057988E+03 -0.22473669678E+03  0.57026906058E+03  0.00000000000E+00 0.  1.
<mgrwt>
<rscale>  0 0.17390729E+04</rscale>
<asrwt>0</asrwt>
<pdfrwt beam="1">  1        1 0.23243323E+00 0.17390729E+04</pdfrwt>
<pdfrwt beam="2">  1       -1 0.76992897E-01 0.17390729E+04</pdfrwt>
<totfact> 0.10318081E+01</totfact>
</mgrwt>
</event>
<event>
12    1  0.1472088E-007  0.1291772E+04  0.7818608E-02  0.9036116E-01
          2   -1    0    0  501    0  0.00000000000E+00  0.00000000000E+00  0.29471498216E+04  0.29471498216E+04  0.00000000000E+00 0. -1.
         -2   -1    0    0    0  501 -0.00000000000E+00 -0.00000000000E+00 -0.14154991118E+03  0.14154991118E+03  0.00000000000E+00 0.  1.
         23    2    1    2    0    0  0.15070606282E+03 -0.17135768386E+03  0.18957385628E+03  0.31030963130E+03  0.90983773866E+02 0.  0.
        254    2    1    2    0    0 -0.15070606282E+03  0.17135768386E+03  0.26160260541E+04  0.27783901015E+04  0.90762517974E+03 0.  0.
        -24    2    4    4    0    0 -0.29021564005E+03  0.25028532267E+03  0.41702015007E+03  0.57212538619E+03  0.80955490744E+02 0.  0.
         24    2    4    4    0    0  0.13950957724E+03 -0.78927638814E+02  0.21990059041E+04  0.22062647153E+04  0.79275049694E+02 0.  0.
         11    1    3    3    0    0  0.15245774416E+03 -0.16974346174E+03  0.15540077694E+03  0.27605363253E+03  0.00000000000E+00 0.  1.
        -11    1    3    3    0    0 -0.17516813382E+01 -0.16142221161E+01  0.34173079342E+02  0.34255998778E+02  0.00000000000E+00 0. -1.
          4    1    6    6  502    0  0.81849902293E+02 -0.88182361753E+02  0.15161380846E+04  0.15209044109E+04  0.00000000000E+00 0. -1.
          3    1    5    5  503    0 -0.13148233926E+03  0.16603535007E+03  0.23454777914E+03  0.31601899264E+03  0.00000000000E+00 0. -1.
         -4    1    5    5    0  503 -0.15873330079E+03  0.84249972601E+02  0.18247237094E+03  0.25610639355E+03  0.00000000000E+00 0.  1.
         -3    1    6    6    0  502  0.57659674944E+02  0.92547229388E+01  0.68286781946E+03  0.68536030441E+03  0.00000000000E+00 0.  1.
<mgrwt>
<rscale>  0 0.12917721E+04</rscale>
<asrwt>0</asrwt>
<pdfrwt beam="1">  1        2 0.45340762E+00 0.12917721E+04</pdfrwt>
<pdfrwt beam="2">  1       -2 0.21776912E-01 0.12917721E+04</pdfrwt>
<totfact> 0.34241875E+01</totfact>
</mgrwt>
</event>
<event>
12    1  0.1472088E-007  0.2165480E+04  0.7818608E-02  0.8532935E-01
         -1   -1    0    0    0  501 -0.00000000000E+00  0.00000000000E+00  0.14150526582E+04  0.14150526582E+04  0.00000000000E+00 0.  1.
          1   -1    0    0  501    0  0.00000000000E+00 -0.00000000000E+00 -0.82846841114E+03  0.82846841114E+03  0.00000000000E+00 0. -1.
         23    2    1    2    0    0  0.85639040453E+03  0.24274551275E+03  0.36173563550E+03  0.96503394549E+03  0.90044083760E+02 0.  0.
        254    2    1    2    0    0 -0.85639040453E+03 -0.24274551275E+03  0.22484861155E+03  0.12784871239E+04  0.88974295098E+03 0.  0.
        -24    2    4    4    0    0 -0.22842167416E+03  0.27865165159E+03  0.26753731483E+03  0.45728582329E+03  0.87811760002E+02 0.  0.
         24    2    4    4    0    0 -0.62796873037E+03 -0.52139716434E+03 -0.42688703279E+02  0.82120130057E+03  0.79683883991E+02 0.  0.
         13    1    3    3    0    0  0.15423608490E+03  0.43184620169E+02  0.10369843868E+03  0.19080630883E+03  0.00000000000E+00 0.  1.
        -13    1    3    3    0    0  0.70215431963E+03  0.19956089258E+03  0.25803719683E+03  0.77422763666E+03  0.00000000000E+00 0. -1.
          4    1    6    6  502    0 -0.70391260181E+01  0.19959686484E+01  0.28045021577E+01  0.78357142812E+01  0.00000000000E+00 0. -1.
          3    1    5    5  503    0 -0.62800183051E+02  0.34194856899E+02  0.80880217797E+02  0.10795721773E+03  0.00000000000E+00 0. -1.
         -4    1    5    5    0  503 -0.16562149111E+03  0.24445679469E+03  0.18665709703E+03  0.34932860556E+03  0.00000000000E+00 0.  1.
         -3    1    6    6    0  502 -0.62092960435E+03 -0.52339313299E+03 -0.45493205437E+02  0.81336558629E+03  0.00000000000E+00 0.  1.
<mgrwt>
<rscale>  0 0.21654805E+04</rscale>
<asrwt>0</asrwt>
<pdfrwt beam="1">  1        1 0.12745668E+00 0.21654805E+04</pdfrwt>
<pdfrwt beam="2">  1       -1 0.21770041E+00 0.21654805E+04</pdfrwt>
<totfact> 0.21782825E+00</totfact>
</mgrwt>
</event>
<event>
12    1  0.1472088E-007  0.3053344E+04  0.7818608E-02  0.8228660E-01
          2   -1    0    0  501    0  0.00000000000E+00  0.00000000000E+00  0.20858857599E+04  0.20858857599E+04  0.00000000000E+00 0. -1.
         -2   -1    0    0    0  501 -0.00000000000E+00 -0.00000000000E+00 -0.11173799112E+04  0.11173799112E+04  0.00000000000E+00 0.  1.
         23    2    1    2    0    0 -0.54295502976E+03 -0.39242897593E+03 -0.84103564298E+03  0.10782965694E+04  0.81128745666E+02 0.  0.
        254    2    1    2    0    0  0.54295502976E+03  0.39242897593E+03  0.18095414917E+04  0.21249691017E+04  0.89008573054E+03 0.  0.
        -24    2    4    4    0    0  0.44869010869E+03 -0.17538634816E+03  0.53337891881E+03  0.72270356066E+03  0.75658316174E+02 0.  0.
         24    2    4    4    0    0  0.94264921066E+02  0.56781532409E+03  0.12761625728E+04  0.14022655410E+04  0.80359303545E+02 0.  0.
         11    1    3    3    0    0 -0.78017883385E+02 -0.64594684481E+02 -0.17662044133E+03  0.20360266130E+03  0.00000000000E+00 0. -1.
        -11    1    3    3    0    0 -0.46493714637E+03 -0.32783429145E+03 -0.66441520164E+03  0.87469390812E+03  0.00000000000E+00 0.  1.
          2    1    6    6  502    0  0.31954690439E+02  0.63485966516E+02  0.19741962484E+03  0.20982392251E+03  0.00000000000E+00 0. -1.
          1    1    5    5  503    0  0.10494453607E+03 -0.71133079695E+02  0.16626147412E+03  0.20908407030E+03  0.00000000000E+00 0. -1.
         -2    1    5    5    0  503  0.34374557262E+03 -0.10425326846E+03  0.36711744469E+03  0.51361949036E+03  0.00000000000E+00 0.  1.
         -1    1    6    6    0  502  0.62310230627E+02  0.50432935757E+03  0.10787429480E+04  0.11924416185E+04  0.00000000000E+00 0.  1.
<mgrwt>
<rscale>  0 0.30533436E+04</rscale>
<asrwt>0</asrwt>
<pdfrwt beam="1">  1        2 0.32090550E+00 0.30533436E+04</pdfrwt>
<pdfrwt beam="2">  1       -2 0.17190460E+00 0.30533436E+04</pdfrwt>
<totfact> 0.10536557E+00</totfact>
</mgrwt>
</event>
<event>
12    1  0.1472088E-007  0.2010827E+04  0.7818608E-02  0.8601576E-01
          2   -1    0    0  501    0  0.00000000000E+00  0.00000000000E+00  0.28083402705E+04  0.28083402705E+04  0.00000000000E+00 0. -1.
         -2   -1    0    0    0  501 -0.00000000000E+00 -0.00000000000E+00 -0.35994781695E+03  0.35994781695E+03  0.00000000000E+00 0.  1.
         23    2    1    2    0    0 -0.38379375482E+03  0.22502251804E+03  0.20409266808E+04  0.20908960440E+04  0.92367584327E+02 0.  0.
        254    2    1    2    0    0  0.38379375482E+03 -0.22502251804E+03  0.40746577273E+03  0.10773920434E+04  0.89264353435E+03 0.  0.
        -24    2    4    4    0    0  0.28961140985E+03 -0.50121559857E+03  0.49208597434E+03  0.76378636525E+03  0.78288955940E+02 0.  0.
         24    2    4    4    0    0  0.94182344965E+02  0.27619308053E+03 -0.84620201612E+02  0.31360567817E+03  0.77685333418E+02 0.  0.
         13    1    3    3    0    0 -0.26000125713E+03  0.14493436366E+03  0.11526317600E+04  0.11904480660E+04  0.00000000000E+00 0.  1.
        -13    1    3    3    0    0 -0.12379249768E+03  0.80088154384E+02  0.88829492078E+03  0.90044797808E+03  0.00000000000E+00 0. -1.
          4    1    6    6  502    0  0.10745893207E+03  0.24367149795E+03 -0.68659467488E+02  0.27502244176E+03  0.00000000000E+00 0. -1.
          3    1    5    5  503    0  0.26323407220E+03 -0.45464873833E+03  0.47315817726E+03  0.70701931567E+03  0.00000000000E+00 0. -1.
         -4    1    5    5    0  503  0.26377337645E+02 -0.46566860246E+02  0.18927797084E+02  0.56767049570E+02  0.00000000000E+00 0.  1.
         -3    1    6    6    0  502 -0.13276587107E+02  0.32521582575E+02 -0.15960734124E+02  0.38583236414E+02  0.00000000000E+00 0.  1.
<mgrwt>
<rscale>  0 0.20108266E+04</rscale>
<asrwt>0</asrwt>
<pdfrwt beam="1">  1        2 0.43205234E+00 0.20108266E+04</pdfrwt>
<pdfrwt beam="2">  1       -2 0.55376589E-01 0.20108266E+04</pdfrwt>
<totfact> 0.65127544E+00</totfact>
</mgrwt>
</event>
<event>
12    1  0.1472088E-007  0.1319084E+04  0.7818608E-02  0.9014567E-01
          1   -1    0    0  501    0  0.00000000000E+00  0.00000000000E+00  0.19362552870E+04  0.19362552870E+04  0.00000000000E+00 0. -1.
         -1   -1    0    0    0  501 -0.00000000000E+00 -0.00000000000E+00 -0.22465815721E+03  0.22465815721E+03  0.00000000000E+00 0.  1.
         23    2    1    2    0    0  0.30508810960E+03  0.21371058015E+02  0.81675965248E+03  0.87729796411E+03  0.94973212940E+02 0.  0.
        254    2    1    2    0    0 -0.30508810960E+03 -0.21371058015E+02  0.89483747732E+03  0.12836154801E+04  0.86798566418E+03 0.  0.
        -24    2    4    4    0    0 -0.29441202126E+03  0.38499951162E+03  0.36648554388E+03  0.61211628423E+03  0.73970462573E+02 0.  0.
         24    2    4    4    0    0 -0.10676088343E+02 -0.40637056964E+03  0.52835193344E+03  0.67149919588E+03  0.80649772301E+02 0.  0.
         13    1    3    3    0    0  0.28393894659E+02 -0.22975175317E+02  0.59083837154E+02  0.69462016582E+02  0.00000000000E+00 0.  1.
        -13    1    3    3    0    0  0.27669421494E+03  0.44346233332E+02  0.75767581533E+03  0.80783594753E+03  0.00000000000E+00 0. -1.
          4    1    6    6  502    0  0.10891383265E+02 -0.35566921891E+03  0.48421863175E+03  0.60090506641E+03  0.00000000000E+00 0. -1.
          3    1    5    5  503    0 -0.28172863893E+03  0.36632816705E+03  0.32527584177E+03  0.56512983040E+03  0.00000000000E+00 0. -1.
         -4    1    5    5    0  503 -0.12683382329E+02  0.18671344572E+02  0.41209702112E+02  0.46986453831E+02  0.00000000000E+00 0.  1.
         -3    1    6    6    0  502 -0.21567471608E+02 -0.50701350731E+02  0.44133301687E+02  0.70594129468E+02  0.00000000000E+00 0.  1.
<mgrwt>
<rscale>  0 0.13190838E+04</rscale>
<asrwt>0</asrwt>
<pdfrwt beam="1">  1        1 0.29788542E+00 0.13190838E+04</pdfrwt>
<pdfrwt beam="2">  1       -1 0.34562795E-01 0.13190838E+04</pdfrwt>
<totfact> 0.25659955E+01</totfact>
</mgrwt>
</event>
<event>
12    1  0.1472088E-007  0.2413511E+04  0.7818608E-02  0.8434463E-01
         -1   -1    0    0    0  501 -0.00000000000E+00  0.00000000000E+00  0.35276581301E+03  0.35276581301E+03  0.00000000000E+00 0.  1.
          1   -1    0    0  501    0  0.00000000000E+00 -0.00000000000E+00 -0.41281170561E+04  0.41281170561E+04  0.00000000000E+00 0. -1.
         23    2    1    2    0    0  0.62876702426E+03 -0.60774931225E+03 -0.26639040917E+04  0.28052430352E+04  0.91083914904E+02 0.  0.
        254    2    1    2    0    0 -0.62876702426E+03  0.60774931225E+03 -0.11114471514E+04  0.16756398339E+04  0.89874739788E+03 0.  0.
        -24    2    4    4    0    0 -0.21887141756E+03  0.74510272795E+03 -0.51647255479E+03  0.93616157174E+03  0.81066737407E+02 0.  0.
         24    2    4    4    0    0 -0.40989560670E+03 -0.13735341570E+03 -0.59497459657E+03  0.73947826212E+03  0.77155430078E+02 0.  0.
         11    1    3    3    0    0  0.51725566202E+03 -0.52946339512E+03 -0.21632286773E+04  0.22863602553E+04  0.00000000000E+00 0. -1.
        -11    1    3    3    0    0  0.11151136224E+03 -0.78285917130E+02 -0.50067541439E+03  0.51888277993E+03  0.00000000000E+00 0.  1.
          2    1    6    6  502    0 -0.28471046461E+03 -0.59770720241E+02 -0.37180660743E+03  0.47209399592E+03  0.00000000000E+00 0. -1.
          1    1    5    5  503    0  0.55550129774E+01  0.13123799788E+02 -0.37861267543E+01  0.14745407619E+02  0.00000000000E+00 0. -1.
         -2    1    5    5    0  503 -0.22442643054E+03  0.73197892816E+03 -0.51268642804E+03  0.92141616412E+03  0.00000000000E+00 0.  1.
         -1    1    6    6    0  502 -0.12518514209E+03 -0.77582695458E+02 -0.22316798914E+03  0.26738426620E+03  0.00000000000E+00 0.  1.
<mgrwt>
<rscale>  0 0.24135108E+04</rscale>
<asrwt>0</asrwt>
<pdfrwt beam="1">  1        1 0.63509494E+00 0.24135108E+04</pdfrwt>
<pdfrwt beam="2">  1       -1 0.54271663E-01 0.24135108E+04</pdfrwt>
<totfact> 0.22698803E-01</totfact>
</mgrwt>
</event>
<event>
12    1  0.1472088E-007  0.3441126E+04  0.7818608E-02  0.8127886E-01
         -2   -1    0    0    0  501 -0.00000000000E+00  0.00000000000E+00  0.12487818595E+04  0.12487818595E+04  0.00000000000E+00 0.  1.
          2   -1    0    0  501    0  0.00000000000E+00 -0.00000000000E+00 -0.23705799977E+04  0.23705799977E+04  0.00000000000E+00 0. -1.
         23    2    1    2    0    0  0.82635794429E+03 -0.14710392045E+03  0.91050415471E+03  0.12450062295E+04  0.12851334670E+03 0.  0.
        254    2    1    2    0    0 -0.82635794429E+03  0.14710392045E+03 -0.20323022928E+04  0.23743556277E+04  0.89599387374E+03 0.  0.
        -24    2    4    4    0    0 -0.26046072084E+03 -0.36820467698E+03 -0.78046228151E+03  0.90494914244E+03  0.79981912300E+02 0.  0.
         24    2    4    4    0    0 -0.56589722346E+03  0.51530859743E+03 -0.12518400113E+04  0.14694064852E+04  0.79179459691E+02 0.  0.
         11    1    3    3    0    0  0.18308368405E+03  0.43594610557E+01  0.25715275685E+03  0.31569951002E+03  0.00000000000E+00 0. -1.
        -11    1    3    3    0    0  0.64327426024E+03 -0.15146338151E+03  0.65335139786E+03  0.92930671950E+03  0.00000000000E+00 0.  1.
          4    1    6    6  502    0 -0.74575149928E+02  0.10426151134E+03 -0.18657709230E+03  0.22636900650E+03  0.00000000000E+00 0. -1.
          3    1    5    5  503    0 -0.47939877719E+02 -0.87046906047E+02 -0.23958956657E+03  0.25938110212E+03  0.00000000000E+00 0. -1.
         -4    1    5    5    0  503 -0.21252084312E+03 -0.28115777094E+03 -0.54087271494E+03  0.64556804032E+03  0.00000000000E+00 0.  1.
         -3    1    6    6    0  502 -0.49132207353E+03  0.41104708609E+03 -0.10652629190E+04  0.12430374787E+04  0.00000000000E+00 0.  1.
<mgrwt>
<rscale>  0 0.34411262E+04</rscale>
<asrwt>0</asrwt>
<pdfrwt beam="1">  1        2 0.36470461E+00 0.34411262E+04</pdfrwt>
<pdfrwt beam="2">  1       -2 0.19212029E+00 0.34411262E+04</pdfrwt>
<totfact> 0.51185630E-01</totfact>
</mgrwt>
</event>
<event>
12    1  0.1472088E-007  0.1557261E+04  0.7818608E-02  0.8847243E-01
         -1   -1    0    0    0  501 -0.00000000000E+00  0.00000000000E+00  0.23037310848E+03  0.23037310848E+03  0.00000000000E+00 0.  1.
          1   -1    0    0  501    0  0.00000000000E+00 -0.00000000000E+00 -0.26316677531E+04  0.26316677531E+04  0.00000000000E+00 0. -1.
         23    2    1    2    0    0 -0.42514552252E+03  0.26660377632E+03 -0.10203786212E+04  0.11406799674E+04  0.90288252211E+02 0.  0.
        254    2    1    2    0    0  0.42514552252E+03 -0.26660377632E+03 -0.13809160234E+04  0.17213608942E+04  0.89684333945E+03 0.  0.
        -24    2    4    4    0    0  0.39385810545E+02  0.11453996793E+03  0.76244786142E+02  0.16470152768E+03  0.81502634809E+02 0.  0.
         24    2    4    4    0    0  0.38575971197E+03 -0.38114374426E+03 -0.14571608095E+04  0.15566593665E+04  0.76089745131E+02 0.  0.
         11    1    3    3    0    0 -0.89674231886E+02  0.99869304629E+02 -0.23805964449E+03  0.27329057833E+03  0.00000000000E+00 0.  1.
        -11    1    3    3    0    0 -0.33547129063E+03  0.16673447169E+03 -0.78231897669E+03  0.86738938902E+03  0.00000000000E+00 0. -1.
          4    1    6    6  502    0  0.28756333805E+03 -0.32465882066E+03 -0.11844590920E+04  0.12613640885E+04  0.00000000000E+00 0. -1.
          1    1    5    5  503    0  0.39415036868E+02  0.19149152267E+02  0.20765207794E+01  0.43869660386E+02  0.00000000000E+00 0. -1.
         -2    1    5    5    0  503 -0.29226322824E-01  0.95390815667E+02  0.74168265362E+02  0.12083186730E+03  0.00000000000E+00 0.  1.
         -1    1    6    6    0  502  0.98196373922E+02 -0.56484923598E+02 -0.27270171757E+03  0.29529527801E+03  0.00000000000E+00 0.  1.
<mgrwt>
<rscale>  0 0.15572610E+04</rscale>
<asrwt>0</asrwt>
<pdfrwt beam="1">  1        1 0.40487198E+00 0.15572610E+04</pdfrwt>
<pdfrwt beam="2">  1       -1 0.35442015E-01 0.15572610E+04</pdfrwt>
<totfact> 0.80327307E+00</totfact>
</mgrwt>
</event>
<event>
12    1  0.1472088E-007  0.3680131E+04  0.7818608E-02  0.8072379E-01
          2   -1    0    0  501    0  0.00000000000E+00  0.00000000000E+00  0.13164526705E+04  0.13164526705E+04  0.00000000000E+00 0. -1.
         -2   -1    0    0    0  501 -0.00000000000E+00 -0.00000000000E+00 -0.25719425049E+04  0.25719425049E+04  0.00000000000E+00 0.  1.
         23    2    1    2    0    0  0.32174349699E+03 -0.16328342837E+04 -0.71293780516E+02  0.16676368092E+04  0.79139423795E+02 0.  0.
        254    2    1    2    0    0 -0.32174349699E+03  0.16328342837E+04 -0.11841960539E+04  0.22207583662E+04  0.87165403174E+03 0.  0.
        -24    2    4    4    0    0  0.11138203058E+03  0.12349121886E+04 -0.10093713737E+04  0.16008058096E+04  0.79590197445E+02 0.  0.
         24    2    4    4    0    0 -0.43312552757E+03  0.39792209502E+03 -0.17482468019E+03  0.61995255658E+03  0.88531278484E+02 0.  0.
         11    1    3    3    0    0  0.21977877248E+03 -0.11958236874E+04 -0.83565428800E+02  0.12187207150E+04  0.00000000000E+00 0. -1.
        -11    1    3    3    0    0  0.10196472450E+03 -0.43701059627E+03  0.12271648284E+02  0.44891609422E+03  0.00000000000E+00 0.  1.
          2    1    6    6  502    0 -0.19407247008E+03  0.23682703588E+03 -0.10046754313E+03  0.32224974134E+03  0.00000000000E+00 0. -1.
          1    1    5    5  503    0  0.87721052014E+01  0.29536735824E+03 -0.27839843925E+03  0.40598585827E+03  0.00000000000E+00 0. -1.
         -2    1    5    5    0  503  0.10260992538E+03  0.93954483041E+03 -0.73097293445E+03  0.11948199513E+04  0.00000000000E+00 0.  1.
         -1    1    6    6    0  502 -0.23905305749E+03  0.16109505913E+03 -0.74357137061E+02  0.29770281524E+03  0.00000000000E+00 0.  1.
<mgrwt>
<rscale>  0 0.36801307E+04</rscale>
<asrwt>0</asrwt>
<pdfrwt beam="1">  1        2 0.20253118E+00 0.36801307E+04</pdfrwt>
<pdfrwt beam="2">  1       -2 0.39568346E+00 0.36801307E+04</pdfrwt>
<totfact> 0.10362860E-01</totfact>
</mgrwt>
</event>
<event>
12    1  0.1472088E-007  0.3079410E+04  0.7818608E-02  0.8221411E-01
         -2   -1    0    0    0  501 -0.00000000000E+00  0.00000000000E+00  0.10301558784E+04  0.10301558784E+04  0.00000000000E+00 0. -1.
          2   -1    0    0  501    0  0.00000000000E+00 -0.00000000000E+00 -0.23012943638E+04  0.23012943638E+04  0.00000000000E+00 0.  1.
         23    2    1    2    0    0  0.95404953392E+03  0.75847793673E+03  0.17812624372E+03  0.12352158739E+04  0.92358014148E+02 0.  0.
        254    2    1    2    0    0 -0.95404953392E+03 -0.75847793673E+03 -0.14492647291E+04  0.20962343683E+04  0.89907228750E+03 0.  0.
        -24    2    4    4    0    0 -0.10573577863E+04 -0.52525020351E+03 -0.13836680214E+04  0.18204650172E+04  0.75249058486E+02 0.  0.
         24    2    4    4    0    0  0.10330825237E+03 -0.23322773322E+03 -0.65596707658E+02  0.27576935109E+03  0.81719253510E+02 0.  0.
         13    1    3    3    0    0  0.65113341030E+02  0.56867950266E+02  0.36855853453E+02  0.93979066187E+02  0.00000000000E+00 0.  1.
        -13    1    3    3    0    0  0.88893619289E+03  0.70160998646E+03  0.14127039027E+03  0.11412368077E+04  0.00000000000E+00 0. -1.
          2    1    6    6  502    0  0.27801029305E+02 -0.69128494543E+02 -0.58950719661E+02  0.95009648651E+02  0.00000000000E+00 0. -1.
          1    1    5    5  503    0 -0.30431653095E+03 -0.17957185734E+03 -0.44991662990E+03  0.57208354007E+03  0.00000000000E+00 0. -1.
         -2    1    5    5    0  503 -0.75304125535E+03 -0.34567834617E+03 -0.93375139151E+03  0.12483814771E+04  0.00000000000E+00 0.  1.
         -1    1    6    6    0  502  0.75507223069E+02 -0.16409923868E+03 -0.66459879973E+01  0.18075970244E+03  0.00000000000E+00 0.  1.
<mgrwt>
<rscale>  0 0.30794103E+04</rscale>
<asrwt>0</asrwt>
<pdfrwt beam="1">  1        2 0.35404529E+00 0.30794103E+04</pdfrwt>
<pdfrwt beam="2">  1       -2 0.15848552E+00 0.30794103E+04</pdfrwt>
<totfact> 0.99491001E-01</totfact>
</mgrwt>
</event>
<event>
12    1  0.1472088E-007  0.1711160E+04  0.7818608E-02  0.8755025E-01
          2   -1    0    0  501    0  0.00000000000E+00  0.00000000000E+00  0.56066020990E+03  0.56066020990E+03  0.00000000000E+00 0. -1.
         -2   -1    0    0    0  501 -0.00000000000E+00 -0.00000000000E+00 -0.13056345089E+04  0.13056345089E+04  0.00000000000E+00 0.  1.
         23    2    1    2    0    0 -0.13687499437E+03 -0.12870262950E+03 -0.89986780643E+03  0.92310769468E+03  0.84063166814E+02 0.  0.
        254    2    1    2    0    0  0.13687499437E+03  0.12870262950E+03  0.15489350746E+03  0.94318702408E+03  0.91121382387E+03 0.  0.
        -24    2    4    4    0    0 -0.80094667234E+02 -0.36642270943E+03  0.71898892914E+02  0.39032891080E+03  0.80662569373E+02 0.  0.
         24    2    4    4    0    0  0.21696966161E+03  0.49512533893E+03  0.82994614548E+02  0.55285811328E+03  0.80864405449E+02 0.  0.
         13    1    3    3    0    0 -0.47204388596E+02  0.15287880983E+01 -0.18148060185E+03  0.18752546586E+03  0.00000000000E+00 0. -1.
        -13    1    3    3    0    0 -0.89670605776E+02 -0.13023141760E+03 -0.71838720457E+03  0.73558222882E+03  0.00000000000E+00 0.  1.
          4    1    6    6  502    0  0.17254314749E+03  0.30396758053E+03  0.67610504407E+02  0.35600366300E+03  0.00000000000E+00 0. -1.
          1    1    5    5  503    0 -0.77066655378E+02 -0.21773975025E+03  0.70896878480E+02  0.24161174555E+03  0.00000000000E+00 0. -1.
         -2    1    5    5    0  503 -0.30280118559E+01 -0.14868295918E+03  0.10020144340E+01  0.14871716525E+03  0.00000000000E+00 0.  1.
         -3    1    6    6    0  502  0.44426514115E+02  0.19115775840E+03  0.15384110141E+02  0.19685445028E+03  0.00000000000E+00 0.  1.
<mgrwt>
<rscale>  0 0.17111602E+04</rscale>
<asrwt>0</asrwt>
<pdfrwt beam="1">  1        2 0.86255417E-01 0.17111602E+04</pdfrwt>
<pdfrwt beam="2">  1       -2 0.20086685E+00 0.17111602E+04</pdfrwt>
<totfact> 0.67092197E+00</totfact>
</mgrwt>
</event>
<event>
12    1  0.1472088E-007  0.1638789E+04  0.7818608E-02  0.8797066E-01
          1   -1    0    0  501    0  0.00000000000E+00  0.00000000000E+00  0.64131824312E+03  0.64131824312E+03  0.00000000000E+00 0. -1.
         -1   -1    0    0    0  501 -0.00000000000E+00 -0.00000000000E+00 -0.10469182237E+04  0.10469182237E+04  0.00000000000E+00 0.  1.
         23    2    1    2    0    0  0.16914689645E+03  0.17907159536E+03  0.37285655149E+03  0.45594506975E+03  0.90479775630E+02 0.  0.
        254    2    1    2    0    0 -0.16914689645E+03 -0.17907159536E+03 -0.77845653211E+03  0.12322913971E+04  0.92296815015E+03 0.  0.
        -24    2    4    4    0    0  0.20455175027E+03 -0.43716476227E+03 -0.33833717829E+03  0.59475463150E+03  0.79413963285E+02 0.  0.
         24    2    4    4    0    0 -0.37369864672E+03  0.25809316691E+03 -0.44011935382E+03  0.63753676562E+03  0.80531487941E+02 0.  0.
         11    1    3    3    0    0  0.10201917672E+03  0.15836118002E+03  0.30361629048E+03  0.35730802901E+03  0.00000000000E+00 0. -1.
        -11    1    3    3    0    0  0.67127719732E+02  0.20710415339E+02  0.69240261011E+02  0.98637040734E+02  0.00000000000E+00 0.  1.
          4    1    6    6  502    0 -0.10453018609E+03  0.60450728713E+02 -0.16729161572E+03  0.20631852824E+03  0.00000000000E+00 0. -1.
          1    1    5    5  503    0  0.76782839130E+02 -0.20524308089E+03 -0.11040859608E+03  0.24537804451E+03  0.00000000000E+00 0. -1.
         -2    1    5    5    0  503  0.12776891114E+03 -0.23192168138E+03 -0.22792858221E+03  0.34937658699E+03  0.00000000000E+00 0.  1.
         -3    1    6    6    0  502 -0.26916846063E+03  0.19764243820E+03 -0.27282773810E+03  0.43121823738E+03  0.00000000000E+00 0.  1.
<mgrwt>
<rscale>  0 0.16387895E+04</rscale>
<asrwt>0</asrwt>
<pdfrwt beam="1">  1        1 0.98664345E-01 0.16387895E+04</pdfrwt>
<pdfrwt beam="2">  1       -1 0.16106434E+00 0.16387895E+04</pdfrwt>
<totfact> 0.85247131E+00</totfact>
</mgrwt>
</event>
<event>
12    1  0.1472088E-007  0.1471705E+04  0.7818608E-02  0.8903490E-01
          1   -1    0    0  501    0  0.00000000000E+00  0.00000000000E+00  0.17138485534E+04  0.17138485534E+04  0.00000000000E+00 0. -1.
         -1   -1    0    0    0  501 -0.00000000000E+00 -0.00000000000E+00 -0.31594336660E+03  0.31594336660E+03  0.00000000000E+00 0.  1.
         23    2    1    2    0    0 -0.15648681440E+03  0.31281627241E+03  0.29029636701E+02  0.36340787221E+03  0.94235971973E+02 0.  0.
        254    2    1    2    0    0  0.15648681440E+03 -0.31281627241E+03  0.13688755501E+04  0.16663840478E+04  0.88355723057E+03 0.  0.
        -24    2    4    4    0    0  0.15428667413E+03 -0.60643128864E+03  0.77516408537E+03  0.99926253483E+03  0.77993388339E+02 0.  0.
         24    2    4    4    0    0  0.22001402715E+01  0.29361501623E+03  0.59371146473E+03  0.66712151294E+03  0.79644154265E+02 0.  0.
         11    1    3    3    0    0 -0.14361366935E+02 -0.37250461444E+01  0.47363677987E+01  0.15574273946E+02  0.00000000000E+00 0. -1.
        -11    1    3    3    0    0 -0.14212544747E+03  0.31654131855E+03  0.24293268903E+02  0.34783359826E+03  0.00000000000E+00 0.  1.
          2    1    6    6  502    0  0.33522239255E+02  0.22673502253E+03  0.47310651258E+03  0.52570170555E+03  0.00000000000E+00 0. -1.
          3    1    5    5  503    0  0.15759372902E+03 -0.60551312691E+03  0.77467958442E+03  0.99579635910E+03  0.00000000000E+00 0. -1.
         -4    1    5    5    0  503 -0.33070548939E+01 -0.91816173310E+00  0.48450094764E+00  0.34661757324E+01  0.00000000000E+00 0.  1.
         -1    1    6    6    0  502 -0.31322098984E+02  0.66879993701E+02  0.12060495215E+03  0.14141980740E+03  0.00000000000E+00 0.  1.
<mgrwt>
<rscale>  0 0.14717052E+04</rscale>
<asrwt>0</asrwt>
<pdfrwt beam="1">  1        1 0.26366900E+00 0.14717052E+04</pdfrwt>
<pdfrwt beam="2">  1       -1 0.48606673E-01 0.14717052E+04</pdfrwt>
<totfact> 0.19152488E+01</totfact>
</mgrwt>
</event>
<event>
12    1  0.1472088E-007  0.2084227E+04  0.7818608E-02  0.8568224E-01
          1   -1    0    0  501    0  0.00000000000E+00  0.00000000000E+00  0.79124593683E+03  0.79124593683E+03  0.00000000000E+00 0. -1.
         -1   -1    0    0    0  501 -0.00000000000E+00 -0.00000000000E+00 -0.13725190137E+04  0.13725190137E+04  0.00000000000E+00 0.  1.
         23    2    1    2    0    0 -0.84661005857E+03  0.17970388187E+02 -0.23426873841E+03  0.88327847355E+03  0.90705534047E+02 0.  0.
        254    2    1    2    0    0  0.84661005857E+03 -0.17970388187E+02 -0.34700433845E+03  0.12804864770E+04  0.89563501532E+03 0.  0.
        -24    2    4    4    0    0  0.16897932425E+03 -0.39124980534E+03 -0.23748545774E+03  0.49443374296E+03  0.80218210723E+02 0.  0.
         24    2    4    4    0    0  0.67763073432E+03  0.37327941716E+03 -0.10951888070E+03  0.78605273401E+03  0.85811304885E+02 0.  0.
         13    1    3    3    0    0 -0.54814865068E+03  0.28231243377E+02 -0.19291833763E+03  0.58179157035E+03  0.00000000000E+00 0. -1.
        -13    1    3    3    0    0 -0.29846140789E+03 -0.10260855190E+02 -0.41350400784E+02  0.30148690319E+03  0.00000000000E+00 0.  1.
          4    1    6    6  502    0  0.44751829880E+02  0.31058202949E+01 -0.11769364456E+02  0.46377692234E+02  0.00000000000E+00 0. -1.
          1    1    5    5  503    0  0.18119382818E+02 -0.96724467178E+02 -0.85181580642E+02  0.13015312622E+03  0.00000000000E+00 0. -1.
         -2    1    5    5    0  503  0.15085994143E+03 -0.29452533817E+03 -0.15230387710E+03  0.36428061674E+03  0.00000000000E+00 0.  1.
         -3    1    6    6    0  502  0.63287890444E+03  0.37017359686E+03 -0.97749516246E+02  0.73967504178E+03  0.00000000000E+00 0.  1.
<mgrwt>
<rscale>  0 0.20842266E+04</rscale>
<asrwt>0</asrwt>
<pdfrwt beam="1">  1        1 0.12173015E+00 0.20842266E+04</pdfrwt>
<pdfrwt beam="2">  1       -1 0.21115677E+00 0.20842266E+04</pdfrwt>
<totfact> 0.26162302E+00</totfact>
</mgrwt>
</event>
<event>
12    1  0.1472088E-007  0.2018183E+04  0.7818608E-02  0.8598166E-01
          2   -1    0    0  501    0  0.00000000000E+00  0.00000000000E+00  0.10005362920E+04  0.10005362920E+04  0.00000000000E+00 0.  1.
         -2   -1    0    0    0  501 -0.00000000000E+00 -0.00000000000E+00 -0.10177197523E+04  0.10177197523E+04  0.00000000000E+00 0. -1.
         23    2    1    2    0    0 -0.12678780172E+03 -0.20874654519E+03  0.76569075168E+03  0.80867474411E+03  0.89567001522E+02 0.  0.
        254    2    1    2    0    0  0.12678780172E+03  0.20874654519E+03 -0.78287421193E+03  0.12095813002E+04  0.88912576350E+03 0.  0.
        -24    2    4    4    0    0 -0.32963199875E+02 -0.30838887345E+03 -0.50036865306E+03  0.59395911461E+03  0.78920029481E+02 0.  0.
         24    2    4    4    0    0  0.15975100160E+03  0.51713541863E+03 -0.28250555886E+03  0.61562218559E+03  0.78942136323E+02 0.  0.
         13    1    3    3    0    0 -0.32437961462E+02 -0.76441967255E+01  0.57463424788E+02  0.66428158756E+02  0.00000000000E+00 0. -1.
        -13    1    3    3    0    0 -0.94349840259E+02 -0.20110234846E+03  0.70822732689E+03  0.74224658535E+03  0.00000000000E+00 0.  1.
          2    1    6    6  502    0  0.69639145459E+02  0.18827355420E+03 -0.14650777549E+03  0.24851774598E+03  0.00000000000E+00 0. -1.
          1    1    5    5  503    0 -0.52831533667E+02 -0.21286952119E+03 -0.30607610614E+03  0.37654639389E+03  0.00000000000E+00 0. -1.
         -2    1    5    5    0  503  0.19868333792E+02 -0.95519352256E+02 -0.19429254692E+03  0.21741272072E+03  0.00000000000E+00 0.  1.
         -3    1    6    6    0  502  0.90111856137E+02  0.32886186444E+03 -0.13599778338E+03  0.36710443961E+03  0.00000000000E+00 0.  1.
<mgrwt>
<rscale>  0 0.20181829E+04</rscale>
<asrwt>0</asrwt>
<pdfrwt beam="1">  1        2 0.15392866E+00 0.20181829E+04</pdfrwt>
<pdfrwt beam="2">  1       -2 0.15657227E+00 0.20181829E+04</pdfrwt>
<totfact> 0.62366731E+00</totfact>
</mgrwt>
</event>
<event>
12    1  0.1472088E-007  0.1350000E+04  0.7818608E-02  0.8990828E-01
         -2   -1    0    0    0  501 -0.00000000000E+00  0.00000000000E+00  0.58766533338E+03  0.58766533338E+03  0.00000000000E+00 0.  1.
          2   -1    0    0  501    0  0.00000000000E+00 -0.00000000000E+00 -0.77531371791E+03  0.77531371791E+03  0.00000000000E+00 0. -1.
         23    2    1    2    0    0 -0.24237556667E+03 -0.26939989652E+03 -0.14933500381E+03  0.40230865399E+03  0.90714332642E+02 0.  0.
        254    2    1    2    0    0  0.24237556667E+03  0.26939989652E+03 -0.38313380715E+02  0.96067039730E+03  0.88887427544E+03 0.  0.
        -24    2    4    4    0    0 -0.14119360712E+03 -0.23018151577E+03  0.12059606139E+03  0.30633098741E+03  0.79850478574E+02 0.  0.
         24    2    4    4    0    0  0.38356917379E+03  0.49958141230E+03 -0.15890944210E+03  0.65433940989E+03  0.78746136059E+02 0.  0.
         11    1    3    3    0    0 -0.37696007132E+02 -0.55581749590E+02 -0.67483252200E+02  0.95206665569E+02  0.00000000000E+00 0. -1.
        -11    1    3    3    0    0 -0.20467955954E+03 -0.21381814693E+03 -0.81851751610E+02  0.30710198842E+03  0.00000000000E+00 0.  1.
          4    1    6    6  502    0  0.19548512598E+03  0.21311890174E+03 -0.10372650334E+03  0.30723490728E+03  0.00000000000E+00 0. -1.
          1    1    5    5  503    0 -0.13340942648E+02 -0.60087246664E+02 -0.39373368828E+00  0.61551709875E+02  0.00000000000E+00 0. -1.
         -2    1    5    5    0  503 -0.12785266448E+03 -0.17009426911E+03  0.12098979507E+03  0.24477927753E+03  0.00000000000E+00 0.  1.
         -3    1    6    6    0  502  0.18808404781E+03  0.28646251056E+03 -0.55182938762E+02  0.34710450260E+03  0.00000000000E+00 0.  1.
<mgrwt>
<rscale>  0 0.13500000E+04</rscale>
<asrwt>0</asrwt>
<pdfrwt beam="1">  1        2 0.11927903E+00 0.13500000E+04</pdfrwt>
<pdfrwt beam="2">  1       -2 0.90410051E-01 0.13500000E+04</pdfrwt>
<totfact> 0.36690696E+01</totfact>
</mgrwt>
</event>
<event>
12    1  0.1472088E-007  0.1456681E+04  0.7818608E-02  0.8913782E-01
         -2   -1    0    0    0  501 -0.00000000000E+00  0.00000000000E+00  0.25031109167E+03  0.25031109167E+03  0.00000000000E+00 0.  1.
          2   -1    0    0  501    0  0.00000000000E+00 -0.00000000000E+00 -0.21192832048E+04  0.21192832048E+04  0.00000000000E+00 0. -1.
         23    2    1    2    0    0  0.35639197858E+03  0.52824286772E+02 -0.14818223316E+03  0.40004975249E+03  0.90973526779E+02 0.  0.
        254    2    1    2    0    0 -0.35639197858E+03 -0.52824286772E+02 -0.17207898800E+04  0.19695445440E+04  0.88779628975E+03 0.  0.
        -24    2    4    4    0    0 -0.18860048424E+03 -0.10599386530E+03  0.69232398204E+01  0.23065678314E+03  0.79685495674E+02 0.  0.
         24    2    4    4    0    0 -0.16779149434E+03  0.53169578529E+02 -0.17277131198E+04  0.17388877609E+04  0.88074008092E+02 0.  0.
         13    1    3    3    0    0  0.28106096642E+03  0.27239112030E+02 -0.75515560090E+02  0.29230093378E+03  0.00000000000E+00 0.  1.
        -13    1    3    3    0    0  0.75331012155E+02  0.25585174742E+02 -0.72666673071E+02  0.10774881871E+03  0.00000000000E+00 0. -1.
          4    1    6    6  502    0 -0.13348593273E+03  0.39679559705E+00 -0.11217839159E+04  0.11296981038E+04  0.00000000000E+00 0. -1.
          1    1    5    5  503    0  0.17779147508E+00  0.11468118863E+00 -0.13169499895E+02  0.13171199226E+02  0.00000000000E+00 0. -1.
         -2    1    5    5    0  503 -0.18877827571E+03 -0.10610854649E+03  0.20092739715E+02  0.21748558391E+03  0.00000000000E+00 0.  1.
         -3    1    6    6    0  502 -0.34305561617E+02  0.52772782932E+02 -0.60592920389E+03  0.60918965709E+03  0.00000000000E+00 0.  1.
<mgrwt>
<rscale>  0 0.14566813E+04</rscale>
<asrwt>0</asrwt>
<pdfrwt beam="1">  1        2 0.32604356E+00 0.14566813E+04</pdfrwt>
<pdfrwt beam="2">  1       -2 0.38509400E-01 0.14566813E+04</pdfrwt>
<totfact> 0.35421154E+01</totfact>
</mgrwt>
</event>
<event>
12    1  0.1472088E-007  0.2019027E+04  0.7818608E-02  0.8597776E-01
          2   -1    0    0  501    0  0.00000000000E+00  0.00000000000E+00  0.30664838037E+04  0.30664838037E+04  0.00000000000E+00 0.  1.
         -2   -1    0    0    0  501 -0.00000000000E+00 -0.00000000000E+00 -0.33234075942E+03  0.33234075942E+03  0.00000000000E+00 0. -1.
         23    2    1    2    0    0  0.65865956276E+03 -0.10005170397E+03  0.17939992146E+04  0.19158700861E+04  0.91006822711E+02 0.  0.
        254    2    1    2    0    0 -0.65865956276E+03  0.10005170397E+03  0.94014382968E+03  0.14829544770E+04  0.93350993425E+03 0.  0.
        -24    2    4    4    0    0 -0.75416080754E+03 -0.64073459191E+02  0.31333344217E+03  0.82314035095E+03  0.80735739146E+02 0.  0.
         24    2    4    4    0    0  0.95501244788E+02  0.16412516316E+03  0.62681038751E+03  0.65981412607E+03  0.80036629916E+02 0.  0.
         13    1    3    3    0    0  0.51948799193E+03 -0.45239962607E+02  0.13411224213E+04  0.14389314705E+04  0.00000000000E+00 0.  1.
        -13    1    3    3    0    0  0.13917157082E+03 -0.54811741359E+02  0.45287679326E+03  0.47693861554E+03  0.00000000000E+00 0. -1.
          2    1    6    6  502    0  0.40705011186E+02  0.22834351684E+02  0.23761783572E+03  0.24215809176E+03  0.00000000000E+00 0. -1.
          1    1    5    5  503    0 -0.53238182261E+03 -0.38195264486E+02  0.18109194465E+03  0.56363425703E+03  0.00000000000E+00 0. -1.
         -2    1    5    5    0  503 -0.22177898493E+03 -0.25878194705E+02  0.13224149751E+03  0.25950609392E+03  0.00000000000E+00 0.  1.
         -1    1    6    6    0  502  0.54796233602E+02  0.14129081147E+03  0.38919255179E+03  0.41765603431E+03  0.00000000000E+00 0.  1.
<mgrwt>
<rscale>  0 0.20190270E+04</rscale>
<asrwt>0</asrwt>
<pdfrwt beam="1">  1        2 0.47176672E+00 0.20190270E+04</pdfrwt>
<pdfrwt beam="2">  1       -2 0.51129350E-01 0.20190270E+04</pdfrwt>
<totfact> 0.53148329E+00</totfact>
</mgrwt>
</event>
<event>
12    1  0.1472088E-007  0.1656403E+04  0.7818608E-02  0.8786627E-01
          2   -1    0    0  501    0  0.00000000000E+00  0.00000000000E+00  0.17830220529E+04  0.17830220529E+04  0.00000000000E+00 0. -1.
         -2   -1    0    0    0  501 -0.00000000000E+00 -0.00000000000E+00 -0.38469404163E+03  0.38469404163E+03  0.00000000000E+00 0.  1.
         23    2    1    2    0    0 -0.35393483181E+03 -0.36214281901E+03  0.12485985953E+03  0.52989251102E+03  0.93695262320E+02 0.  0.
        254    2    1    2    0    0  0.35393483181E+03  0.36214281901E+03  0.12734681518E+04  0.16378235835E+04  0.89684316951E+03 0.  0.
        -24    2    4    4    0    0 -0.20780434475E+03 -0.10119416492E+03  0.12286921268E+03  0.27385017360E+03  0.80462223724E+02 0.  0.
         24    2    4    4    0    0  0.56173917656E+03  0.46333698393E+03  0.11505989391E+04  0.13639734099E+04  0.79457417586E+02 0.  0.
         13    1    3    3    0    0 -0.78352809344E+02 -0.83797677700E+02  0.69965484360E+02  0.13437403961E+03  0.00000000000E+00 0. -1.
        -13    1    3    3    0    0 -0.27558202246E+03 -0.27834514131E+03  0.54894375173E+02  0.39551847140E+03  0.00000000000E+00 0.  1.
          4    1    6    6  502    0  0.15738645692E+03  0.12447389997E+03  0.38579409279E+03  0.43485782806E+03  0.00000000000E+00 0. -1.
          1    1    5    5  503    0 -0.77778000610E+02 -0.48312969257E+02  0.69864145852E+01  0.91827938919E+02  0.00000000000E+00 0. -1.
         -2    1    5    5    0  503 -0.13002634414E+03 -0.52881195660E+02  0.11588279809E+03  0.18202223468E+03  0.00000000000E+00 0.  1.
         -3    1    6    6    0  502  0.40435271964E+03  0.33886308396E+03  0.76480484630E+03  0.92911558187E+03  0.00000000000E+00 0.  1.
<mgrwt>
<rscale>  0 0.16564033E+04</rscale>
<asrwt>0</asrwt>
<pdfrwt beam="1">  1        2 0.27431108E+00 0.16564033E+04</pdfrwt>
<pdfrwt beam="2">  1       -2 0.59183700E-01 0.16564033E+04</pdfrwt>
<totfact> 0.22444678E+01</totfact>
</mgrwt>
</event>
<event>
12    1  0.1472088E-007  0.2029408E+04  0.7818608E-02  0.8592994E-01
         -1   -1    0    0    0  501 -0.00000000000E+00  0.00000000000E+00  0.71364985202E+03  0.71364985202E+03  0.00000000000E+00 0.  1.
          1   -1    0    0  501    0  0.00000000000E+00 -0.00000000000E+00 -0.14427575883E+04  0.14427575883E+04  0.00000000000E+00 0. -1.
         23    2    1    2    0    0 -0.63808915398E+03  0.12129664612E+03  0.22979153088E+03  0.69494746181E+03  0.90979020845E+02 0.  0.
        254    2    1    2    0    0  0.63808915398E+03 -0.12129664612E+03 -0.95889926719E+03  0.14614599785E+04  0.89135112020E+03 0.  0.
        -24    2    4    4    0    0 -0.17481018348E+03 -0.77230897452E+02 -0.71337629180E+01  0.20701236784E+03  0.79246565189E+02 0.  0.
         24    2    4    4    0    0  0.81289933746E+03 -0.44065748667E+02 -0.95176550427E+03  0.12544476107E+04  0.70951461199E+02 0.  0.
         11    1    3    3    0    0 -0.32836509518E+03  0.78582800348E+02  0.74103380434E+02  0.34567355009E+03  0.00000000000E+00 0. -1.
        -11    1    3    3    0    0 -0.30972405880E+03  0.42713845771E+02  0.15568815045E+03  0.34927391172E+03  0.00000000000E+00 0.  1.
          2    1    6    6  502    0  0.42545731691E+02 -0.18458392396E+02 -0.56192048493E+02  0.72858752726E+02  0.00000000000E+00 0. -1.
          3    1    5    5  503    0 -0.11684172376E+02 -0.36676671835E+02  0.30443873986E+01  0.38613034530E+02  0.00000000000E+00 0. -1.
         -4    1    5    5    0  503 -0.16312601110E+03 -0.40554225617E+02 -0.10178150317E+02  0.16839933331E+03  0.00000000000E+00 0.  1.
         -1    1    6    6    0  502  0.77035360577E+03 -0.25607356271E+02 -0.89557345578E+03  0.11815888580E+04  0.00000000000E+00 0.  1.
<mgrwt>
<rscale>  0 0.20294075E+04</rscale>
<asrwt>0</asrwt>
<pdfrwt beam="1">  1        1 0.22196270E+00 0.20294075E+04</pdfrwt>
<pdfrwt beam="2">  1       -1 0.10979229E+00 0.20294075E+04</pdfrwt>
<totfact> 0.50863130E+00</totfact>
</mgrwt>
</event>
<event>
12    1  0.1472088E-007  0.1687470E+04  0.7818608E-02  0.8768543E-01
         -1   -1    0    0    0  501 -0.00000000000E+00  0.00000000000E+00  0.26673539933E+03  0.26673539933E+03  0.00000000000E+00 0.  1.
          1   -1    0    0  501    0  0.00000000000E+00 -0.00000000000E+00 -0.26688953854E+04  0.26688953854E+04  0.00000000000E+00 0. -1.
         23    2    1    2    0    0  0.26011153414E+03 -0.23082204035E+03 -0.15978537210E+04  0.16380278084E+04  0.95193292421E+02 0.  0.
        254    2    1    2    0    0 -0.26011153414E+03  0.23082204035E+03 -0.80430626511E+03  0.12976029764E+04  0.95704132180E+03 0.  0.
        -24    2    4    4    0    0  0.28693969980E+03  0.15096068649E+03 -0.62901885232E+03  0.71212154640E+03  0.79554133101E+02 0.  0.
         24    2    4    4    0    0 -0.54705123394E+03  0.79861353857E+02 -0.17528741279E+03  0.58548142995E+03  0.80124523915E+02 0.  0.
         13    1    3    3    0    0  0.43479702889E+02 -0.50984360180E+02 -0.50772421411E+03  0.51212671005E+03  0.00000000000E+00 0.  1.
        -13    1    3    3    0    0  0.21663183125E+03 -0.17983768017E+03 -0.10901295068E+04  0.11259010983E+04  0.00000000000E+00 0. -1.
          4    1    6    6  502    0 -0.37069574589E+03  0.18038943112E+02 -0.12947137352E+03  0.39306942905E+03  0.00000000000E+00 0. -1.
          3    1    5    5  503    0  0.22893950388E+03  0.15054185422E+03 -0.48838763132E+03  0.55999877209E+03  0.00000000000E+00 0. -1.
         -4    1    5    5    0  503  0.58000195916E+02  0.41883226974E+00 -0.14063122100E+03  0.15212277432E+03  0.00000000000E+00 0.  1.
         -3    1    6    6    0  502 -0.17635548805E+03  0.61822410745E+02 -0.45816039277E+02  0.19241200090E+03  0.00000000000E+00 0.  1.
<mgrwt>
<rscale>  0 0.16874701E+04</rscale>
<asrwt>0</asrwt>
<pdfrwt beam="1">  1        1 0.41059932E+00 0.16874701E+04</pdfrwt>
<pdfrwt beam="2">  1       -1 0.41036213E-01 0.16874701E+04</pdfrwt>
<totfact> 0.57274921E+00</totfact>
</mgrwt>
</event>
<event>
12    1  0.1472088E-007  0.1504978E+04  0.7818608E-02  0.8881149E-01
          2   -1    0    0  501    0  0.00000000000E+00  0.00000000000E+00  0.17843990421E+04  0.17843990421E+04  0.00000000000E+00 0. -1.
         -2   -1    0    0    0  501 -0.00000000000E+00 -0.00000000000E+00 -0.31732808875E+03  0.31732808875E+03  0.00000000000E+00 0.  1.
         23    2    1    2    0    0  0.21943255664E+02 -0.40236751634E+03  0.84288369705E+03  0.93875144199E+03  0.91761748101E+02 0.  0.
        254    2    1    2    0    0 -0.21943255664E+02  0.40236751634E+03  0.62418725635E+03  0.11629756889E+04  0.89471872525E+03 0.  0.
        -24    2    4    4    0    0  0.26923089928E+03 -0.74511266666E+02  0.51099130342E+03  0.58754820017E+03  0.77868924268E+02 0.  0.
         24    2    4    4    0    0 -0.29117415494E+03  0.47687878301E+03  0.11319595292E+03  0.57542748873E+03  0.78151831948E+02 0.  0.
         11    1    3    3    0    0 -0.28018737857E+02 -0.95200771237E+02  0.25392818135E+03  0.27263117539E+03  0.00000000000E+00 0. -1.
        -11    1    3    3    0    0  0.49961993520E+02 -0.30716674511E+03  0.58895551570E+03  0.66612026660E+03  0.00000000000E+00 0.  1.
          4    1    6    6  502    0 -0.23493021801E+03  0.42190584810E+03  0.77599725324E+02  0.48909965178E+03  0.00000000000E+00 0. -1.
          1    1    5    5  503    0  0.23887882831E+03 -0.67078352525E+02  0.49188637714E+03  0.55092178030E+03  0.00000000000E+00 0. -1.
         -2    1    5    5    0  503  0.30352070965E+02 -0.74329141411E+01  0.19104926286E+02  0.36626419875E+02  0.00000000000E+00 0.  1.
         -3    1    6    6    0  502 -0.56243936930E+02  0.54972934911E+02  0.35596227601E+02  0.86327836956E+02  0.00000000000E+00 0.  1.
<mgrwt>
<rscale>  0 0.15049783E+04</rscale>
<asrwt>0</asrwt>
<pdfrwt beam="1">  1        2 0.27452292E+00 0.15049783E+04</pdfrwt>
<pdfrwt beam="2">  1       -2 0.48819707E-01 0.15049783E+04</pdfrwt>
<totfact> 0.33777177E+01</totfact>
</mgrwt>
</event>
<event>
12    1  0.1472088E-007  0.1255500E+04  0.7818608E-02  0.9065618E-01
          1   -1    0    0  501    0  0.00000000000E+00  0.00000000000E+00  0.52844575334E+03  0.52844575334E+03  0.00000000000E+00 0. -1.
         -1   -1    0    0    0  501 -0.00000000000E+00 -0.00000000000E+00 -0.74571495738E+03  0.74571495738E+03  0.00000000000E+00 0.  1.
         23    2    1    2    0    0 -0.75305795675E+02 -0.16140721379E+03 -0.31423205941E+03  0.37267127299E+03  0.91754231647E+02 0.  0.
        254    2    1    2    0    0  0.75305795675E+02  0.16140721379E+03  0.96962855363E+02  0.90148943773E+03  0.87838383381E+03 0.  0.
        -24    2    4    4    0    0  0.86807979707E+02  0.13456636398E+03  0.47934865265E+03  0.51154826102E+03  0.79137607343E+02 0.  0.
         24    2    4    4    0    0 -0.11502184032E+02  0.26840849807E+02 -0.38238579729E+03  0.38994117671E+03  0.70586768375E+02 0.  0.
         13    1    3    3    0    0 -0.28708892032E+02 -0.13736324248E+03 -0.26908216418E+03  0.30347664151E+03  0.00000000000E+00 0.  1.
        -13    1    3    3    0    0 -0.46596903644E+02 -0.24043971311E+02 -0.45149895231E+02  0.69194631475E+02  0.00000000000E+00 0. -1.
          2    1    6    6  502    0 -0.21020304459E+02  0.43580515840E+02 -0.17200154826E+03  0.17867749485E+03  0.00000000000E+00 0. -1.
          3    1    5    5  503    0  0.89587149517E+02  0.81394203865E+02  0.27659618279E+03  0.30192105278E+03  0.00000000000E+00 0. -1.
         -4    1    5    5    0  503 -0.27791698093E+01  0.53172160115E+02  0.20275246987E+03  0.20962720824E+03  0.00000000000E+00 0.  1.
         -1    1    6    6    0  502  0.95181204267E+01 -0.16739666033E+02 -0.21038424903E+03  0.21126368187E+03  0.00000000000E+00 0.  1.
<mgrwt>
<rscale>  0 0.12554997E+04</rscale>
<asrwt>0</asrwt>
<pdfrwt beam="1">  1        1 0.81299346E-01 0.12554997E+04</pdfrwt>
<pdfrwt beam="2">  1       -1 0.11472538E+00 0.12554997E+04</pdfrwt>
<totfact> 0.27939017E+01</totfact>
</mgrwt>
</event>
<event>
12    1  0.1472088E-007  0.1983822E+04  0.7818608E-02  0.8614222E-01
          2   -1    0    0  501    0  0.00000000000E+00  0.00000000000E+00  0.15679748673E+04  0.15679748673E+04  0.00000000000E+00 0. -1.
         -2   -1    0    0    0  501 -0.00000000000E+00 -0.00000000000E+00 -0.62748898170E+03  0.62748898170E+03  0.00000000000E+00 0.  1.
         23    2    1    2    0    0 -0.52799567491E+03  0.11199597907E+03  0.10034056487E+04  0.11430168152E+04  0.91334615543E+02 0.  0.
        254    2    1    2    0    0  0.52799567491E+03 -0.11199597907E+03 -0.62919763016E+02  0.10524470338E+04  0.90131200503E+03 0.  0.
        -24    2    4    4    0    0  0.47134725072E+03  0.33142876032E+03 -0.12329901930E+03  0.59471641615E+03  0.80446961058E+02 0.  0.
         24    2    4    4    0    0  0.56648424187E+02 -0.44342473940E+03  0.60379256287E+02  0.45773061770E+03  0.77698908068E+02 0.  0.
         11    1    3    3    0    0 -0.26102722761E+03  0.30175700147E+02  0.56699408314E+03  0.62492245659E+03  0.00000000000E+00 0. -1.
        -11    1    3    3    0    0 -0.26696844730E+03  0.81820278925E+02  0.43641156552E+03  0.51809435860E+03  0.00000000000E+00 0.  1.
          2    1    6    6  502    0  0.69336037414E+02 -0.34248955890E+03  0.66933525129E+02  0.35579022025E+03  0.00000000000E+00 0. -1.
          3    1    5    5  503    0  0.33678238235E+03  0.26544604154E+03 -0.64120306185E+02  0.43358434900E+03  0.00000000000E+00 0. -1.
         -4    1    5    5    0  503  0.13456486837E+03  0.65982718781E+02 -0.59178713118E+02  0.16113206715E+03  0.00000000000E+00 0.  1.
         -1    1    6    6    0  502 -0.12687613227E+02 -0.10093518050E+03 -0.65542688420E+01  0.10194039745E+03  0.00000000000E+00 0.  1.
<mgrwt>
<rscale>  0 0.19838215E+04</rscale>
<asrwt>0</asrwt>
<pdfrwt beam="1">  1        2 0.24122690E+00 0.19838215E+04</pdfrwt>
<pdfrwt beam="2">  1       -2 0.96536767E-01 0.19838215E+04</pdfrwt>
<totfact> 0.97058467E+00</totfact>
</mgrwt>
</event>
<event>
12    1  0.1472088E-007  0.1423934E+04  0.7818608E-02  0.8936674E-01
         -2   -1    0    0    0  501 -0.00000000000E+00  0.00000000000E+00  0.42754059176E+03  0.42754059176E+03  0.00000000000E+00 0. -1.
          2   -1    0    0  501    0  0.00000000000E+00 -0.00000000000E+00 -0.11856114288E+04  0.11856114288E+04  0.00000000000E+00 0.  1.
         23    2    1    2    0    0 -0.50935352473E+02 -0.38240020947E+03 -0.18883198881E+02  0.39294087875E+03  0.72260837640E+02 0.  0.
        254    2    1    2    0    0  0.50935352473E+02  0.38240020947E+03 -0.73918763820E+03  0.12202111419E+04  0.89089423385E+03 0.  0.
        -24    2    4    4    0    0  0.33444031133E+03  0.38641172051E+01 -0.58837277709E+01  0.34398161800E+03  0.80146628274E+02 0.  0.
         24    2    4    4    0    0 -0.28350495886E+03  0.37853609227E+03 -0.73330391043E+03  0.87622952386E+03  0.79868132464E+02 0.  0.
         13    1    3    3    0    0 -0.43266537127E+02 -0.37779649214E+03 -0.10092723139E+02  0.38039984985E+03  0.00000000000E+00 0. -1.
        -13    1    3    3    0    0 -0.76688153462E+01 -0.46037173380E+01 -0.87904757420E+01  0.12541028902E+02  0.00000000000E+00 0.  1.
          4    1    6    6  502    0 -0.21232173401E+03  0.27881754599E+03 -0.60246577487E+03  0.69698260564E+03  0.00000000000E+00 0. -1.
          1    1    5    5  503    0  0.23152722059E+03 -0.34140791864E+02 -0.93914962507E+01  0.23421923010E+03  0.00000000000E+00 0. -1.
         -2    1    5    5    0  503  0.10291309074E+03  0.38004909069E+02  0.35077684798E+01  0.10976238790E+03  0.00000000000E+00 0.  1.
         -3    1    6    6    0  502 -0.71183224853E+02  0.99718546277E+02 -0.13083813556E+03  0.17924691821E+03  0.00000000000E+00 0.  1.
<mgrwt>
<rscale>  0 0.14239340E+04</rscale>
<asrwt>0</asrwt>
<pdfrwt beam="1">  1        2 0.18240176E+00 0.14239340E+04</pdfrwt>
<pdfrwt beam="2">  1       -2 0.65775476E-01 0.14239340E+04</pdfrwt>
<totfact> 0.39952035E+01</totfact>
</mgrwt>
</event>
<event>
12    1  0.1472088E-007  0.1563010E+04  0.7818608E-02  0.8843600E-01
          1   -1    0    0  501    0  0.00000000000E+00  0.00000000000E+00  0.14102805351E+04  0.14102805351E+04  0.00000000000E+00 0. -1.
         -1   -1    0    0    0  501 -0.00000000000E+00 -0.00000000000E+00 -0.43306979540E+03  0.43306979540E+03  0.00000000000E+00 0.  1.
         23    2    1    2    0    0 -0.98197409822E+02  0.13958866197E+03  0.89983913681E+03  0.92048049682E+03  0.91902921826E+02 0.  0.
        254    2    1    2    0    0  0.98197409822E+02 -0.13958866197E+03  0.77371602913E+02  0.92286983370E+03  0.90364519540E+03 0.  0.
        -24    2    4    4    0    0 -0.31235387054E+03  0.17989741200E+03 -0.72577537611E+02  0.37615433054E+03  0.79350879838E+02 0.  0.
         24    2    4    4    0    0  0.41055128037E+03 -0.31948607397E+03  0.14994914052E+03  0.54671550315E+03  0.76088050114E+02 0.  0.
         11    1    3    3    0    0 -0.42472080263E+02  0.10165068353E+03  0.72079813981E+03  0.72916849727E+03  0.00000000000E+00 0. -1.
        -11    1    3    3    0    0 -0.55725329560E+02  0.37937978439E+02  0.17904099701E+03  0.19131199955E+03  0.00000000000E+00 0.  1.
          4    1    6    6  502    0  0.17890496411E+03 -0.13868876391E+03  0.10468377807E+03  0.24939978510E+03  0.00000000000E+00 0. -1.
          1    1    5    5  503    0 -0.81832857214E+02  0.88946762489E+02 -0.32118455932E+02  0.12505893926E+03  0.00000000000E+00 0. -1.
         -2    1    5    5    0  503 -0.23052101333E+03  0.90950649514E+02 -0.40459081679E+02  0.25109539129E+03  0.00000000000E+00 0.  1.
         -3    1    6    6    0  502  0.23164631626E+03 -0.18079731006E+03  0.45265362453E+02  0.29731571805E+03  0.00000000000E+00 0.  1.
<mgrwt>
<rscale>  0 0.15630098E+04</rscale>
<asrwt>0</asrwt>
<pdfrwt beam="1">  1        1 0.21696623E+00 0.15630098E+04</pdfrwt>
<pdfrwt beam="2">  1       -1 0.66626123E-01 0.15630098E+04</pdfrwt>
<totfact> 0.16598364E+01</totfact>
</mgrwt>
</event>
<event>
12    1  0.1571884E-007  0.1577368E+04  0.7818608E-02  0.8834573E-01
         -1   -1    0    0    0  501 -0.00000000000E+00  0.00000000000E+00  0.28399665293E+03  0.28399665293E+03  0.00000000000E+00 0.  1.
          1   -1    0    0  501    0  0.00000000000E+00 -0.00000000000E+00 -0.21902469537E+04  0.21902469537E+04  0.00000000000E+00 0. -1.
         23    2    1    2    0    0  0.32900840343E+03  0.16823279172E+03 -0.62313560744E+02  0.38630271200E+03  0.93797674309E+02 0.  0.
        254    2    1    2    0    0 -0.32900840343E+03 -0.16823279172E+03 -0.18439367400E+04  0.20879408947E+04  0.90710841501E+03 0.  0.
        -24    2    4    4    0    0 -0.17234352334E+03  0.31024119642E+03 -0.33290641388E+03  0.49328902796E+03  0.80966009624E+02 0.  0.
         24    2    4    4    0    0 -0.15666488009E+03 -0.47847398814E+03 -0.15110303262E+04  0.15946518667E+04  0.78871334392E+02 0.  0.
         11    1    3    3    0    0  0.29849898866E+03  0.15990301301E+03 -0.28227968135E+02  0.33980499994E+03  0.00000000000E+00 0.  1.
        -11    1    3    3    0    0  0.30509414772E+02  0.83297787150E+01 -0.34085592609E+02  0.46497712059E+02  0.00000000000E+00 0. -1.
          2    1    6    6  502    0 -0.42421283709E+01 -0.33424134685E+02 -0.54867184737E+02  0.64386150635E+02  0.00000000000E+00 0. -1.
          1    1    5    5  503    0 -0.40657910088E+02  0.29111873532E+02 -0.72594884952E+02  0.88150916923E+02  0.00000000000E+00 0. -1.
         -2    1    5    5    0  503 -0.13168561325E+03  0.28112932289E+03 -0.26031152892E+03  0.40513811104E+03  0.00000000000E+00 0.  1.
         -1    1    6    6    0  502 -0.15242275172E+03 -0.44504985346E+03 -0.14561631414E+04  0.15302657161E+04  0.00000000000E+00 0.  1.
<mgrwt>
<rscale>  0 0.15773684E+04</rscale>
<asrwt>0</asrwt>
<pdfrwt beam="1">  1        1 0.33696109E+00 0.15773684E+04</pdfrwt>
<pdfrwt beam="2">  1       -1 0.43691791E-01 0.15773684E+04</pdfrwt>
<totfact> 0.11014585E+01</totfact>
</mgrwt>
</event>
<event>
12    1  0.1472088E-007  0.1796961E+04  0.7818608E-02  0.8707917E-01
         -1   -1    0    0    0  501 -0.00000000000E+00  0.00000000000E+00  0.11645249971E+04  0.11645249971E+04  0.00000000000E+00 0.  1.
          1   -1    0    0  501    0  0.00000000000E+00 -0.00000000000E+00 -0.69321571584E+03  0.69321571584E+03  0.00000000000E+00 0. -1.
         23    2    1    2    0    0 -0.23588321348E+03  0.57947684238E+03  0.43052256130E+03  0.76483600997E+03  0.90499420501E+02 0.  0.
        254    2    1    2    0    0  0.23588321348E+03 -0.57947684238E+03  0.40786719944E+02  0.10929047029E+04  0.89517754213E+03 0.  0.
        -24    2    4    4    0    0 -0.72216464172E+02 -0.17538382051E+03  0.41051837704E+03  0.45932103961E+03  0.80472214734E+02 0.  0.
         24    2    4    4    0    0  0.30809967765E+03 -0.40409302187E+03 -0.36973165710E+03  0.63358366333E+03  0.80685677071E+02 0.  0.
         13    1    3    3    0    0 -0.22255835342E+03  0.53528205091E+03  0.42400222454E+03  0.71821792035E+03  0.00000000000E+00 0.  1.
        -13    1    3    3    0    0 -0.13324860060E+02  0.44194791464E+02  0.65203367623E+01  0.46618089618E+02  0.00000000000E+00 0. -1.
          2    1    6    6  502    0  0.29196904639E+03 -0.40389497640E+03 -0.35745216768E+03  0.61330997725E+03  0.00000000000E+00 0. -1.
          3    1    5    5  503    0 -0.62138317153E+02 -0.13605457791E+03  0.38045907145E+03  0.40880450545E+03  0.00000000000E+00 0. -1.
         -4    1    5    5    0  503 -0.10078147019E+02 -0.39329242600E+02  0.30059305598E+02  0.50516534163E+02  0.00000000000E+00 0.  1.
         -1    1    6    6    0  502  0.16130631260E+02 -0.19804546519E+00 -0.12279489426E+02  0.20273686084E+02  0.00000000000E+00 0.  1.
<mgrwt>
<rscale>  0 0.17969608E+04</rscale>
<asrwt>0</asrwt>
<pdfrwt beam="1">  1        1 0.10664857E+00 0.17969608E+04</pdfrwt>
<pdfrwt beam="2">  1       -1 0.17915769E+00 0.17969608E+04</pdfrwt>
<totfact> 0.55071245E+00</totfact>
</mgrwt>
</event>
<event>
12    1  0.1472088E-007  0.1415851E+04  0.7818608E-02  0.8942424E-01
         -2   -1    0    0    0  501 -0.00000000000E+00  0.00000000000E+00  0.22939797393E+03  0.22939797393E+03  0.00000000000E+00 0.  1.
          2   -1    0    0  501    0  0.00000000000E+00 -0.00000000000E+00 -0.21846672610E+04  0.21846672610E+04  0.00000000000E+00 0. -1.
         23    2    1    2    0    0  0.83015037370E+02  0.24666665183E+03 -0.30908733137E+02  0.27644328803E+03  0.87918190130E+02 0.  0.
        254    2    1    2    0    0 -0.83015037370E+02 -0.24666665183E+03 -0.19243605539E+04  0.21376219469E+04  0.89360400222E+03 0.  0.
        -24    2    4    4    0    0  0.13116272601E+02 -0.44636670350E+03 -0.18269732789E+04  0.18824381398E+04  0.79540667495E+02 0.  0.
         24    2    4    4    0    0 -0.96131309971E+02  0.19970005167E+03 -0.97387275028E+02  0.25518380709E+03  0.80704118060E+02 0.  0.
         11    1    3    3    0    0  0.13118941396E+02  0.19517502003E+02 -0.30840159054E+02  0.38783436133E+02  0.00000000000E+00 0. -1.
        -11    1    3    3    0    0  0.69896095975E+02  0.22714914983E+03 -0.68574083338E-01  0.23765985189E+03  0.00000000000E+00 0.  1.
          4    1    6    6  502    0 -0.73324510787E+01  0.56955255151E+02 -0.59828258478E+02  0.82928200515E+02  0.00000000000E+00 0. -1.
          1    1    5    5  503    0  0.31905341446E+02 -0.29937749040E+03 -0.10963017198E+04  0.11368915047E+04  0.00000000000E+00 0. -1.
         -2    1    5    5    0  503 -0.18789068845E+02 -0.14698921310E+03 -0.73067155910E+03  0.74554663513E+03  0.00000000000E+00 0.  1.
         -3    1    6    6    0  502 -0.88798858893E+02  0.14274479652E+03 -0.37559016551E+02  0.17225560658E+03  0.00000000000E+00 0.  1.
<mgrwt>
<rscale>  0 0.14158506E+04</rscale>
<asrwt>0</asrwt>
<pdfrwt beam="1">  1        2 0.33610265E+00 0.14158506E+04</pdfrwt>
<pdfrwt beam="2">  1       -2 0.35291996E-01 0.14158506E+04</pdfrwt>
<totfact> 0.38664229E+01</totfact>
</mgrwt>
</event>
<event>
12    1  0.1472088E-007  0.1414338E+04  0.7818608E-02  0.8943505E-01
          2   -1    0    0  501    0  0.00000000000E+00  0.00000000000E+00  0.16347787610E+04  0.16347787610E+04  0.00000000000E+00 0. -1.
         -2   -1    0    0    0  501 -0.00000000000E+00 -0.00000000000E+00 -0.30590547147E+03  0.30590547147E+03  0.00000000000E+00 0.  1.
         23    2    1    2    0    0 -0.11214771353E+03  0.36676731311E+03  0.18057209736E+03  0.43326675617E+03  0.89545675691E+02 0.  0.
        254    2    1    2    0    0  0.11214771353E+03 -0.36676731311E+03  0.11483011922E+04  0.15074174763E+04  0.89811828192E+03 0.  0.
        -24    2    4    4    0    0  0.62366840038E+02  0.52695431683E+01 -0.13492075455E+03  0.16822119069E+03  0.78596235081E+02 0.  0.
         24    2    4    4    0    0  0.49780873489E+02 -0.37203685628E+03  0.12832219467E+04  0.13391962856E+04  0.76802142372E+02 0.  0.
         13    1    3    3    0    0  0.13109557433E+02  0.18328317164E+02  0.18174361047E+02  0.28949872290E+02  0.00000000000E+00 0. -1.
        -13    1    3    3    0    0 -0.12525727096E+03  0.34843899595E+03  0.16239773631E+03  0.40431688387E+03  0.00000000000E+00 0.  1.
          4    1    6    6  502    0  0.50014643375E+02 -0.25211834530E+03  0.75568199894E+03  0.79819822607E+03  0.00000000000E+00 0. -1.
          3    1    5    5  503    0  0.76504417566E+02  0.19934542184E+02 -0.96641207874E+02  0.12485926052E+03  0.00000000000E+00 0. -1.
         -4    1    5    5    0  503 -0.14137577528E+02 -0.14664999015E+02 -0.38279546673E+02  0.43361930169E+02  0.00000000000E+00 0.  1.
         -3    1    6    6    0  502 -0.23376988669E+00 -0.11991851098E+03  0.52753994779E+03  0.54099805955E+03  0.00000000000E+00 0.  1.
<mgrwt>
<rscale>  0 0.14143377E+04</rscale>
<asrwt>0</asrwt>
<pdfrwt beam="1">  1        2 0.25150442E+00 0.14143377E+04</pdfrwt>
<pdfrwt beam="2">  1       -2 0.47062381E-01 0.14143377E+04</pdfrwt>
<totfact> 0.44362773E+01</totfact>
</mgrwt>
</event>
<event>
12    1  0.1472088E-007  0.1320935E+04  0.7818608E-02  0.9013126E-01
         -2   -1    0    0    0  501 -0.00000000000E+00  0.00000000000E+00  0.15892892555E+04  0.15892892555E+04  0.00000000000E+00 0.  1.
          2   -1    0    0  501    0  0.00000000000E+00 -0.00000000000E+00 -0.27447321706E+03  0.27447321706E+03  0.00000000000E+00 0. -1.
         23    2    1    2    0    0  0.32154594390E+03 -0.17908831704E+02  0.17308600083E+03  0.37681074619E+03  0.91186920487E+02 0.  0.
        254    2    1    2    0    0 -0.32154594390E+03  0.17908831704E+02  0.11417300376E+04  0.14869517264E+04  0.89652966346E+03 0.  0.
        -24    2    4    4    0    0 -0.41328464327E+03  0.11408996005E+03  0.11829473607E+03  0.45186241806E+03  0.79782735804E+02 0.  0.
         24    2    4    4    0    0  0.91738699367E+02 -0.96181128343E+02  0.10234353015E+04  0.10350893083E+04  0.79518936751E+02 0.  0.
         13    1    3    3    0    0  0.14883835500E+02 -0.22826383162E+01  0.38897178748E+02  0.41710064869E+02  0.00000000000E+00 0.  1.
        -13    1    3    3    0    0  0.30666210840E+03 -0.15626193387E+02  0.13418882208E+03  0.33510068132E+03  0.00000000000E+00 0. -1.
          2    1    6    6  502    0  0.14666866581E+02 -0.17030489725E+01  0.37499310557E+03  0.37528368813E+03  0.00000000000E+00 0. -1.
          1    1    5    5  503    0 -0.47551038114E+02  0.78707933146E+01 -0.11419733518E+02  0.49532422984E+02  0.00000000000E+00 0. -1.
         -2    1    5    5    0  503 -0.36573360515E+03  0.10621916673E+03  0.12971446959E+03  0.40232999508E+03  0.00000000000E+00 0.  1.
         -1    1    6    6    0  502  0.77071832786E+02 -0.94478079370E+02  0.64844219598E+03  0.65980562018E+03  0.00000000000E+00 0.  1.
<mgrwt>
<rscale>  0 0.13209350E+04</rscale>
<asrwt>0</asrwt>
<pdfrwt beam="1">  1        2 0.42226650E-01 0.13209350E+04</pdfrwt>
<pdfrwt beam="2">  1       -2 0.24450603E+00 0.13209350E+04</pdfrwt>
<totfact> 0.82548637E+00</totfact>
</mgrwt>
</event>
<event>
12    1  0.1472088E-007  0.1799564E+04  0.7818608E-02  0.8706531E-01
         -1   -1    0    0    0  501 -0.00000000000E+00  0.00000000000E+00  0.53321671011E+03  0.53321671011E+03  0.00000000000E+00 0.  1.
          1   -1    0    0  501    0  0.00000000000E+00 -0.00000000000E+00 -0.15183462897E+04  0.15183462897E+04  0.00000000000E+00 0. -1.
         23    2    1    2    0    0 -0.25736174509E+03 -0.58868086425E+03 -0.46367867562E+03  0.79755882772E+03  0.91224676905E+02 0.  0.
        254    2    1    2    0    0  0.25736174509E+03  0.58868086425E+03 -0.52145090396E+03  0.12540041721E+04  0.94225006797E+03 0.  0.
        -24    2    4    4    0    0 -0.54032901366E+02  0.17665626337E+03  0.25082250805E+03  0.32146435328E+03  0.79375122496E+02 0.  0.
         24    2    4    4    0    0  0.31139464645E+03  0.41202460088E+03 -0.77227341201E+03  0.93253981880E+03  0.80581593373E+02 0.  0.
         13    1    3    3    0    0  0.58254440583E+01 -0.38930317875E+02 -0.30705355326E+02  0.49923183933E+02  0.00000000000E+00 0.  1.
        -13    1    3    3    0    0 -0.26318718915E+03 -0.54975054637E+03 -0.43297332029E+03  0.74763564378E+03  0.00000000000E+00 0. -1.
          4    1    6    6  502    0  0.45640269899E+02  0.22728184486E+02 -0.86180419639E+02  0.10013325789E+03  0.00000000000E+00 0. -1.
          1    1    5    5  503    0 -0.39804772421E+02  0.55839755337E+02  0.43875178921E+02  0.81409640148E+02  0.00000000000E+00 0. -1.
         -2    1    5    5    0  503 -0.14228128945E+02  0.12081650803E+03  0.20694732912E+03  0.24005471313E+03  0.00000000000E+00 0.  1.
         -3    1    6    6    0  502  0.26575437656E+03  0.38929641640E+03 -0.68609299237E+03  0.83240656091E+03  0.00000000000E+00 0.  1.
<mgrwt>
<rscale>  0 0.17995640E+04</rscale>
<asrwt>0</asrwt>
<pdfrwt beam="1">  1        1 0.23359173E+00 0.17995640E+04</pdfrwt>
<pdfrwt beam="2">  1       -1 0.82033341E-01 0.17995640E+04</pdfrwt>
<totfact> 0.88616980E+00</totfact>
</mgrwt>
</event>
<event>
12    1  0.1472088E-007  0.1780657E+04  0.7818608E-02  0.8716654E-01
         -1   -1    0    0    0  501 -0.00000000000E+00  0.00000000000E+00  0.29343468347E+03  0.29343468347E+03  0.00000000000E+00 0.  1.
          1   -1    0    0  501    0  0.00000000000E+00 -0.00000000000E+00 -0.27014003985E+04  0.27014003985E+04  0.00000000000E+00 0. -1.
         23    2    1    2    0    0 -0.12445430085E+03 -0.49327269906E+03 -0.16163712072E+04  0.16974602801E+04  0.99542423679E+02 0.  0.
        254    2    1    2    0    0  0.12445430085E+03  0.49327269906E+03 -0.79159450777E+03  0.12973748019E+04  0.89317001922E+03 0.  0.
        -24    2    4    4    0    0  0.19756581421E+03 -0.21896554490E+03 -0.20670766575E+03  0.36912292364E+03  0.80904344008E+02 0.  0.
         24    2    4    4    0    0 -0.73111513363E+02  0.71223824396E+03 -0.58488684203E+03  0.92825187826E+03  0.83248555375E+02 0.  0.
         13    1    3    3    0    0 -0.90525464582E+02 -0.46347681566E+03 -0.14430738986E+04  0.15183767304E+04  0.00000000000E+00 0. -1.
        -13    1    3    3    0    0 -0.33928836266E+02 -0.29795883406E+02 -0.17329730861E+03  0.17908354969E+03  0.00000000000E+00 0.  1.
          4    1    6    6  502    0 -0.16451363313E+02  0.40395256221E+03 -0.28670776705E+03  0.49563057165E+03  0.00000000000E+00 0. -1.
          1    1    5    5  503    0 -0.60410745521E+01 -0.19725225881E+02 -0.99320361136E+01  0.22895948532E+02  0.00000000000E+00 0. -1.
         -2    1    5    5    0  503  0.20360688876E+03 -0.19924031902E+03 -0.19677562963E+03  0.34622697511E+03  0.00000000000E+00 0.  1.
         -3    1    6    6    0  502 -0.56660150050E+02  0.30828568175E+03 -0.29817907498E+03  0.43262130661E+03  0.00000000000E+00 0.  1.
<mgrwt>
<rscale>  0 0.17806567E+04</rscale>
<asrwt>0</asrwt>
<pdfrwt beam="1">  1        1 0.41560006E+00 0.17806567E+04</pdfrwt>
<pdfrwt beam="2">  1       -1 0.45143798E-01 0.17806567E+04</pdfrwt>
<totfact> 0.45139021E+00</totfact>
</mgrwt>
</event>
<event>
12    1  0.1472088E-007  0.1822537E+04  0.7818608E-02  0.8694405E-01
         -2   -1    0    0    0  501 -0.00000000000E+00  0.00000000000E+00  0.39589962587E+03  0.39589962587E+03  0.00000000000E+00 0.  1.
          2   -1    0    0  501    0  0.00000000000E+00 -0.00000000000E+00 -0.20975278727E+04  0.20975278727E+04  0.00000000000E+00 0. -1.
         23    2    1    2    0    0 -0.39616376330E+03  0.38395827763E+03 -0.11840852925E+04  0.13101048880E+04  0.99735406410E+02 0.  0.
        254    2    1    2    0    0  0.39616376330E+03 -0.38395827763E+03 -0.51754295428E+03  0.11833226105E+04  0.90996263921E+03 0.  0.
        -24    2    4    4    0    0  0.22289803413E+03 -0.56141452715E+03 -0.64875206599E+03  0.89026923754E+03  0.82645430965E+02 0.  0.
         24    2    4    4    0    0  0.17326572916E+03  0.17745624952E+03  0.13120911171E+03  0.29305337300E+03  0.84573725450E+02 0.  0.
         11    1    3    3    0    0 -0.16674225293E+03  0.10436070716E+03 -0.36242816378E+03  0.41236914289E+03  0.00000000000E+00 0.  1.
        -11    1    3    3    0    0 -0.22942151037E+03  0.27959757048E+03 -0.82165712874E+03  0.89773574511E+03  0.00000000000E+00 0. -1.
          4    1    6    6  502    0  0.75983977925E+02  0.13698712355E+03  0.76418820553E+02  0.17429536154E+03  0.00000000000E+00 0. -1.
          3    1    5    5  503    0  0.13369125578E+03 -0.23881211066E+03 -0.26333719690E+03  0.37980396962E+03  0.00000000000E+00 0. -1.
         -2    1    5    5    0  503  0.89206778354E+02 -0.32260241650E+03 -0.38541486909E+03  0.51046526792E+03  0.00000000000E+00 0.  1.
         -3    1    6    6    0  502  0.97281751240E+02  0.40469125963E+02  0.54790291153E+02  0.11875801146E+03  0.00000000000E+00 0.  1.
<mgrwt>
<rscale>  0 0.18225372E+04</rscale>
<asrwt>0</asrwt>
<pdfrwt beam="1">  1        2 0.32269660E+00 0.18225372E+04</pdfrwt>
<pdfrwt beam="2">  1       -2 0.60907634E-01 0.18225372E+04</pdfrwt>
<totfact> 0.13937226E+01</totfact>
</mgrwt>
</event>
<event>
12    1  0.1472088E-007  0.1529228E+04  0.7818608E-02  0.8865246E-01
          2   -1    0    0  501    0  0.00000000000E+00  0.00000000000E+00  0.18459301068E+04  0.18459301068E+04  0.00000000000E+00 0. -1.
         -2   -1    0    0    0  501 -0.00000000000E+00 -0.00000000000E+00 -0.31671560579E+03  0.31671560579E+03  0.00000000000E+00 0.  1.
         23    2    1    2    0    0 -0.23239725755E+03 -0.23130413075E+03  0.10713323255E+04  0.11242902753E+04  0.93624705167E+02 0.  0.
        254    2    1    2    0    0  0.23239725755E+03  0.23130413075E+03  0.45788217558E+03  0.10383554373E+04  0.87236221905E+03 0.  0.
        -24    2    4    4    0    0  0.36079497100E+03  0.47843357613E+03  0.16536239526E+03  0.62682548546E+03  0.80583928840E+02 0.  0.
         24    2    4    4    0    0 -0.12839771345E+03 -0.24712944538E+03  0.29251978033E+03  0.41152995183E+03  0.78931259842E+02 0.  0.
         11    1    3    3    0    0 -0.23553992180E+03 -0.23566267708E+03  0.10654035574E+04  0.11162888033E+04  0.00000000000E+00 0. -1.
        -11    1    3    3    0    0  0.31426642443E+01  0.43585463348E+01  0.59287680059E+01  0.80014720379E+01  0.00000000000E+00 0.  1.
          4    1    6    6  502    0 -0.68835654089E+02 -0.20168775208E+03  0.19775793308E+03  0.29073096965E+03  0.00000000000E+00 0. -1.
          3    1    5    5  503    0  0.17697751430E+03  0.23992474467E+03  0.12391907360E+03  0.32286353228E+03  0.00000000000E+00 0. -1.
         -4    1    5    5    0  503  0.18381745670E+03  0.23850883146E+03  0.41443321662E+02  0.30396195318E+03  0.00000000000E+00 0.  1.
         -3    1    6    6    0  502 -0.59562059357E+02 -0.45441693305E+02  0.94761847241E+02  0.12079898219E+03  0.00000000000E+00 0.  1.
<mgrwt>
<rscale>  0 0.15292284E+04</rscale>
<asrwt>0</asrwt>
<pdfrwt beam="1">  1        2 0.28398924E+00 0.15292284E+04</pdfrwt>
<pdfrwt beam="2">  1       -2 0.48725479E-01 0.15292284E+04</pdfrwt>
<totfact> 0.31290101E+01</totfact>
</mgrwt>
</event>
<event>
12    1  0.1472088E-007  0.1364129E+04  0.7818608E-02  0.8980201E-01
          3   -1    0    0  501    0  0.00000000000E+00  0.00000000000E+00  0.11466679229E+04  0.11466679229E+04  0.00000000000E+00 0. -1.
         -3   -1    0    0    0  501 -0.00000000000E+00 -0.00000000000E+00 -0.40570759477E+03  0.40570759477E+03  0.00000000000E+00 0.  1.
         23    2    1    2    0    0 -0.32739830098E+03 -0.85444713270E+01  0.41200514552E+03  0.53428622541E+03  0.91928642213E+02 0.  0.
        254    2    1    2    0    0  0.32739830098E+03  0.85444713270E+01  0.32895518266E+03  0.10180892923E+04  0.90610796234E+03 0.  0.
        -24    2    4    4    0    0  0.31709449949E+02  0.43215552348E+03  0.16846792446E+03  0.47111405475E+03  0.76178247020E+02 0.  0.
         24    2    4    4    0    0  0.29568885103E+03 -0.42361105216E+03  0.16048725820E+03  0.54697523755E+03  0.80916811051E+02 0.  0.
         11    1    3    3    0    0 -0.67010435543E+02 -0.34808591972E+02  0.64859460540E+02  0.99542886076E+02  0.00000000000E+00 0.  1.
        -11    1    3    3    0    0 -0.26038786543E+03  0.26264120645E+02  0.34714568498E+03  0.43474333934E+03  0.00000000000E+00 0. -1.
          2    1    6    6  502    0  0.72354583109E+02 -0.12116551848E+03  0.82841732387E+01  0.14136794577E+03  0.00000000000E+00 0. -1.
          1    1    5    5  503    0  0.28521587200E+02  0.14899735606E+03  0.93427449491E+02  0.17816391713E+03  0.00000000000E+00 0. -1.
         -2    1    5    5    0  503  0.31878627493E+01  0.28315816742E+03  0.75040474964E+02  0.29295013762E+03  0.00000000000E+00 0.  1.
         -1    1    6    6    0  502  0.22333426792E+03 -0.30244553368E+03  0.15220308496E+03  0.40560729178E+03  0.00000000000E+00 0.  1.
<mgrwt>
<rscale>  0 0.13641289E+04</rscale>
<asrwt>0</asrwt>
<pdfrwt beam="1">  1        3 0.17641045E+00 0.13641289E+04</pdfrwt>
<pdfrwt beam="2">  1       -3 0.62416553E-01 0.13641289E+04</pdfrwt>
<totfact> 0.13409342E+00</totfact>
</mgrwt>
</event>
<event>
12    1  0.1907910E-007  0.1664194E+04  0.7818608E-02  0.8782053E-01
         -1   -1    0    0    0  501 -0.00000000000E+00  0.00000000000E+00  0.57791817983E+03  0.57791817983E+03  0.00000000000E+00 0.  1.
          1   -1    0    0  501    0  0.00000000000E+00 -0.00000000000E+00 -0.11980684129E+04  0.11980684129E+04  0.00000000000E+00 0. -1.
         23    2    1    2    0    0  0.25259418739E+03 -0.97188313217E+02 -0.77534713064E+03  0.82665424024E+03  0.94576255839E+02 0.  0.
        254    2    1    2    0    0 -0.25259418739E+03  0.97188313217E+02  0.15519689758E+03  0.94933235250E+03  0.89660272515E+03 0.  0.
        -24    2    4    4    0    0  0.28664285561E+03 -0.13167934198E+03  0.15028955014E+03  0.35800335617E+03  0.77947920908E+02 0.  0.
         24    2    4    4    0    0 -0.53923704300E+03  0.22886765519E+03  0.49073474390E+01  0.59132899632E+03  0.80553756555E+02 0.  0.
         13    1    3    3    0    0  0.20242088953E+03 -0.54520254823E+02 -0.67345509655E+03  0.70532860553E+03  0.00000000000E+00 0. -1.
        -13    1    3    3    0    0  0.50173297863E+02 -0.42668058394E+02 -0.10189203409E+03  0.12132563471E+03  0.00000000000E+00 0.  1.
          2    1    6    6  502    0 -0.52180706434E+03  0.23510171207E+03  0.60759446444E+00  0.57232490474E+03  0.00000000000E+00 0. -1.
          1    1    5    5  503    0  0.27467759817E+03 -0.11724317249E+03  0.15783097677E+03  0.33779337125E+03  0.00000000000E+00 0. -1.
         -2    1    5    5    0  503  0.11965257442E+02 -0.14436169487E+02 -0.75414266279E+01  0.20209984926E+02  0.00000000000E+00 0.  1.
         -1    1    6    6    0  502 -0.17429978667E+02 -0.62340568774E+01  0.42997529746E+01  0.19004091589E+02  0.00000000000E+00 0.  1.
<mgrwt>
<rscale>  0 0.16641941E+04</rscale>
<asrwt>0</asrwt>
<pdfrwt beam="1">  1        1 0.18431822E+00 0.16641941E+04</pdfrwt>
<pdfrwt beam="2">  1       -1 0.88910490E-01 0.16641941E+04</pdfrwt>
<totfact> 0.12698027E+01</totfact>
</mgrwt>
</event>
<event>
12    1  0.1472088E-007  0.1438452E+04  0.7818608E-02  0.8926446E-01
          2   -1    0    0  501    0  0.00000000000E+00  0.00000000000E+00  0.75361376306E+03  0.75361376306E+03  0.00000000000E+00 0.  1.
         -2   -1    0    0    0  501 -0.00000000000E+00 -0.00000000000E+00 -0.68640742864E+03  0.68640742864E+03  0.00000000000E+00 0. -1.
         23    2    1    2    0    0  0.41527025936E+03  0.32082499583E+02 -0.87476663113E+02  0.43519797398E+03  0.90919936649E+02 0.  0.
        254    2    1    2    0    0 -0.41527025936E+03 -0.32082499583E+02  0.15468299753E+03  0.10048232177E+04  0.90125700777E+03 0.  0.
        -24    2    4    4    0    0 -0.59667311905E+03  0.13301188320E+03 -0.12138626034E+03  0.62844490733E+03  0.80606484092E+02 0.  0.
         24    2    4    4    0    0  0.18140285969E+03 -0.16509438279E+03  0.27606925787E+03  0.37637831039E+03  0.72685931643E+02 0.  0.
         11    1    3    3    0    0  0.39148290337E+03  0.97123827754E+01 -0.68863985067E+02  0.39761217593E+03  0.00000000000E+00 0.  1.
        -11    1    3    3    0    0  0.23787355989E+02  0.22370116807E+02 -0.18612678046E+02  0.37585798049E+02  0.00000000000E+00 0. -1.
          2    1    6    6  502    0  0.10359291528E+03 -0.11890657488E+03  0.12918804962E+03  0.20386225205E+03  0.00000000000E+00 0. -1.
          1    1    5    5  503    0 -0.27708338487E+03  0.91773329754E+02 -0.29570619466E+02  0.29338024432E+03  0.00000000000E+00 0. -1.
         -2    1    5    5    0  503 -0.31958973419E+03  0.41238553450E+02 -0.91815640875E+02  0.33506466301E+03  0.00000000000E+00 0.  1.
         -1    1    6    6    0  502  0.77809944415E+02 -0.46187807909E+02  0.14688120825E+03  0.17251605835E+03  0.00000000000E+00 0.  1.
<mgrwt>
<rscale>  0 0.14384521E+04</rscale>
<asrwt>0</asrwt>
<pdfrwt beam="1">  1        2 0.11594058E+00 0.14384521E+04</pdfrwt>
<pdfrwt beam="2">  1       -2 0.10560114E+00 0.14384521E+04</pdfrwt>
<totfact> 0.26229806E+01</totfact>
</mgrwt>
</event>
<event>
12    1  0.1472088E-007  0.1444109E+04  0.7818608E-02  0.8922495E-01
          2   -1    0    0  501    0  0.00000000000E+00  0.00000000000E+00  0.16376921278E+04  0.16376921278E+04  0.00000000000E+00 0. -1.
         -2   -1    0    0    0  501 -0.00000000000E+00 -0.00000000000E+00 -0.31835218155E+03  0.31835218155E+03  0.00000000000E+00 0.  1.
         23    2    1    2    0    0 -0.33350939949E+03  0.25411745435E+03  0.61121000096E+03  0.74665150878E+03  0.90036715456E+02 0.  0.
        254    2    1    2    0    0  0.33350939949E+03 -0.25411745435E+03  0.70812994530E+03  0.12093928006E+04  0.88621595930E+03 0.  0.
        -24    2    4    4    0    0  0.44963261358E+03 -0.40453957361E+03  0.78033254147E+03  0.99037189923E+03  0.78076050715E+02 0.  0.
         24    2    4    4    0    0 -0.11612321409E+03  0.15042211927E+03 -0.72202596168E+02  0.21902090135E+03  0.81520092747E+02 0.  0.
         13    1    3    3    0    0 -0.58884349381E+02  0.94094347491E+02  0.15902754167E+03  0.19393522589E+03  0.00000000000E+00 0.  1.
        -13    1    3    3    0    0 -0.27462505011E+03  0.16002310686E+03  0.45218245930E+03  0.55271628289E+03  0.00000000000E+00 0. -1.
          2    1    6    6  502    0 -0.44165753678E+02  0.35697960976E+02  0.14000435795E+02  0.58489062381E+02  0.00000000000E+00 0. -1.
          1    1    5    5  503    0  0.56209016478E+02 -0.23465198790E+02  0.98178284612E+02  0.11553806584E+03  0.00000000000E+00 0. -1.
         -2    1    5    5    0  503  0.39342359710E+03 -0.38107437482E+03  0.68215425686E+03  0.87483383340E+03  0.00000000000E+00 0.  1.
         -1    1    6    6    0  502 -0.71957460411E+02  0.11472415829E+03 -0.86203031963E+02  0.16053183897E+03  0.00000000000E+00 0.  1.
<mgrwt>
<rscale>  0 0.14441092E+04</rscale>
<asrwt>0</asrwt>
<pdfrwt beam="1">  1        2 0.25195263E+00 0.14441092E+04</pdfrwt>
<pdfrwt beam="2">  1       -2 0.48977259E-01 0.14441092E+04</pdfrwt>
<totfact> 0.40676207E+01</totfact>
</mgrwt>
</event>
<event>
12    1  0.1472088E-007  0.2888019E+04  0.7818608E-02  0.8276451E-01
          2   -1    0    0  501    0  0.00000000000E+00  0.00000000000E+00  0.28932339063E+04  0.28932339063E+04  0.00000000000E+00 0. -1.
         -2   -1    0    0    0  501 -0.00000000000E+00 -0.00000000000E+00 -0.72070332981E+03  0.72070332981E+03  0.00000000000E+00 0.  1.
         23    2    1    2    0    0 -0.10040144829E+04  0.32098452425E+03  0.27870077653E+02  0.10577797332E+04  0.83934951145E+02 0.  0.
        254    2    1    2    0    0  0.10040144829E+04 -0.32098452425E+03  0.21446604988E+04  0.25561575029E+04  0.90735680832E+03 0.  0.
        -24    2    4    4    0    0  0.99706237958E+03 -0.66144912461E+02  0.20320780252E+04  0.22658718298E+04  0.79533075819E+02 0.  0.
         24    2    4    4    0    0  0.69521033547E+01 -0.25483961179E+03  0.11258247357E+03  0.29028567309E+03  0.81236686091E+02 0.  0.
         13    1    3    3    0    0 -0.89934153903E+03  0.31211611593E+03  0.33828988593E+02  0.95256289773E+03  0.00000000000E+00 0.  1.
        -13    1    3    3    0    0 -0.10467294390E+03  0.88684083206E+01 -0.59589109405E+01  0.10521683549E+03  0.00000000000E+00 0. -1.
          4    1    6    6  502    0  0.16484062273E+02 -0.27063337469E+02 -0.75775835641E+01  0.32581717522E+02  0.00000000000E+00 0. -1.
          3    1    5    5  503    0  0.40517655814E+03 -0.65523686692E+02  0.81742388317E+03  0.91468202210E+03  0.00000000000E+00 0. -1.
         -4    1    5    5    0  503  0.59188582144E+03 -0.62122576940E+00  0.12146541421E+04  0.13511898077E+04  0.00000000000E+00 0.  1.
         -3    1    6    6    0  502 -0.95319589184E+01 -0.22777627432E+03  0.12016005713E+03  0.25770395557E+03  0.00000000000E+00 0.  1.
<mgrwt>
<rscale>  0 0.28880189E+04</rscale>
<asrwt>0</asrwt>
<pdfrwt beam="1">  1        2 0.44511290E+00 0.28880189E+04</pdfrwt>
<pdfrwt beam="2">  1       -2 0.11087744E+00 0.28880189E+04</pdfrwt>
<totfact> 0.11288412E+00</totfact>
</mgrwt>
</event>
<event>
12    1  0.1472088E-007  0.1611763E+04  0.7818608E-02  0.8813354E-01
          1   -1    0    0  501    0  0.00000000000E+00  0.00000000000E+00  0.16810436603E+04  0.16810436603E+04  0.00000000000E+00 0. -1.
         -1   -1    0    0    0  501 -0.00000000000E+00 -0.00000000000E+00 -0.38633461029E+03  0.38633461029E+03  0.00000000000E+00 0.  1.
         23    2    1    2    0    0 -0.20542765932E+03  0.22740334621E+03  0.10632595403E+04  0.11101702597E+04  0.89690302925E+02 0.  0.
        254    2    1    2    0    0  0.20542765932E+03 -0.22740334621E+03  0.23144950976E+03  0.95720801091E+03  0.87679273236E+03 0.  0.
        -24    2    4    4    0    0 -0.23174232448E+03 -0.25465517019E+03  0.34897033782E+03  0.49677082834E+03  0.80294449041E+02 0.  0.
         24    2    4    4    0    0  0.43716998379E+03  0.27251823985E+02 -0.11752082807E+03  0.46043718258E+03  0.79567565190E+02 0.  0.
         11    1    3    3    0    0 -0.15952304097E+03  0.13946376110E+03  0.59736350651E+03  0.63383034021E+03  0.00000000000E+00 0. -1.
        -11    1    3    3    0    0 -0.45904618349E+02  0.87939585113E+02  0.46589603377E+03  0.47633991948E+03  0.00000000000E+00 0.  1.
          2    1    6    6  502    0  0.39944095034E+03  0.47555316035E+02 -0.10876235265E+03  0.41670592777E+03  0.00000000000E+00 0. -1.
          3    1    5    5  503    0 -0.18433068523E+03 -0.18064681894E+03  0.30149556790E+03  0.39687611691E+03  0.00000000000E+00 0. -1.
         -4    1    5    5    0  503 -0.47411639247E+02 -0.74008351257E+02  0.47474769916E+02  0.99894711424E+02  0.00000000000E+00 0.  1.
         -1    1    6    6    0  502  0.37729033458E+02 -0.20303492050E+02 -0.87584754158E+01  0.43731254804E+02  0.00000000000E+00 0.  1.
<mgrwt>
<rscale>  0 0.16117634E+04</rscale>
<asrwt>0</asrwt>
<pdfrwt beam="1">  1        1 0.25862210E+00 0.16117634E+04</pdfrwt>
<pdfrwt beam="2">  1       -1 0.59436095E-01 0.16117634E+04</pdfrwt>
<totfact> 0.13507674E+01</totfact>
</mgrwt>
</event>
<event>
12    1  0.1472088E-007  0.1347940E+04  0.7818608E-02  0.8992389E-01
          2   -1    0    0  501    0  0.00000000000E+00  0.00000000000E+00  0.13232397962E+04  0.13232397962E+04  0.00000000000E+00 0.  1.
         -2   -1    0    0    0  501 -0.00000000000E+00 -0.00000000000E+00 -0.34327525961E+03  0.34327525961E+03  0.00000000000E+00 0. -1.
         23    2    1    2    0    0  0.23471049052E+03 -0.26316955512E+03  0.18245886367E+03  0.40683878037E+03  0.88765574295E+02 0.  0.
        254    2    1    2    0    0 -0.23471049052E+03  0.26316955512E+03  0.79750567294E+03  0.12596762755E+04  0.90907743976E+03 0.  0.
        -24    2    4    4    0    0 -0.27193410437E+03 -0.26405149426E+03  0.54440354391E+03  0.66829627395E+03  0.81076151980E+02 0.  0.
         24    2    4    4    0    0  0.37223613855E+02  0.52722104938E+03  0.25310212903E+03  0.59138000151E+03  0.79510918295E+02 0.  0.
         11    1    3    3    0    0  0.15215378248E+03 -0.14844680712E+03  0.15442980570E+03  0.26274663262E+03  0.00000000000E+00 0. -1.
        -11    1    3    3    0    0  0.82556708043E+02 -0.11472274801E+03  0.28029057968E+02  0.14409214775E+03  0.00000000000E+00 0.  1.
          4    1    6    6  502    0  0.27160289050E+02  0.48959569060E+03  0.25439334760E+03  0.55241071393E+03  0.00000000000E+00 0. -1.
          3    1    5    5  503    0 -0.23446894837E+03 -0.25411462737E+03  0.51179292624E+03  0.61764223539E+03  0.00000000000E+00 0. -1.
         -4    1    5    5    0  503 -0.37465156001E+02 -0.99368668903E+01  0.32610617670E+02  0.50654038562E+02  0.00000000000E+00 0.  1.
         -3    1    6    6    0  502  0.10063324805E+02  0.37625358777E+02 -0.12912185716E+01  0.38969287582E+02  0.00000000000E+00 0.  1.
<mgrwt>
<rscale>  0 0.13479399E+04</rscale>
<asrwt>0</asrwt>
<pdfrwt beam="1">  1        2 0.20357535E+00 0.13479399E+04</pdfrwt>
<pdfrwt beam="2">  1       -2 0.52811579E-01 0.13479399E+04</pdfrwt>
<totfact> 0.52932578E+01</totfact>
</mgrwt>
</event>
<event>
12    1  0.1472088E-007  0.1356053E+04  0.7818608E-02  0.8986258E-01
          2   -1    0    0  501    0  0.00000000000E+00  0.00000000000E+00  0.20347160007E+03  0.20347160007E+03  0.00000000000E+00 0. -1.
         -2   -1    0    0    0  501 -0.00000000000E+00 -0.00000000000E+00 -0.22593822888E+04  0.22593822888E+04  0.00000000000E+00 0.  1.
         23    2    1    2    0    0 -0.25154926588E+03 -0.18899333846E+03 -0.22391277015E+03  0.39666036572E+03  0.90592504926E+02 0.  0.
        254    2    1    2    0    0  0.25154926588E+03  0.18899333846E+03 -0.18319979185E+04  0.20661935231E+04  0.90218833191E+03 0.  0.
        -24    2    4    4    0    0  0.34547628355E+03  0.50449503441E+03 -0.11374429670E+04  0.12934775952E+04  0.73747431570E+02 0.  0.
         24    2    4    4    0    0 -0.93927017669E+02 -0.31550169595E+03 -0.69455495150E+03  0.77271592795E+03  0.79496665684E+02 0.  0.
         11    1    3    3    0    0 -0.59114708314E+01 -0.23863759281E+02  0.14786281776E+01  0.24629470878E+02  0.00000000000E+00 0.  1.
        -11    1    3    3    0    0 -0.24563779505E+03 -0.16512957918E+03 -0.22539139833E+03  0.37203089484E+03  0.00000000000E+00 0. -1.
          4    1    6    6  502    0 -0.51000469216E+02 -0.27458065793E+03 -0.56699995063E+03  0.63204788551E+03  0.00000000000E+00 0. -1.
          1    1    5    5  503    0  0.25159134095E+03  0.39965483841E+03 -0.92619529204E+03  0.10396441274E+04  0.00000000000E+00 0. -1.
         -2    1    5    5    0  503  0.93884942604E+02  0.10484019600E+03 -0.21124767500E+03  0.25383346773E+03  0.00000000000E+00 0.  1.
         -3    1    6    6    0  502 -0.42926548453E+02 -0.40921038018E+02 -0.12755500088E+03  0.14066804244E+03  0.00000000000E+00 0.  1.
<mgrwt>
<rscale>  0 0.13560533E+04</rscale>
<asrwt>0</asrwt>
<pdfrwt beam="1">  1        2 0.31303324E-01 0.13560533E+04</pdfrwt>
<pdfrwt beam="2">  1       -2 0.34759726E+00 0.13560533E+04</pdfrwt>
<totfact> 0.26955686E+00</totfact>
</mgrwt>
</event>
<event>
12    1  0.1472088E-007  0.1427040E+04  0.7818608E-02  0.8934475E-01
         -2   -1    0    0    0  501 -0.00000000000E+00  0.00000000000E+00  0.17786312608E+03  0.17786312608E+03  0.00000000000E+00 0. -1.
          2   -1    0    0  501    0  0.00000000000E+00 -0.00000000000E+00 -0.28623747063E+04  0.28623747063E+04  0.00000000000E+00 0.  1.
         23    2    1    2    0    0  0.20103364142E+02 -0.39025212500E+03 -0.11325663251E+04  0.12021172498E+04  0.98379546236E+02 0.  0.
        254    2    1    2    0    0 -0.20103364142E+02  0.39025212500E+03 -0.15519452551E+04  0.18381205826E+04  0.90413070683E+03 0.  0.
        -24    2    4    4    0    0  0.25856568249E+03  0.77464302380E+02 -0.13272382842E+04  0.13567956670E+04  0.80474150054E+02 0.  0.
         24    2    4    4    0    0 -0.27866904663E+03  0.31278782262E+03 -0.22470697095E+03  0.48132491557E+03  0.75417451762E+02 0.  0.
         11    1    3    3    0    0  0.37541094490E+02 -0.37929798996E+03 -0.10505805915E+04  0.11175848416E+04  0.00000000000E+00 0.  1.
        -11    1    3    3    0    0 -0.17437730348E+02 -0.10954135038E+02 -0.81985733654E+02  0.84532408204E+02  0.00000000000E+00 0. -1.
          4    1    6    6  502    0 -0.12292090368E+03  0.12725656755E+03 -0.54020120427E+02  0.18499177267E+03  0.00000000000E+00 0. -1.
          1    1    5    5  503    0  0.83379578356E+02  0.49407345833E+02 -0.62617128891E+03  0.63362743230E+03  0.00000000000E+00 0. -1.
         -2    1    5    5    0  503  0.17518610414E+03  0.28056956547E+02 -0.70106699526E+03  0.72316823474E+03  0.00000000000E+00 0.  1.
         -3    1    6    6    0  502 -0.15574814296E+03  0.18553125507E+03 -0.17068685052E+03  0.29633314290E+03  0.00000000000E+00 0.  1.
<mgrwt>
<rscale>  0 0.14270402E+04</rscale>
<asrwt>0</asrwt>
<pdfrwt beam="1">  1        2 0.44036538E+00 0.14270402E+04</pdfrwt>
<pdfrwt beam="2">  1       -2 0.27363555E-01 0.14270402E+04</pdfrwt>
<totfact> 0.25207309E+01</totfact>
</mgrwt>
</event>
<event>
12    1  0.1472088E-007  0.3065029E+04  0.7818608E-02  0.8225402E-01
         -2   -1    0    0    0  501 -0.00000000000E+00  0.00000000000E+00  0.11015423410E+04  0.11015423410E+04  0.00000000000E+00 0.  1.
          2   -1    0    0  501    0  0.00000000000E+00 -0.00000000000E+00 -0.21321013794E+04  0.21321013794E+04  0.00000000000E+00 0. -1.
         23    2    1    2    0    0  0.67959652136E+02  0.53582323155E+03 -0.18321713418E+04  0.19123731882E+04  0.92705639821E+02 0.  0.
        254    2    1    2    0    0 -0.67959652136E+02 -0.53582323155E+03  0.80161230341E+03  0.13212705321E+04  0.90080435406E+03 0.  0.
        -24    2    4    4    0    0 -0.36100605067E+02 -0.63590307063E+03  0.93410218940E+03  0.11338148161E+04  0.85517063531E+02 0.  0.
         24    2    4    4    0    0 -0.31859047069E+02  0.10007983908E+03 -0.13248988599E+03  0.18745571598E+03  0.80963587445E+02 0.  0.
         11    1    3    3    0    0  0.74334166243E+02  0.30682607541E+03 -0.95772721455E+03  0.10084191719E+04  0.00000000000E+00 0. -1.
        -11    1    3    3    0    0 -0.63745141075E+01  0.22899715613E+03 -0.87444412723E+03  0.90395401631E+03  0.00000000000E+00 0.  1.
          2    1    6    6  502    0 -0.13686348143E+02  0.26690934827E+02  0.51342195891E+01  0.30431600980E+02  0.00000000000E+00 0. -1.
          1    1    5    5  503    0  0.25090585659E+02 -0.23104364031E+03  0.36541800546E+03  0.43306006504E+03  0.00000000000E+00 0. -1.
         -2    1    5    5    0  503 -0.61191190726E+02 -0.40485943031E+03  0.56868418394E+03  0.70075475110E+03  0.00000000000E+00 0.  1.
         -1    1    6    6    0  502 -0.18172698926E+02  0.73388904253E+02 -0.13762410558E+03  0.15702411500E+03  0.00000000000E+00 0.  1.
<mgrwt>
<rscale>  0 0.30650285E+04</rscale>
<asrwt>0</asrwt>
<pdfrwt beam="1">  1        2 0.32801559E+00 0.30650285E+04</pdfrwt>
<pdfrwt beam="2">  1       -2 0.16946805E+00 0.30650285E+04</pdfrwt>
<totfact> 0.10320994E+00</totfact>
</mgrwt>
</event>
<event>
12    1  0.1472088E-007  0.1631516E+04  0.7818608E-02  0.8801417E-01
         -1   -1    0    0    0  501 -0.00000000000E+00  0.00000000000E+00  0.65878885746E+03  0.65878885746E+03  0.00000000000E+00 0.  1.
          1   -1    0    0  501    0  0.00000000000E+00 -0.00000000000E+00 -0.10101280094E+04  0.10101280094E+04  0.00000000000E+00 0. -1.
         23    2    1    2    0    0 -0.21676387053E+03 -0.23886871479E+03  0.35180239742E+03  0.48606897384E+03  0.91941731680E+02 0.  0.
        254    2    1    2    0    0  0.21676387053E+03  0.23886871479E+03 -0.70314154934E+03  0.11828478930E+04  0.89480515257E+03 0.  0.
        -24    2    4    4    0    0 -0.16890397333E+03 -0.22430690775E+03 -0.61014683533E+02  0.29834234980E+03  0.80269701644E+02 0.  0.
         24    2    4    4    0    0  0.38566784386E+03  0.46317562255E+03 -0.64212686580E+03  0.88450554319E+03  0.82169343642E+02 0.  0.
         11    1    3    3    0    0 -0.17195300613E+03 -0.23334698090E+03  0.29599118063E+03  0.41428182295E+03  0.00000000000E+00 0.  1.
        -11    1    3    3    0    0 -0.44810864399E+02 -0.55217338880E+01  0.55811216793E+02  0.71787150892E+02  0.00000000000E+00 0. -1.
          4    1    6    6  502    0  0.96879745867E+02  0.74703913863E+02 -0.15885133392E+03  0.20049964138E+03  0.00000000000E+00 0. -1.
          3    1    5    5  503    0 -0.11103933545E+03 -0.16093018964E+03 -0.78621235344E+02  0.21073575539E+03  0.00000000000E+00 0. -1.
         -4    1    5    5    0  503 -0.57864637879E+02 -0.63376718120E+02  0.17606551811E+02  0.87606594405E+02  0.00000000000E+00 0.  1.
         -3    1    6    6    0  502  0.28878809799E+03  0.38847170868E+03 -0.48327553189E+03  0.68400590181E+03  0.00000000000E+00 0.  1.
<mgrwt>
<rscale>  0 0.16315160E+04</rscale>
<asrwt>0</asrwt>
<pdfrwt beam="1">  1        1 0.15540431E+00 0.16315160E+04</pdfrwt>
<pdfrwt beam="2">  1       -1 0.10135213E+00 0.16315160E+04</pdfrwt>
<totfact> 0.13143698E+01</totfact>
</mgrwt>
</event>
<event>
12    1  0.1472088E-007  0.1354433E+04  0.7818608E-02  0.8987479E-01
         -1   -1    0    0    0  501 -0.00000000000E+00  0.00000000000E+00  0.72670947682E+03  0.72670947682E+03  0.00000000000E+00 0.  1.
          1   -1    0    0  501    0  0.00000000000E+00 -0.00000000000E+00 -0.63109430137E+03  0.63109430137E+03  0.00000000000E+00 0. -1.
         23    2    1    2    0    0 -0.23506950132E+03  0.25269824425E+03  0.10588993724E+03  0.37094939798E+03  0.85303598717E+02 0.  0.
        254    2    1    2    0    0  0.23506950132E+03 -0.25269824425E+03 -0.10274761782E+02  0.98685438021E+03  0.92447927176E+03 0.  0.
        -24    2    4    4    0    0  0.16215462961E+03  0.30069024362E+03 -0.18551468249E+03  0.39609553879E+03  0.75942293354E+02 0.  0.
         24    2    4    4    0    0  0.72914871711E+02 -0.55338848786E+03  0.17523992071E+03  0.59075884142E+03  0.82046218024E+02 0.  0.
         11    1    3    3    0    0 -0.52187411326E+02  0.37555209063E+02  0.53757428251E+02  0.83807999146E+02  0.00000000000E+00 0.  1.
        -11    1    3    3    0    0 -0.18288208999E+03  0.21514303518E+03  0.52132508987E+02  0.28714139883E+03  0.00000000000E+00 0. -1.
          2    1    6    6  502    0  0.35080240792E+02 -0.19145293949E+03  0.10127047637E+03  0.21940957298E+03  0.00000000000E+00 0. -1.
          3    1    5    5  503    0  0.43970160574E+02  0.11459121370E+03 -0.10459177425E+03  0.16125743555E+03  0.00000000000E+00 0. -1.
         -4    1    5    5    0  503  0.11818446903E+03  0.18609902992E+03 -0.80922908239E+02  0.23483810324E+03  0.00000000000E+00 0.  1.
         -1    1    6    6    0  502  0.37834630919E+02 -0.36193554837E+03  0.73969444339E+02  0.37134926844E+03  0.00000000000E+00 0.  1.
<mgrwt>
<rscale>  0 0.13544330E+04</rscale>
<asrwt>0</asrwt>
<pdfrwt beam="1">  1        1 0.97091431E-01 0.13544330E+04</pdfrwt>
<pdfrwt beam="2">  1       -1 0.11180146E+00 0.13544330E+04</pdfrwt>
<totfact> 0.22868990E+01</totfact>
</mgrwt>
</event>
<event>
12    1  0.1472088E-007  0.2326501E+04  0.7818608E-02  0.8467545E-01
         -1   -1    0    0    0  501 -0.00000000000E+00  0.00000000000E+00  0.45208405007E+03  0.45208405007E+03  0.00000000000E+00 0.  1.
          1   -1    0    0  501    0  0.00000000000E+00 -0.00000000000E+00 -0.29931430888E+04  0.29931430888E+04  0.00000000000E+00 0. -1.
         23    2    1    2    0    0  0.44160043559E+03  0.78916263033E+03 -0.50959067781E+03  0.10422575006E+04  0.93965083182E+02 0.  0.
        254    2    1    2    0    0 -0.44160043559E+03 -0.78916263033E+03 -0.20314683609E+04  0.24029696382E+04  0.91082972012E+03 0.  0.
        -24    2    4    4    0    0  0.22744323618E+02 -0.39999764175E+03 -0.16777610491E+03  0.44158676828E+03  0.79590419538E+02 0.  0.
         24    2    4    4    0    0 -0.46434475921E+03 -0.38916498859E+03 -0.18636922560E+04  0.19613828699E+04  0.81292642518E+02 0.  0.
         11    1    3    3    0    0  0.28940484175E+02  0.86843071960E+02 -0.78777379115E+02  0.12076897877E+03  0.00000000000E+00 0. -1.
        -11    1    3    3    0    0  0.41265995142E+03  0.70231955837E+03 -0.43081329869E+03  0.92148852185E+03  0.00000000000E+00 0.  1.
          2    1    6    6  502    0 -0.45188733052E+03 -0.35477690383E+03 -0.17397731623E+04  0.18321788852E+04  0.00000000000E+00 0. -1.
          1    1    5    5  503    0  0.45612455396E+02 -0.32558069618E+03 -0.15179587073E+03  0.36211223699E+03  0.00000000000E+00 0. -1.
         -2    1    5    5    0  503 -0.22868131778E+02 -0.74416945571E+02 -0.15980234184E+02  0.79474531289E+02  0.00000000000E+00 0.  1.
         -1    1    6    6    0  502 -0.12457428691E+02 -0.34388084755E+02 -0.12391909366E+03  0.12920398475E+03  0.00000000000E+00 0.  1.
<mgrwt>
<rscale>  0 0.23265015E+04</rscale>
<asrwt>0</asrwt>
<pdfrwt beam="1">  1        1 0.46048357E+00 0.23265015E+04</pdfrwt>
<pdfrwt beam="2">  1       -1 0.69551389E-01 0.23265015E+04</pdfrwt>
<totfact> 0.11405897E+00</totfact>
</mgrwt>
</event>
<event>
12    1  0.1472088E-007  0.1644069E+04  0.7818608E-02  0.8793923E-01
          1   -1    0    0  501    0  0.00000000000E+00  0.00000000000E+00  0.12116805824E+04  0.12116805824E+04  0.00000000000E+00 0. -1.
         -1   -1    0    0    0  501 -0.00000000000E+00 -0.00000000000E+00 -0.55768852858E+03  0.55768852858E+03  0.00000000000E+00 0.  1.
         23    2    1    2    0    0 -0.27159215648E+03 -0.41285567710E+03 -0.66348667651E+02  0.50681403292E+03  0.90808637774E+02 0.  0.
        254    2    1    2    0    0  0.27159215648E+03  0.41285567710E+03  0.72034072152E+03  0.12625550781E+04  0.91156045361E+03 0.  0.
        -24    2    4    4    0    0  0.58279407611E+03  0.17498162634E+03  0.30247800095E+03  0.68407165963E+03  0.78699363038E+02 0.  0.
         24    2    4    4    0    0 -0.31120191963E+03  0.23787405077E+03  0.41786272057E+03  0.57848341847E+03  0.81259543457E+02 0.  0.
         13    1    3    3    0    0 -0.99444016292E+02 -0.15873773865E+03  0.18877667610E+02  0.18826350784E+03  0.00000000000E+00 0. -1.
        -13    1    3    3    0    0 -0.17214814019E+03 -0.25411793845E+03 -0.85226335261E+02  0.31855052509E+03  0.00000000000E+00 0.  1.
          2    1    6    6  502    0 -0.15169970548E+03  0.10521581381E+03  0.25458350867E+03  0.31447723448E+03  0.00000000000E+00 0. -1.
          3    1    5    5  503    0  0.29180901878E+03  0.12647556667E+03  0.14277146017E+03  0.34861477629E+03  0.00000000000E+00 0. -1.
         -4    1    5    5    0  503  0.29098505733E+03  0.48506059670E+02  0.15970654078E+03  0.33545688334E+03  0.00000000000E+00 0.  1.
         -1    1    6    6    0  502 -0.15950221415E+03  0.13265823696E+03  0.16327921190E+03  0.26400618400E+03  0.00000000000E+00 0.  1.
<mgrwt>
<rscale>  0 0.16440686E+04</rscale>
<asrwt>0</asrwt>
<pdfrwt beam="1">  1        1 0.18641240E+00 0.16440686E+04</pdfrwt>
<pdfrwt beam="2">  1       -1 0.85798235E-01 0.16440686E+04</pdfrwt>
<totfact> 0.13439651E+01</totfact>
</mgrwt>
</event>
<event>
12    1  0.1472088E-007  0.1412884E+04  0.7818608E-02  0.8944545E-01
         -1   -1    0    0    0  501 -0.00000000000E+00  0.00000000000E+00  0.56268694630E+03  0.56268694630E+03  0.00000000000E+00 0.  1.
          1   -1    0    0  501    0  0.00000000000E+00 -0.00000000000E+00 -0.88692300085E+03  0.88692300085E+03  0.00000000000E+00 0. -1.
         23    2    1    2    0    0 -0.70291857173E+02 -0.33149827702E+03 -0.35871944056E+03  0.50182384255E+03  0.91189248616E+02 0.  0.
        254    2    1    2    0    0  0.70291857173E+02  0.33149827702E+03  0.34483386008E+02  0.94778610460E+03  0.88446443869E+03 0.  0.
        -24    2    4    4    0    0  0.13344515514E+03  0.42787049452E+03 -0.32631136468E+03  0.55997071484E+03  0.78786580352E+02 0.  0.
         24    2    4    4    0    0 -0.63153297972E+02 -0.96372217495E+02  0.36079475069E+03  0.38781538977E+03  0.83378540814E+02 0.  0.
         11    1    3    3    0    0 -0.76131527897E+02 -0.23818355523E+03 -0.21191086004E+03  0.32777069443E+03  0.00000000000E+00 0.  1.
        -11    1    3    3    0    0  0.58396707240E+01 -0.93314721791E+02 -0.14680858052E+03  0.17405314812E+03  0.00000000000E+00 0. -1.
          4    1    6    6  502    0 -0.12775383309E+02 -0.29541778366E+02  0.22370828639E+02  0.39196697076E+02  0.00000000000E+00 0. -1.
          3    1    5    5  503    0  0.56798097349E+02  0.78564809880E+02 -0.80639422089E+02  0.12609983984E+03  0.00000000000E+00 0. -1.
         -4    1    5    5    0  503  0.76647057796E+02  0.34930568464E+03 -0.24567194259E+03  0.43387087499E+03  0.00000000000E+00 0.  1.
         -3    1    6    6    0  502 -0.50377914663E+02 -0.66830439130E+02  0.33842392205E+03  0.34861869269E+03  0.00000000000E+00 0.  1.
<mgrwt>
<rscale>  0 0.14128836E+04</rscale>
<asrwt>0</asrwt>
<pdfrwt beam="1">  1        1 0.13644969E+00 0.14128836E+04</pdfrwt>
<pdfrwt beam="2">  1       -1 0.86567223E-01 0.14128836E+04</pdfrwt>
<totfact> 0.23914759E+01</totfact>
</mgrwt>
</event>
<event>
12    1  0.1472088E-007  0.1179649E+04  0.7818608E-02  0.9130859E-01
          2   -1    0    0  501    0  0.00000000000E+00  0.00000000000E+00  0.17721972547E+04  0.17721972547E+04  0.00000000000E+00 0. -1.
         -2   -1    0    0    0  501 -0.00000000000E+00 -0.00000000000E+00 -0.19630588671E+03  0.19630588671E+03  0.00000000000E+00 0.  1.
         23    2    1    2    0    0 -0.10352546669E+03  0.21060114873E+03  0.41575977841E+03  0.48616623362E+03  0.91820734417E+02 0.  0.
        254    2    1    2    0    0  0.10352546669E+03 -0.21060114873E+03  0.11601315896E+04  0.14823369078E+04  0.89238278612E+03 0.  0.
        -24    2    4    4    0    0  0.56509272070E+02 -0.60199267400E+02 -0.13290591989E+03  0.17719724731E+03  0.83172298795E+02 0.  0.
         24    2    4    4    0    0  0.47016194625E+02 -0.15040188133E+03  0.12930375095E+04  0.13051396605E+04  0.81315951607E+02 0.  0.
         13    1    3    3    0    0  0.40496405155E+01  0.62348099383E+01  0.69844673161E+02  0.70239239832E+02  0.00000000000E+00 0.  1.
        -13    1    3    3    0    0 -0.10757510721E+03  0.20436633879E+03  0.34591510525E+03  0.41592699379E+03  0.00000000000E+00 0. -1.
          2    1    6    6  502    0 -0.17497173293E+02 -0.33502090118E+02  0.16756304034E+03  0.17177285468E+03  0.00000000000E+00 0. -1.
          3    1    5    5  503    0  0.45393253754E+02 -0.30381342312E+01 -0.19066340038E+02  0.49328521855E+02  0.00000000000E+00 0. -1.
         -2    1    5    5    0  503  0.11116018316E+02 -0.57161133168E+02 -0.11383957985E+03  0.12786872545E+03  0.00000000000E+00 0.  1.
         -1    1    6    6    0  502  0.64513367918E+02 -0.11689979121E+03  0.11254744692E+04  0.11333668058E+04  0.00000000000E+00 0.  1.
<mgrwt>
<rscale>  0 0.11796487E+04</rscale>
<asrwt>0</asrwt>
<pdfrwt beam="1">  1        2 0.27264572E+00 0.11796487E+04</pdfrwt>
<pdfrwt beam="2">  1       -2 0.30200907E-01 0.11796487E+04</pdfrwt>
<totfact> 0.89478917E+01</totfact>
</mgrwt>
</event>
<event>
12    1  0.1472088E-007  0.1879878E+04  0.7818608E-02  0.8664938E-01
         -2   -1    0    0    0  501 -0.00000000000E+00  0.00000000000E+00  0.20161316193E+03  0.20161316193E+03  0.00000000000E+00 0. -1.
          2   -1    0    0  501    0  0.00000000000E+00 -0.00000000000E+00 -0.43820801003E+04  0.43820801003E+04  0.00000000000E+00 0.  1.
         23    2    1    2    0    0  0.12231645719E+03  0.24655301376E+03 -0.33452314879E+04  0.33577196356E+04  0.89206160451E+02 0.  0.
        254    2    1    2    0    0 -0.12231645719E+03 -0.24655301376E+03 -0.83523545049E+03  0.12259736267E+04  0.85419164787E+03 0.  0.
        -24    2    4    4    0    0 -0.41881483282E+03 -0.79380803029E+02 -0.15316467151E+03  0.45953466190E+03  0.77495243827E+02 0.  0.
         24    2    4    4    0    0  0.29649837563E+03 -0.16717221073E+03 -0.68207077898E+03  0.76643896479E+03  0.79688797281E+02 0.  0.
         13    1    3    3    0    0 -0.10491782890E+02  0.32719644924E+02 -0.59552963027E+03  0.59652006940E+03  0.00000000000E+00 0. -1.
        -13    1    3    3    0    0  0.13280824008E+03  0.21383336883E+03 -0.27497018576E+04  0.27611995662E+04  0.00000000000E+00 0.  1.
          4    1    6    6  502    0  0.19723277691E+03 -0.66859358693E+02 -0.39374683295E+03  0.44542957984E+03  0.00000000000E+00 0. -1.
          1    1    5    5  503    0 -0.36997896749E+03 -0.89981225434E+02 -0.15069760388E+03  0.40950070224E+03  0.00000000000E+00 0. -1.
         -2    1    5    5    0  503 -0.48835865325E+02  0.10600422405E+02 -0.24670676252E+01  0.50033959666E+02  0.00000000000E+00 0.  1.
         -3    1    6    6    0  502  0.99265598716E+02 -0.10031285204E+03 -0.28832394603E+03  0.32100938495E+03  0.00000000000E+00 0.  1.
<mgrwt>
<rscale>  0 0.18798777E+04</rscale>
<asrwt>0</asrwt>
<pdfrwt beam="1">  1        2 0.67416617E+00 0.18798777E+04</pdfrwt>
<pdfrwt beam="2">  1       -2 0.31017410E-01 0.18798777E+04</pdfrwt>
<totfact> 0.14679360E+00</totfact>
</mgrwt>
</event>
<event>
12    1  0.1472088E-007  0.2865608E+04  0.7818608E-02  0.8283184E-01
          2   -1    0    0  501    0  0.00000000000E+00  0.00000000000E+00  0.11894048543E+04  0.11894048543E+04  0.00000000000E+00 0. -1.
         -2   -1    0    0    0  501 -0.00000000000E+00 -0.00000000000E+00 -0.17260116375E+04  0.17260116375E+04  0.00000000000E+00 0.  1.
         23    2    1    2    0    0 -0.17425085804E+03 -0.12213145814E+04 -0.62715709503E+03  0.13869080660E+04  0.90638255085E+02 0.  0.
        254    2    1    2    0    0  0.17425085804E+03  0.12213145814E+04  0.90550311814E+02  0.15285084259E+04  0.89786746271E+03 0.  0.
        -24    2    4    4    0    0  0.15063711141E+03 -0.23910232700E+02  0.21349262271E+03  0.27444162581E+03  0.80472774679E+02 0.  0.
         24    2    4    4    0    0  0.23613746632E+02  0.12452248141E+04 -0.12294231089E+03  0.12540668000E+04  0.80164084281E+02 0.  0.
         13    1    3    3    0    0 -0.17065101832E+03 -0.11630751213E+04 -0.57489850307E+03  0.13085770122E+04  0.00000000000E+00 0.  1.
        -13    1    3    3    0    0 -0.35998397164E+01 -0.58239460083E+02 -0.52258591958E+02  0.78331053805E+02  0.00000000000E+00 0. -1.
          4    1    6    6  502    0 -0.22051447934E+02  0.83000372519E+03 -0.80167591078E+02  0.83415783449E+03  0.00000000000E+00 0. -1.
          3    1    5    5  503    0 -0.72619606592E+00 -0.11628862380E+01  0.51704847662E+02  0.51723021343E+02  0.00000000000E+00 0. -1.
         -4    1    5    5    0  503  0.15136330748E+03 -0.22747346462E+02  0.16178777505E+03  0.22271860447E+03  0.00000000000E+00 0.  1.
         -3    1    6    6    0  502  0.45665194566E+02  0.41522108894E+03 -0.42774719817E+02  0.41990896555E+03  0.00000000000E+00 0.  1.
<mgrwt>
<rscale>  0 0.28656075E+04</rscale>
<asrwt>0</asrwt>
<pdfrwt beam="1">  1        2 0.18298536E+00 0.28656075E+04</pdfrwt>
<pdfrwt beam="2">  1       -2 0.26554025E+00 0.28656075E+04</pdfrwt>
<totfact> 0.85843992E-01</totfact>
</mgrwt>
</event>
<event>
12    1  0.1472088E-007  0.1315831E+04  0.7818608E-02  0.9017104E-01
          1   -1    0    0  501    0  0.00000000000E+00  0.00000000000E+00  0.68849804349E+03  0.68849804349E+03  0.00000000000E+00 0. -1.
         -1   -1    0    0    0  501 -0.00000000000E+00 -0.00000000000E+00 -0.62869136109E+03  0.62869136109E+03  0.00000000000E+00 0.  1.
         23    2    1    2    0    0  0.30187537701E+03 -0.12944972750E+03  0.11923328969E+03  0.36145481611E+03  0.92450156949E+02 0.  0.
        254    2    1    2    0    0 -0.30187537701E+03  0.12944972750E+03 -0.59426607290E+02  0.95573458848E+03  0.89555072819E+03 0.  0.
        -24    2    4    4    0    0 -0.50399350647E+03 -0.51213921541E+02 -0.29107148155E+03  0.59020494322E+03  0.83587961470E+02 0.  0.
         24    2    4    4    0    0  0.20211812946E+03  0.18066364904E+03  0.23164487426E+03  0.36552964527E+03  0.80383340678E+02 0.  0.
         13    1    3    3    0    0 -0.40802435969E+01 -0.12997621895E+02  0.22205056445E+01  0.13802797110E+02  0.00000000000E+00 0.  1.
        -13    1    3    3    0    0  0.30595562061E+03 -0.11645210560E+03  0.11701278405E+03  0.34765201900E+03  0.00000000000E+00 0. -1.
          4    1    6    6  502    0  0.14140389866E+03  0.73384142147E+02  0.12413751812E+03  0.20196637908E+03  0.00000000000E+00 0. -1.
          3    1    5    5  503    0 -0.50240405832E+03 -0.45986098736E+02 -0.29408889823E+03  0.58396304606E+03  0.00000000000E+00 0. -1.
         -4    1    5    5    0  503 -0.15894481493E+01 -0.52278228047E+01  0.30174166868E+01  0.62418971602E+01  0.00000000000E+00 0.  1.
         -3    1    6    6    0  502  0.60714230794E+02  0.10727950689E+03  0.10750735614E+03  0.16356326618E+03  0.00000000000E+00 0.  1.
<mgrwt>
<rscale>  0 0.13158309E+04</rscale>
<asrwt>0</asrwt>
<pdfrwt beam="1">  1        1 0.10592278E+00 0.13158309E+04</pdfrwt>
<pdfrwt beam="2">  1       -1 0.96721748E-01 0.13158309E+04</pdfrwt>
<totfact> 0.28206051E+01</totfact>
</mgrwt>
</event>
<event>
12    1  0.1472088E-007  0.1754540E+04  0.7818608E-02  0.8730855E-01
          1   -1    0    0  501    0  0.00000000000E+00  0.00000000000E+00  0.50423125148E+03  0.50423125148E+03  0.00000000000E+00 0. -1.
         -1   -1    0    0    0  501 -0.00000000000E+00 -0.00000000000E+00 -0.15262890527E+04  0.15262890527E+04  0.00000000000E+00 0.  1.
         23    2    1    2    0    0  0.26594362337E+02 -0.27328769167E+03 -0.10465170869E+04  0.10857607236E+04  0.91021498618E+02 0.  0.
        254    2    1    2    0    0 -0.26594362337E+02  0.27328769167E+03  0.24459285629E+02  0.94475958064E+03  0.90364760058E+03 0.  0.
        -24    2    4    4    0    0 -0.45074265882E+03  0.20454764821E+03 -0.39216706285E+02  0.50305230263E+03  0.80715452468E+02 0.  0.
         24    2    4    4    0    0  0.42414829648E+03  0.68740043453E+02  0.63675991914E+02  0.44170727801E+03  0.80148091169E+02 0.  0.
         13    1    3    3    0    0  0.14981712530E+02 -0.25600125541E+03 -0.10215673445E+04  0.10532620442E+04  0.00000000000E+00 0.  1.
        -13    1    3    3    0    0  0.11612649808E+02 -0.17286436257E+02 -0.24949742370E+02  0.32498679332E+02  0.00000000000E+00 0. -1.
          2    1    6    6  502    0  0.15845640296E+03  0.61397410528E+02  0.78639004614E+01  0.17011735534E+03  0.00000000000E+00 0. -1.
          1    1    5    5  503    0 -0.23917924981E+02  0.17483918387E+02 -0.21667341404E+02  0.36704607627E+02  0.00000000000E+00 0. -1.
         -2    1    5    5    0  503 -0.42682473384E+03  0.18706372983E+03 -0.17549364881E+02  0.46634769501E+03  0.00000000000E+00 0.  1.
         -1    1    6    6    0  502  0.26569189352E+03  0.73426329247E+01  0.55812091452E+02  0.27158992267E+03  0.00000000000E+00 0.  1.
<mgrwt>
<rscale>  0 0.17545400E+04</rscale>
<asrwt>0</asrwt>
<pdfrwt beam="1">  1        1 0.77574040E-01 0.17545400E+04</pdfrwt>
<pdfrwt beam="2">  1       -1 0.23481370E+00 0.17545400E+04</pdfrwt>
<totfact> 0.36397377E+00</totfact>
</mgrwt>
</event>
<event>
12    1  0.1472088E-007  0.2288013E+04  0.7818608E-02  0.8482662E-01
          2   -1    0    0  501    0  0.00000000000E+00  0.00000000000E+00  0.11699445358E+04  0.11699445358E+04  0.00000000000E+00 0. -1.
         -2   -1    0    0    0  501 -0.00000000000E+00 -0.00000000000E+00 -0.11186438222E+04  0.11186438222E+04  0.00000000000E+00 0.  1.
         23    2    1    2    0    0  0.72927940555E+02 -0.95783469338E+03 -0.46244028038E+02  0.96612677895E+03  0.92177321012E+02 0.  0.
        254    2    1    2    0    0 -0.72927940555E+02  0.95783469338E+03  0.97544741626E+02  0.13224615790E+04  0.90367243349E+03 0.  0.
        -24    2    4    4    0    0 -0.71655593638E+02  0.16856326515E+03  0.42062158725E+03  0.46588906346E+03  0.81129534324E+02 0.  0.
         24    2    4    4    0    0 -0.12723469173E+01  0.78927142823E+03 -0.32307684562E+03  0.85657251557E+03  0.79917582376E+02 0.  0.
         13    1    3    3    0    0 -0.63752452446E+01 -0.85164035810E+02 -0.27285353558E+02  0.89655157499E+02  0.00000000000E+00 0. -1.
        -13    1    3    3    0    0  0.79303185799E+02 -0.87267065757E+03 -0.18958674479E+02  0.87647162145E+03  0.00000000000E+00 0.  1.
          4    1    6    6  502    0 -0.34305319473E+02  0.59652108850E+03 -0.23425870998E+03  0.64178766517E+03  0.00000000000E+00 0. -1.
          3    1    5    5  503    0 -0.79927351316E+01  0.78220332279E+02  0.25443850749E+03  0.26631045471E+03  0.00000000000E+00 0. -1.
         -4    1    5    5    0  503 -0.63662858506E+02  0.90342932872E+02  0.16618307976E+03  0.19957860875E+03  0.00000000000E+00 0.  1.
         -3    1    6    6    0  502  0.33032972556E+02  0.19275033973E+03 -0.88818135644E+02  0.21478485040E+03  0.00000000000E+00 0.  1.
<mgrwt>
<rscale>  0 0.22880133E+04</rscale>
<asrwt>0</asrwt>
<pdfrwt beam="1">  1        2 0.17999147E+00 0.22880133E+04</pdfrwt>
<pdfrwt beam="2">  1       -2 0.17209905E+00 0.22880133E+04</pdfrwt>
<totfact> 0.36903906E+00</totfact>
</mgrwt>
</event>
<event>
12    1  0.1472088E-007  0.2285420E+04  0.7818608E-02  0.8483692E-01
         -2   -1    0    0    0  501 -0.00000000000E+00  0.00000000000E+00  0.98176012612E+03  0.98176012612E+03  0.00000000000E+00 0.  1.
          2   -1    0    0  501    0  0.00000000000E+00 -0.00000000000E+00 -0.13300465965E+04  0.13300465965E+04  0.00000000000E+00 0. -1.
         23    2    1    2    0    0 -0.90955850046E+03  0.17996250798E+03 -0.41116294817E+03  0.10183786841E+04  0.91416652417E+02 0.  0.
        254    2    1    2    0    0  0.90955850046E+03 -0.17996250798E+03  0.62876477811E+02  0.12934280384E+04  0.89962184785E+03 0.  0.
        -24    2    4    4    0    0  0.91339969716E+03 -0.12386882602E+03 -0.25532800445E+03  0.96011678290E+03  0.83602357114E+02 0.  0.
         24    2    4    4    0    0 -0.38411966977E+01 -0.56093681955E+02  0.31820448226E+03  0.33331125555E+03  0.81737657156E+02 0.  0.
         13    1    3    3    0    0 -0.80257706817E+03  0.13510682609E+03 -0.38030218834E+03  0.89833933414E+03  0.00000000000E+00 0.  1.
        -13    1    3    3    0    0 -0.10698143230E+03  0.44855681887E+02 -0.30860759828E+02  0.12003935001E+03  0.00000000000E+00 0. -1.
          4    1    6    6  502    0 -0.31088410718E+02 -0.58435733575E+02  0.16673592996E+03  0.17939368600E+03  0.00000000000E+00 0. -1.
          1    1    5    5  503    0  0.86605771874E+03 -0.10925526706E+03 -0.22299770446E+03  0.90095541608E+03  0.00000000000E+00 0. -1.
         -2    1    5    5    0  503  0.47341978418E+02 -0.14613558965E+02 -0.32330299992E+02  0.59161366818E+02  0.00000000000E+00 0.  1.
         -3    1    6    6    0  502  0.27247214020E+02  0.23420516200E+01  0.15146855230E+03  0.15391756955E+03  0.00000000000E+00 0.  1.
<mgrwt>
<rscale>  0 0.22854205E+04</rscale>
<asrwt>0</asrwt>
<pdfrwt beam="1">  1        2 0.20462255E+00 0.22854205E+04</pdfrwt>
<pdfrwt beam="2">  1       -2 0.15104002E+00 0.22854205E+04</pdfrwt>
<totfact> 0.42404880E+00</totfact>
</mgrwt>
</event>
<event>
12    1  0.1472088E-007  0.1092884E+04  0.7818608E-02  0.9212156E-01
          1   -1    0    0  501    0  0.00000000000E+00  0.00000000000E+00  0.13729131603E+04  0.13729131603E+04  0.00000000000E+00 0. -1.
         -1   -1    0    0    0  501 -0.00000000000E+00 -0.00000000000E+00 -0.21749278617E+03  0.21749278617E+03  0.00000000000E+00 0.  1.
         23    2    1    2    0    0  0.50365293934E+02  0.97962577638E+02  0.24403055317E+03  0.28329243015E+03  0.92576242348E+02 0.  0.
        254    2    1    2    0    0 -0.50365293934E+02 -0.97962577638E+02  0.91138982098E+03  0.13071135163E+04  0.93047354040E+03 0.  0.
        -24    2    4    4    0    0 -0.36047621057E+03 -0.97829925330E+02  0.48396107472E+02  0.38673095937E+03  0.87777326485E+02 0.  0.
         24    2    4    4    0    0  0.31011091663E+03 -0.13265230792E+00  0.86299371350E+03  0.92038255697E+03  0.78594550785E+02 0.  0.
         13    1    3    3    0    0  0.11252570045E+02  0.38712542206E+02  0.14193950163E+02  0.42740489912E+02  0.00000000000E+00 0.  1.
        -13    1    3    3    0    0  0.39112723889E+02  0.59250035431E+02  0.22983660301E+03  0.24055194023E+03  0.00000000000E+00 0. -1.
          2    1    6    6  502    0  0.28315104833E+03 -0.41878243675E+01  0.69976630008E+03  0.75489398512E+03  0.00000000000E+00 0. -1.
          3    1    5    5  503    0 -0.17233074991E+03 -0.26418211757E+02  0.61974258172E+02  0.18503139721E+03  0.00000000000E+00 0. -1.
         -4    1    5    5    0  503 -0.18814546066E+03 -0.71411713573E+02 -0.13578150700E+02  0.20169956217E+03  0.00000000000E+00 0.  1.
         -1    1    6    6    0  502  0.26959868305E+02  0.40551720596E+01  0.16322741343E+03  0.16548857185E+03  0.00000000000E+00 0.  1.
<mgrwt>
<rscale>  0 0.10928837E+04</rscale>
<asrwt>0</asrwt>
<pdfrwt beam="1">  1        1 0.21121740E+00 0.10928837E+04</pdfrwt>
<pdfrwt beam="2">  1       -1 0.33460430E-01 0.10928837E+04</pdfrwt>
<totfact> 0.67272455E+01</totfact>
</mgrwt>
</event>
<event>
12    1  0.1472088E-007  0.1179397E+04  0.7818608E-02  0.9131083E-01
         -4   -1    0    0    0  501 -0.00000000000E+00  0.00000000000E+00  0.86690637266E+03  0.86690637266E+03  0.00000000000E+00 0.  1.
          4   -1    0    0  501    0  0.00000000000E+00 -0.00000000000E+00 -0.40113282458E+03  0.40113282458E+03  0.00000000000E+00 0. -1.
         23    2    1    2    0    0 -0.99432864463E+02  0.18444382643E+03  0.22741713362E+03  0.32269381301E+03  0.92229738416E+02 0.  0.
        254    2    1    2    0    0  0.99432864463E+02 -0.18444382643E+03  0.23835641445E+03  0.94534538423E+03  0.89048172105E+03 0.  0.
        -24    2    4    4    0    0  0.10505659026E+03  0.32697086912E+03 -0.44301492969E+02  0.35560888272E+03  0.80921065107E+02 0.  0.
         24    2    4    4    0    0 -0.56237257992E+01 -0.51141469555E+03  0.28265790742E+03  0.58973650151E+03  0.79479755139E+02 0.  0.
         11    1    3    3    0    0 -0.37525400806E+02  0.49649044839E+02  0.13305830227E+03  0.14689348237E+03  0.00000000000E+00 0.  1.
        -11    1    3    3    0    0 -0.61907463657E+02  0.13479478159E+03  0.94358831350E+02  0.17580033064E+03  0.00000000000E+00 0. -1.
          4    1    6    6  502    0  0.20939627880E+02 -0.42164520495E+03  0.21172975871E+03  0.47228448799E+03  0.00000000000E+00 0. -1.
          3    1    5    5  503    0  0.98588375213E+02  0.32986417829E+03 -0.48006604687E+02  0.34761282764E+03  0.00000000000E+00 0. -1.
         -4    1    5    5    0  503  0.64682150495E+01 -0.28933091746E+01  0.37051117179E+01  0.79960550741E+01  0.00000000000E+00 0.  1.
         -3    1    6    6    0  502 -0.26563353679E+02 -0.89769490590E+02  0.70928148717E+02  0.11745201352E+03  0.00000000000E+00 0.  1.
<mgrwt>
<rscale>  0 0.11793975E+04</rscale>
<asrwt>0</asrwt>
<pdfrwt beam="1">  1        4 0.61712743E-01 0.11793975E+04</pdfrwt>
<pdfrwt beam="2">  1       -4 0.13337021E+00 0.11793975E+04</pdfrwt>
<totfact> 0.19690665E+00</totfact>
</mgrwt>
</event>
<event>
12    1  0.1472088E-007  0.1309688E+04  0.7818608E-02  0.9021917E-01
         -1   -1    0    0    0  501 -0.00000000000E+00  0.00000000000E+00  0.65611204608E+03  0.65611204608E+03  0.00000000000E+00 0.  1.
          1   -1    0    0  501    0  0.00000000000E+00 -0.00000000000E+00 -0.65357871343E+03  0.65357871343E+03  0.00000000000E+00 0. -1.
         23    2    1    2    0    0  0.18713814375E+03  0.23429907682E+03  0.13613953202E+03  0.34165921904E+03  0.90996195181E+02 0.  0.
        254    2    1    2    0    0 -0.18713814375E+03 -0.23429907682E+03 -0.13360619937E+03  0.96803154046E+03  0.91066882267E+03 0.  0.
        -24    2    4    4    0    0  0.21083618678E+03  0.21341504144E+03 -0.18543890916E+03  0.36136496372E+03  0.78734810632E+02 0.  0.
         24    2    4    4    0    0 -0.39797433053E+03 -0.44771411826E+03  0.51832709790E+02  0.60666657675E+03  0.80784937300E+02 0.  0.
         11    1    3    3    0    0  0.94885509005E+02  0.79271620752E+02  0.96782434302E+02  0.15701620701E+03  0.00000000000E+00 0.  1.
        -11    1    3    3    0    0  0.92252634741E+02  0.15502745606E+03  0.39357097718E+02  0.18464301203E+03  0.00000000000E+00 0. -1.
          2    1    6    6  502    0 -0.12158375308E+03 -0.10305913866E+03  0.41741525465E+02  0.16476088741E+03  0.00000000000E+00 0. -1.
          1    1    5    5  503    0  0.20711439143E+03  0.18040508903E+03 -0.15067596248E+03  0.31328200229E+03  0.00000000000E+00 0. -1.
         -2    1    5    5    0  503  0.37217953494E+01  0.33009952404E+02 -0.34762946678E+02  0.48082961432E+02  0.00000000000E+00 0.  1.
         -1    1    6    6    0  502 -0.27639057745E+03 -0.34465497960E+03  0.10091184326E+02  0.44190568933E+03  0.00000000000E+00 0.  1.
<mgrwt>
<rscale>  0 0.13096883E+04</rscale>
<asrwt>0</asrwt>
<pdfrwt beam="1">  1        1 0.10055057E+00 0.13096883E+04</pdfrwt>
<pdfrwt beam="2">  1       -1 0.10094031E+00 0.13096883E+04</pdfrwt>
<totfact> 0.27681534E+01</totfact>
</mgrwt>
</event>
<event>
12    1  0.1472088E-007  0.1399690E+04  0.7818608E-02  0.8954043E-01
          1   -1    0    0  501    0  0.00000000000E+00  0.00000000000E+00  0.19842693674E+04  0.19842693674E+04  0.00000000000E+00 0. -1.
         -1   -1    0    0    0  501 -0.00000000000E+00 -0.00000000000E+00 -0.24683292110E+03  0.24683292110E+03  0.00000000000E+00 0.  1.
         23    2    1    2    0    0  0.29808290357E+03  0.37791446274E+01  0.30266496421E+02  0.31285434767E+03  0.89967120204E+02 0.  0.
        254    2    1    2    0    0 -0.29808290357E+03 -0.37791446274E+01  0.17071699498E+04  0.19182479408E+04  0.82242216980E+03 0.  0.
        -24    2    4    4    0    0  0.18401643483E+03 -0.34661650494E+02  0.78372741867E+02  0.21742051428E+03  0.77883984599E+02 0.  0.
         24    2    4    4    0    0 -0.48209933841E+03  0.30882505867E+02  0.16287972080E+04  0.17008274265E+04  0.80374677755E+02 0.  0.
         13    1    3    3    0    0  0.25709490308E+03  0.23026539420E+02 -0.47245015003E+00  0.25812445432E+03  0.00000000000E+00 0.  1.
        -13    1    3    3    0    0  0.40988000489E+02 -0.19247394793E+02  0.30738946571E+02  0.54729893356E+02  0.00000000000E+00 0. -1.
          2    1    6    6  502    0 -0.24734964891E+03  0.47381134366E+01  0.69866143330E+03  0.74116941175E+03  0.00000000000E+00 0. -1.
          1    1    5    5  503    0  0.17941171093E+03 -0.25345805855E+02  0.89587881238E+02  0.20213104749E+03  0.00000000000E+00 0. -1.
         -2    1    5    5    0  503  0.46047238994E+01 -0.93158446394E+01 -0.11215139371E+02  0.15289466787E+02  0.00000000000E+00 0.  1.
         -3    1    6    6    0  502 -0.23474968950E+03  0.26144392430E+02  0.93013577467E+03  0.95965801476E+03  0.00000000000E+00 0.  1.
<mgrwt>
<rscale>  0 0.13996900E+04</rscale>
<asrwt>0</asrwt>
<pdfrwt beam="1">  1        1 0.30527220E+00 0.13996900E+04</pdfrwt>
<pdfrwt beam="2">  1       -1 0.37974297E-01 0.13996900E+04</pdfrwt>
<totfact> 0.19961199E+01</totfact>
</mgrwt>
</event>
<event>
12    1  0.1472088E-007  0.1810239E+04  0.7818608E-02  0.8700873E-01
          1   -1    0    0  501    0  0.00000000000E+00  0.00000000000E+00  0.17790756543E+04  0.17790756543E+04  0.00000000000E+00 0. -1.
         -1   -1    0    0    0  501 -0.00000000000E+00 -0.00000000000E+00 -0.46048721223E+03  0.46048721223E+03  0.00000000000E+00 0.  1.
         23    2    1    2    0    0  0.21792393531E+03  0.41529471541E+03 -0.11184356851E+03  0.49179912745E+03  0.96937380340E+02 0.  0.
        254    2    1    2    0    0 -0.21792393531E+03 -0.41529471541E+03  0.14304320106E+04  0.17477637391E+04  0.88802128832E+03 0.  0.
        -24    2    4    4    0    0  0.29827727215E+03 -0.52594406215E+02  0.22742627423E+03  0.38703046192E+03  0.79588727799E+02 0.  0.
         24    2    4    4    0    0 -0.51620120747E+03 -0.36270030920E+03  0.12030057364E+04  0.13607332772E+04  0.79731104284E+02 0.  0.
         13    1    3    3    0    0  0.72872525790E+02  0.58838559322E+02 -0.30056256575E+02  0.98365439242E+02  0.00000000000E+00 0. -1.
        -13    1    3    3    0    0  0.14505140952E+03  0.35645615609E+03 -0.81787311938E+02  0.39343368820E+03  0.00000000000E+00 0.  1.
          2    1    6    6  502    0 -0.79014902461E+02 -0.64083065068E+02  0.26124302946E+03  0.28035319595E+03  0.00000000000E+00 0. -1.
          1    1    5    5  503    0  0.19602630317E+03 -0.19490298198E+02  0.10192848350E+03  0.22180080930E+03  0.00000000000E+00 0. -1.
         -2    1    5    5    0  503  0.10225096899E+03 -0.33104108017E+02  0.12549779073E+03  0.16522965262E+03  0.00000000000E+00 0.  1.
         -1    1    6    6    0  502 -0.43718630501E+03 -0.29861724413E+03  0.94176270693E+03  0.10803800812E+04  0.00000000000E+00 0.  1.
<mgrwt>
<rscale>  0 0.18102393E+04</rscale>
<asrwt>0</asrwt>
<pdfrwt beam="1">  1        1 0.27370394E+00 0.18102393E+04</pdfrwt>
<pdfrwt beam="2">  1       -1 0.70844187E-01 0.18102393E+04</pdfrwt>
<totfact> 0.79885573E+00</totfact>
</mgrwt>
</event>
<event>
12    1  0.1472088E-007  0.2439338E+04  0.7818608E-02  0.8424921E-01
         -1   -1    0    0    0  501 -0.00000000000E+00  0.00000000000E+00  0.69671005822E+03  0.69671005822E+03  0.00000000000E+00 0.  1.
          1   -1    0    0  501    0  0.00000000000E+00 -0.00000000000E+00 -0.21351675951E+04  0.21351675951E+04  0.00000000000E+00 0. -1.
         23    2    1    2    0    0 -0.72448637301E+03 -0.38942557675E+03 -0.13807627639E+04  0.16100038848E+04  0.95257096067E+02 0.  0.
        254    2    1    2    0    0  0.72448637301E+03  0.38942557675E+03 -0.57694773005E+02  0.12218737685E+04  0.90172835984E+03 0.  0.
        -24    2    4    4    0    0  0.46021462394E+03  0.10846577719E+03 -0.45592306988E+03  0.66184962432E+03  0.81343436470E+02 0.  0.
         24    2    4    4    0    0  0.26427174908E+03  0.28095979956E+03  0.39822829687E+03  0.56002414423E+03  0.79141009404E+02 0.  0.
         11    1    3    3    0    0 -0.18850289305E+03 -0.12418151697E+03 -0.45440255013E+03  0.50738157969E+03  0.00000000000E+00 0.  1.
        -11    1    3    3    0    0 -0.53598347996E+03 -0.26524405978E+03 -0.92636021376E+03  0.11026223051E+04  0.00000000000E+00 0. -1.
          4    1    6    6  502    0  0.23174490090E+03  0.25779208996E+03  0.38475296976E+03  0.51787769645E+03  0.00000000000E+00 0. -1.
          1    1    5    5  503    0  0.33992169040E+03  0.11617588897E+03 -0.34024919396E+03  0.49478592015E+03  0.00000000000E+00 0. -1.
         -2    1    5    5    0  503  0.12029293353E+03 -0.77101117803E+01 -0.11567387591E+03  0.16706370417E+03  0.00000000000E+00 0.  1.
         -1    1    6    6    0  502  0.32526848180E+02  0.23167709592E+02  0.13475327113E+02  0.42146447787E+02  0.00000000000E+00 0.  1.
<mgrwt>
<rscale>  0 0.24393382E+04</rscale>
<asrwt>0</asrwt>
<pdfrwt beam="1">  1        1 0.32848732E+00 0.24393382E+04</pdfrwt>
<pdfrwt beam="2">  1       -1 0.10718616E+00 0.24393382E+04</pdfrwt>
<totfact> 0.17470276E+00</totfact>
</mgrwt>
</event>
<event>
12    1  0.1472088E-007  0.1539974E+04  0.7818608E-02  0.8858297E-01
         -2   -1    0    0    0  501 -0.00000000000E+00  0.00000000000E+00  0.26285574902E+03  0.26285574902E+03  0.00000000000E+00 0. -1.
          2   -1    0    0  501    0  0.00000000000E+00 -0.00000000000E+00 -0.22555339043E+04  0.22555339043E+04  0.00000000000E+00 0.  1.
         23    2    1    2    0    0  0.17613419880E+03  0.35626092115E+02 -0.14166637954E+04  0.14310035881E+04  0.92425568015E+02 0.  0.
        254    2    1    2    0    0 -0.17613419880E+03 -0.35626092115E+02 -0.57601435992E+03  0.10873860652E+04  0.90461231341E+03 0.  0.
        -24    2    4    4    0    0  0.34834120279E+03 -0.29426010212E+02 -0.94808670410E+02  0.37102876706E+03  0.80412551024E+02 0.  0.
         24    2    4    4    0    0 -0.52447540158E+03 -0.62000819026E+01 -0.48120568951E+03  0.71635729816E+03  0.80597612459E+02 0.  0.
         13    1    3    3    0    0 -0.45790044095E+01  0.12919944984E+02 -0.23361916453E+03  0.23402095268E+03  0.00000000000E+00 0. -1.
        -13    1    3    3    0    0  0.18071320321E+03  0.22706147130E+02 -0.11830446308E+04  0.11969826354E+04  0.00000000000E+00 0.  1.
          4    1    6    6  502    0 -0.15240468835E+03  0.14802134765E+02 -0.18611693810E+03  0.24100997256E+03  0.00000000000E+00 0. -1.
          3    1    5    5  503    0  0.16353174071E+03 -0.36852803521E+02 -0.11072404656E+02  0.16799808776E+03  0.00000000000E+00 0. -1.
         -4    1    5    5    0  503  0.18480946208E+03  0.74267933087E+01 -0.83736265754E+02  0.20303067930E+03  0.00000000000E+00 0.  1.
         -3    1    6    6    0  502 -0.37207071324E+03 -0.21002216667E+02 -0.29508875140E+03  0.47534732560E+03  0.00000000000E+00 0.  1.
<mgrwt>
<rscale>  0 0.15399741E+04</rscale>
<asrwt>0</asrwt>
<pdfrwt beam="1">  1        2 0.34700523E+00 0.15399741E+04</pdfrwt>
<pdfrwt beam="2">  1       -2 0.40439344E-01 0.15399741E+04</pdfrwt>
<totfact> 0.26822581E+01</totfact>
</mgrwt>
</event>
<event>
12    1  0.1472088E-007  0.1453932E+04  0.7818608E-02  0.8915679E-01
         -1   -1    0    0    0  501 -0.00000000000E+00  0.00000000000E+00  0.27868311107E+03  0.27868311107E+03  0.00000000000E+00 0.  1.
          1   -1    0    0  501    0  0.00000000000E+00 -0.00000000000E+00 -0.18963447158E+04  0.18963447158E+04  0.00000000000E+00 0. -1.
         23    2    1    2    0    0 -0.17935909546E+03 -0.15174844401E+03 -0.10301947056E+04  0.10606253078E+04  0.91802160544E+02 0.  0.
        254    2    1    2    0    0  0.17935909546E+03  0.15174844401E+03 -0.58746689910E+03  0.11144025191E+04  0.91737579080E+03 0.  0.
        -24    2    4    4    0    0  0.19251329750E+03 -0.30239293567E+03 -0.53682770634E+03  0.65041287836E+03  0.79687318875E+02 0.  0.
         24    2    4    4    0    0 -0.13154202043E+02  0.45414137968E+03 -0.50639192761E+02  0.46398964069E+03  0.79401719474E+02 0.  0.
         13    1    3    3    0    0 -0.69757688847E+02 -0.10648302535E+03 -0.65072269141E+03  0.66305715512E+03  0.00000000000E+00 0. -1.
        -13    1    3    3    0    0 -0.10960140661E+03 -0.45265418656E+02 -0.37947201418E+03  0.39756815265E+03  0.00000000000E+00 0.  1.
          2    1    6    6  502    0 -0.16836187747E+02  0.45520165956E+03 -0.45788920112E+02  0.45780851159E+03  0.00000000000E+00 0. -1.
          1    1    5    5  503    0  0.10818446102E+03 -0.23581132905E+03 -0.36677509190E+03  0.44926031268E+03  0.00000000000E+00 0. -1.
         -2    1    5    5    0  503  0.84328836478E+02 -0.66581606624E+02 -0.17005261444E+03  0.20115256568E+03  0.00000000000E+00 0.  1.
         -1    1    6    6    0  502  0.36819857036E+01 -0.10602798785E+01 -0.48502726486E+01  0.61811290965E+01  0.00000000000E+00 0.  1.
<mgrwt>
<rscale>  0 0.14539316E+04</rscale>
<asrwt>0</asrwt>
<pdfrwt beam="1">  1        1 0.29174535E+00 0.14539316E+04</pdfrwt>
<pdfrwt beam="2">  1       -1 0.42874323E-01 0.14539316E+04</pdfrwt>
<totfact> 0.18242047E+01</totfact>
</mgrwt>
</event>
<event>
12    1  0.1472088E-007  0.2506228E+04  0.7818608E-02  0.8400770E-01
         -2   -1    0    0    0  501 -0.00000000000E+00  0.00000000000E+00  0.12559930433E+04  0.12559930433E+04  0.00000000000E+00 0.  1.
          2   -1    0    0  501    0  0.00000000000E+00 -0.00000000000E+00 -0.12502414217E+04  0.12502414217E+04  0.00000000000E+00 0. -1.
         23    2    1    2    0    0  0.59186542224E+03 -0.38667566034E+03 -0.82930461322E+03  0.10938514624E+04  0.94562867684E+02 0.  0.
        254    2    1    2    0    0 -0.59186542224E+03  0.38667566034E+03  0.83505623487E+03  0.14123830026E+04  0.89313161759E+03 0.  0.
        -24    2    4    4    0    0 -0.30410888283E+03 -0.53058581619E+02  0.82123205453E+03  0.88086788182E+03  0.78795381475E+02 0.  0.
         24    2    4    4    0    0 -0.28775653941E+03  0.43973424196E+03  0.13824180338E+02  0.53151512079E+03  0.78403993150E+02 0.  0.
         13    1    3    3    0    0  0.52083727993E+03 -0.31200997840E+03 -0.74236277993E+03  0.95902252101E+03  0.00000000000E+00 0. -1.
        -13    1    3    3    0    0  0.71028142313E+02 -0.74665681942E+02 -0.86941833292E+02  0.13482894139E+03  0.00000000000E+00 0.  1.
          2    1    6    6  502    0 -0.95959559182E+02  0.18229793137E+03 -0.27494354451E+02  0.20783818780E+03  0.00000000000E+00 0. -1.
          3    1    5    5  503    0 -0.19968005301E+03 -0.74176758173E+01  0.44612465081E+03  0.48882957107E+03  0.00000000000E+00 0. -1.
         -4    1    5    5    0  503 -0.10442882983E+03 -0.45640905802E+02  0.37510740371E+03  0.39203831076E+03  0.00000000000E+00 0.  1.
         -1    1    6    6    0  502 -0.19179698023E+03  0.25743631058E+03  0.41318534789E+02  0.32367693299E+03  0.00000000000E+00 0.  1.
<mgrwt>
<rscale>  0 0.25062279E+04</rscale>
<asrwt>0</asrwt>
<pdfrwt beam="1">  1        2 0.19234483E+00 0.25062279E+04</pdfrwt>
<pdfrwt beam="2">  1       -2 0.19322970E+00 0.25062279E+04</pdfrwt>
<totfact> 0.23244755E+00</totfact>
</mgrwt>
</event>
<event>
12    1  0.1472088E-007  0.1729619E+04  0.7818608E-02  0.8744650E-01
         -1   -1    0    0    0  501 -0.00000000000E+00  0.00000000000E+00  0.54162082073E+03  0.54162082073E+03  0.00000000000E+00 0.  1.
          1   -1    0    0  501    0  0.00000000000E+00 -0.00000000000E+00 -0.13808470534E+04  0.13808470534E+04  0.00000000000E+00 0. -1.
         23    2    1    2    0    0 -0.42496276186E+03 -0.36413052909E+03 -0.21860558941E+01  0.56719314449E+03  0.92297850062E+02 0.  0.
        254    2    1    2    0    0  0.42496276186E+03  0.36413052909E+03 -0.83704017673E+03  0.13552747296E+04  0.90716533446E+03 0.  0.
        -24    2    4    4    0    0  0.60095558085E+03  0.29577481348E+03 -0.91431714114E+03  0.11360945275E+04  0.78131878181E+02 0.  0.
         24    2    4    4    0    0 -0.17599281898E+03  0.68355715609E+02  0.77276964412E+02  0.21918020210E+03  0.80138976616E+02 0.  0.
         13    1    3    3    0    0 -0.36364813968E+03 -0.26324988696E+03 -0.79056345338E+01  0.44900219547E+03  0.00000000000E+00 0.  1.
        -13    1    3    3    0    0 -0.61314622179E+02 -0.10088064213E+03  0.57195786397E+01  0.11819094901E+03  0.00000000000E+00 0. -1.
          4    1    6    6  502    0 -0.46622380985E+02 -0.10035902003E+02  0.42695347272E+02  0.64009830623E+02  0.00000000000E+00 0. -1.
          3    1    5    5  503    0  0.32932136878E+03  0.20183177031E+03 -0.49903775612E+03  0.63105254098E+03  0.00000000000E+00 0. -1.
         -4    1    5    5    0  503  0.27163421207E+03  0.93943043170E+02 -0.41527938502E+03  0.50504198652E+03  0.00000000000E+00 0.  1.
         -3    1    6    6    0  502 -0.12937043800E+03  0.78391617612E+02  0.34581617140E+02  0.15517037147E+03  0.00000000000E+00 0.  1.
<mgrwt>
<rscale>  0 0.17296190E+04</rscale>
<asrwt>0</asrwt>
<pdfrwt beam="1">  1        1 0.21243801E+00 0.17296190E+04</pdfrwt>
<pdfrwt beam="2">  1       -1 0.83326281E-01 0.17296190E+04</pdfrwt>
<totfact> 0.10752955E+01</totfact>
</mgrwt>
</event>
<event>
12    1  0.1472088E-007  0.2759764E+04  0.7818608E-02  0.8315870E-01
         -2   -1    0    0    0  501 -0.00000000000E+00  0.00000000000E+00  0.63496203556E+03  0.63496203556E+03  0.00000000000E+00 0.  1.
          2   -1    0    0  501    0  0.00000000000E+00 -0.00000000000E+00 -0.29987220807E+04  0.29987220807E+04  0.00000000000E+00 0. -1.
         23    2    1    2    0    0  0.76350849386E+03  0.55250043374E+03 -0.89177000007E+01  0.94675102895E+03  0.89755423037E+02 0.  0.
        254    2    1    2    0    0 -0.76350849386E+03 -0.55250043374E+03 -0.23548423451E+04  0.26869330873E+04  0.88663690182E+03 0.  0.
        -24    2    4    4    0    0 -0.12112729519E+03 -0.52224225796E+03 -0.16148714833E+04  0.17034289175E+04  0.80320432968E+02 0.  0.
         24    2    4    4    0    0 -0.64238119867E+03 -0.30258175783E+02 -0.73997086181E+03  0.98350416971E+03  0.78450072707E+02 0.  0.
         13    1    3    3    0    0  0.44992384372E+03  0.31117600222E+03  0.37568724257E+02  0.54833692064E+03  0.00000000000E+00 0. -1.
        -13    1    3    3    0    0  0.31358465015E+03  0.24132443153E+03 -0.46486424258E+02  0.39841410831E+03  0.00000000000E+00 0.  1.
          4    1    6    6  502    0 -0.46721631737E+03 -0.10096119076E+02 -0.48506395341E+03  0.67355776125E+03  0.00000000000E+00 0. -1.
          3    1    5    5  503    0 -0.10203856271E+03 -0.28638784616E+03 -0.84599248415E+03  0.89896226280E+03  0.00000000000E+00 0. -1.
         -4    1    5    5    0  503 -0.19088732474E+02 -0.23585441180E+03 -0.76887899914E+03  0.80446665475E+03  0.00000000000E+00 0.  1.
         -3    1    6    6    0  502 -0.17516488130E+03 -0.20162056707E+02 -0.25490690840E+03  0.30994640847E+03  0.00000000000E+00 0.  1.
<mgrwt>
<rscale>  0 0.27597642E+04</rscale>
<asrwt>0</asrwt>
<pdfrwt beam="1">  1        2 0.46134185E+00 0.27597642E+04</pdfrwt>
<pdfrwt beam="2">  1       -2 0.97686468E-01 0.27597642E+04</pdfrwt>
<totfact> 0.13289327E+00</totfact>
</mgrwt>
</event>
<event>
12    1  0.1472088E-007  0.3427164E+04  0.7818608E-02  0.8131271E-01
          1   -1    0    0  501    0  0.00000000000E+00  0.00000000000E+00  0.39862314022E+04  0.39862314022E+04  0.00000000000E+00 0. -1.
         -1   -1    0    0    0  501 -0.00000000000E+00 -0.00000000000E+00 -0.73662624542E+03  0.73662624542E+03  0.00000000000E+00 0.  1.
         23    2    1    2    0    0 -0.15342872653E+04 -0.40799941528E+03  0.17491016614E+04  0.23639361881E+04  0.91305774266E+02 0.  0.
        254    2    1    2    0    0  0.15342872653E+04  0.40799941528E+03  0.15005034954E+04  0.23589214595E+04  0.89022400397E+03 0.  0.
        -24    2    4    4    0    0  0.35475907068E+03  0.21650817312E+03 -0.19378555954E+02  0.42371026430E+03  0.80156549231E+02 0.  0.
         24    2    4    4    0    0  0.11795281946E+04  0.19149124216E+03  0.15198820513E+04  0.19352111952E+04  0.83936061609E+02 0.  0.
         11    1    3    3    0    0 -0.84500139997E+03 -0.22826436549E+03  0.89670830168E+03  0.12530833032E+04  0.00000000000E+00 0. -1.
        -11    1    3    3    0    0 -0.68928586529E+03 -0.17973504979E+03  0.85239335974E+03  0.11108528849E+04  0.00000000000E+00 0.  1.
          4    1    6    6  502    0  0.38255851239E+03  0.81670229967E+02  0.44276683842E+03  0.59081597394E+03  0.00000000000E+00 0. -1.
          3    1    5    5  503    0  0.40493479444E+02  0.53226986355E+01 -0.19078500103E+02  0.45078178362E+02  0.00000000000E+00 0. -1.
         -4    1    5    5    0  503  0.31426559123E+03  0.21118547449E+03 -0.30005585172E+00  0.37863208594E+03  0.00000000000E+00 0.  1.
         -3    1    6    6    0  502  0.79696968219E+03  0.10982101219E+03  0.10771152129E+04  0.13443952213E+04  0.00000000000E+00 0.  1.
<mgrwt>
<rscale>  0 0.34271637E+04</rscale>
<asrwt>0</asrwt>
<pdfrwt beam="1">  1        1 0.61326635E+00 0.34271637E+04</pdfrwt>
<pdfrwt beam="2">  1       -1 0.11332712E+00 0.34271637E+04</pdfrwt>
<totfact> 0.57443752E-02</totfact>
</mgrwt>
</event>
<event>
12    1  0.1472088E-007  0.3072141E+04  0.7818608E-02  0.8223425E-01
          2   -1    0    0  501    0  0.00000000000E+00  0.00000000000E+00  0.84857130648E+03  0.84857130648E+03  0.00000000000E+00 0. -1.
         -2   -1    0    0    0  501 -0.00000000000E+00 -0.00000000000E+00 -0.27805713362E+04  0.27805713362E+04  0.00000000000E+00 0.  1.
         23    2    1    2    0    0 -0.95181448972E+03 -0.76895024832E+03 -0.16942058042E+04  0.20921392231E+04  0.97354580962E+02 0.  0.
        254    2    1    2    0    0  0.95181448972E+03  0.76895024832E+03 -0.23779422548E+03  0.15370034196E+04  0.89922083544E+03 0.  0.
        -24    2    4    4    0    0  0.69856123126E+03  0.46327845776E+03  0.27342651856E+03  0.88447491314E+03  0.70136208033E+02 0.  0.
         24    2    4    4    0    0  0.25325325847E+03  0.30567179056E+03 -0.51122074404E+03  0.65252850645E+03  0.82911676621E+02 0.  0.
         11    1    3    3    0    0 -0.77644971537E+03 -0.65781507670E+03 -0.13577875293E+04  0.16968151963E+04  0.00000000000E+00 0.  1.
        -11    1    3    3    0    0 -0.17536477435E+03 -0.11113517162E+03 -0.33641827490E+03  0.39532402677E+03  0.00000000000E+00 0. -1.
          4    1    6    6  502    0  0.78917964954E+01  0.13361131280E+02 -0.12491805255E+01  0.15567939266E+02  0.00000000000E+00 0. -1.
          3    1    5    5  503    0  0.12833095360E+03  0.65162780009E+02  0.25626603924E+02  0.14619078076E+03  0.00000000000E+00 0. -1.
         -4    1    5    5    0  503  0.57023027766E+03  0.39811567775E+03  0.24779991463E+03  0.73828413238E+03  0.00000000000E+00 0.  1.
         -3    1    6    6    0  502  0.24536146197E+03  0.29231065928E+03 -0.50997156351E+03  0.63696056718E+03  0.00000000000E+00 0.  1.
<mgrwt>
<rscale>  0 0.30721413E+04</rscale>
<asrwt>0</asrwt>
<pdfrwt beam="1">  1        2 0.13054943E+00 0.30721413E+04</pdfrwt>
<pdfrwt beam="2">  1       -2 0.42778021E+00 0.30721413E+04</pdfrwt>
<totfact> 0.13169760E-01</totfact>
</mgrwt>
</event>
<event>
12    1  0.1472088E-007  0.1480080E+04  0.7818608E-02  0.8897809E-01
         -1   -1    0    0    0  501 -0.00000000000E+00  0.00000000000E+00  0.41923786173E+03  0.41923786173E+03  0.00000000000E+00 0.  1.
          1   -1    0    0  501    0  0.00000000000E+00 -0.00000000000E+00 -0.13063202850E+04  0.13063202850E+04  0.00000000000E+00 0. -1.
         23    2    1    2    0    0 -0.38858129546E+03 -0.23954700493E+03 -0.28141743521E+03  0.54382041090E+03  0.90369661499E+02 0.  0.
        254    2    1    2    0    0  0.38858129546E+03  0.23954700493E+03 -0.60566498804E+03  0.11817377358E+04  0.90625372151E+03 0.  0.
        -24    2    4    4    0    0  0.64951371650E+03  0.32086712154E+03 -0.46195027601E+03  0.86266828079E+03  0.77296361943E+02 0.  0.
         24    2    4    4    0    0 -0.26093242104E+03 -0.81320116602E+02 -0.14371471203E+03  0.31906945503E+03  0.80328755516E+02 0.  0.
         13    1    3    3    0    0 -0.27820856243E+03 -0.18675011829E+03 -0.15951547045E+03  0.37110752647E+03  0.00000000000E+00 0.  1.
        -13    1    3    3    0    0 -0.11037273303E+03 -0.52796886649E+02 -0.12190196477E+03  0.17271288444E+03  0.00000000000E+00 0. -1.
          4    1    6    6  502    0 -0.25598560480E+03 -0.88650284236E+02 -0.14858468104E+03  0.30897396363E+03  0.00000000000E+00 0. -1.
          1    1    5    5  503    0  0.52062811504E+03  0.23019532404E+03 -0.38566116473E+03  0.68758858001E+03  0.00000000000E+00 0. -1.
         -2    1    5    5    0  503  0.12888560146E+03  0.90671797494E+02 -0.76289111277E+02  0.17507970078E+03  0.00000000000E+00 0.  1.
         -3    1    6    6    0  502 -0.49468162364E+01  0.73301676346E+01  0.48699690061E+01  0.10095491397E+02  0.00000000000E+00 0.  1.
<mgrwt>
<rscale>  0 0.14800796E+04</rscale>
<asrwt>0</asrwt>
<pdfrwt beam="1">  1        1 0.20097235E+00 0.14800796E+04</pdfrwt>
<pdfrwt beam="2">  1       -1 0.64498133E-01 0.14800796E+04</pdfrwt>
<totfact> 0.21141496E+01</totfact>
</mgrwt>
</event>
<event>
12    1  0.1472088E-007  0.2146543E+04  0.7818608E-02  0.8541013E-01
         -1   -1    0    0    0  501 -0.00000000000E+00  0.00000000000E+00  0.55536375377E+03  0.55536375377E+03  0.00000000000E+00 0.  1.
          1   -1    0    0  501    0  0.00000000000E+00 -0.00000000000E+00 -0.20741570832E+04  0.20741570832E+04  0.00000000000E+00 0. -1.
         23    2    1    2    0    0  0.70848371110E+03  0.20419700191E+03 -0.27767083497E+02  0.74331144972E+03  0.89973973344E+02 0.  0.
        254    2    1    2    0    0 -0.70848371110E+03 -0.20419700191E+03 -0.14910262459E+04  0.18862093872E+04  0.88937112726E+03 0.  0.
        -24    2    4    4    0    0 -0.55821335205E+03 -0.26889215838E+03 -0.15678555030E+04  0.16877556791E+04  0.80269638724E+02 0.  0.
         24    2    4    4    0    0 -0.15027035905E+03  0.64695156474E+02  0.76829257076E+02  0.19845370811E+03  0.81942024878E+02 0.  0.
         11    1    3    3    0    0  0.17837026437E+03  0.69564035582E+02 -0.42723826543E+02  0.19616429750E+03  0.00000000000E+00 0. -1.
        -11    1    3    3    0    0  0.53011344673E+03  0.13463296633E+03  0.14956743046E+02  0.54714715222E+03  0.00000000000E+00 0.  1.
          2    1    6    6  502    0 -0.10703335686E+03  0.22657079760E+02  0.12238702742E+02  0.11008754965E+03  0.00000000000E+00 0. -1.
          3    1    5    5  503    0 -0.32819628880E+02 -0.39799263586E+02 -0.13359827465E+03  0.14321176073E+03  0.00000000000E+00 0. -1.
         -4    1    5    5    0  503 -0.52539372317E+03 -0.22909289480E+03 -0.14342572283E+04  0.15445439184E+04  0.00000000000E+00 0.  1.
         -1    1    6    6    0  502 -0.43237002195E+02  0.42038076715E+02  0.64590554334E+02  0.88366158465E+02  0.00000000000E+00 0.  1.
<mgrwt>
<rscale>  0 0.21465430E+04</rscale>
<asrwt>0</asrwt>
<pdfrwt beam="1">  1        1 0.31910109E+00 0.21465430E+04</pdfrwt>
<pdfrwt beam="2">  1       -1 0.85440576E-01 0.21465430E+04</pdfrwt>
<totfact> 0.32901785E+00</totfact>
</mgrwt>
</event>
<event>
12    1  0.1472088E-007  0.1684473E+04  0.7818608E-02  0.8770270E-01
         -2   -1    0    0    0  501 -0.00000000000E+00  0.00000000000E+00  0.12404468522E+04  0.12404468522E+04  0.00000000000E+00 0.  1.
          2   -1    0    0  501    0  0.00000000000E+00 -0.00000000000E+00 -0.57186058715E+03  0.57186058715E+03  0.00000000000E+00 0. -1.
         23    2    1    2    0    0  0.24427063997E+03  0.53292662401E+03  0.20641140427E+03  0.62822689985E+03  0.91566575464E+02 0.  0.
        254    2    1    2    0    0 -0.24427063997E+03 -0.53292662401E+03  0.46217486082E+03  0.11840805395E+04  0.91910945484E+03 0.  0.
        -24    2    4    4    0    0 -0.57689172218E+03 -0.44659489759E+03  0.26745152306E+03  0.78110252901E+03  0.79622747845E+02 0.  0.
         24    2    4    4    0    0  0.33262108220E+03 -0.86331726426E+02  0.19472333776E+03  0.40297801052E+03  0.79900859678E+02 0.  0.
         11    1    3    3    0    0  0.13760350799E+03  0.31414701588E+03  0.72930035890E+02  0.35063066485E+03  0.00000000000E+00 0.  1.
        -11    1    3    3    0    0  0.10666713198E+03  0.21877960814E+03  0.13348136838E+03  0.27759623500E+03  0.00000000000E+00 0. -1.
          2    1    6    6  502    0 -0.67105691354E+00  0.62018237965E+01  0.44542539158E+00  0.62539059446E+01  0.00000000000E+00 0. -1.
          1    1    5    5  503    0 -0.22962556740E+03 -0.13069786948E+03  0.87149217439E+02  0.27821721800E+03  0.00000000000E+00 0. -1.
         -2    1    5    5    0  503 -0.34726615477E+03 -0.31589702811E+03  0.18030230562E+03  0.50288531101E+03  0.00000000000E+00 0.  1.
         -1    1    6    6    0  502  0.33329213912E+03 -0.92533550223E+02  0.19427791237E+03  0.39672410457E+03  0.00000000000E+00 0.  1.
<mgrwt>
<rscale>  0 0.16844734E+04</rscale>
<asrwt>0</asrwt>
<pdfrwt beam="1">  1        2 0.87978553E-01 0.16844734E+04</pdfrwt>
<pdfrwt beam="2">  1       -2 0.19083798E+00 0.16844734E+04</pdfrwt>
<totfact> 0.76531925E+00</totfact>
</mgrwt>
</event>
<event>
12    1  0.1472088E-007  0.1792872E+04  0.7818608E-02  0.8710099E-01
          2   -1    0    0  501    0  0.00000000000E+00  0.00000000000E+00  0.18041560173E+04  0.18041560173E+04  0.00000000000E+00 0.  1.
         -2   -1    0    0    0  501 -0.00000000000E+00 -0.00000000000E+00 -0.44541483440E+03  0.44541483440E+03  0.00000000000E+00 0. -1.
         23    2    1    2    0    0 -0.30163677383E+03  0.10422726887E+03  0.12373082684E+04  0.12811163689E+04  0.92083293015E+02 0.  0.
        254    2    1    2    0    0  0.30163677383E+03 -0.10422726887E+03  0.12143291454E+03  0.96845448279E+03  0.90626158784E+03 0.  0.
        -24    2    4    4    0    0 -0.31097888542E+03 -0.11433767909E+03  0.36379835116E+02  0.34333279222E+03  0.82297884387E+02 0.  0.
         24    2    4    4    0    0  0.61261565925E+03  0.10110410222E+02  0.85053079425E+02  0.62512169057E+03  0.90238214468E+02 0.  0.
         13    1    3    3    0    0 -0.28820018386E+03  0.11803925448E+03  0.11888915080E+04  0.12290059518E+04  0.00000000000E+00 0.  1.
        -13    1    3    3    0    0 -0.13436589968E+02 -0.13811985607E+02  0.48416760352E+02  0.52110417187E+02  0.00000000000E+00 0. -1.
          2    1    6    6  502    0  0.33318089777E+03  0.44313536110E+02  0.23392564150E+02  0.33692790354E+03  0.00000000000E+00 0. -1.
          1    1    5    5  503    0 -0.16677390745E+03 -0.90627702253E+02 -0.98241161059E+01  0.19006164758E+03  0.00000000000E+00 0. -1.
         -2    1    5    5    0  503 -0.14420497796E+03 -0.23709976842E+02  0.46203951222E+02  0.15327114464E+03  0.00000000000E+00 0.  1.
         -1    1    6    6    0  502  0.27943476147E+03 -0.34203125888E+02  0.61660515274E+02  0.28819378703E+03  0.00000000000E+00 0.  1.
<mgrwt>
<rscale>  0 0.17928724E+04</rscale>
<asrwt>0</asrwt>
<pdfrwt beam="1">  1        2 0.27756246E+00 0.17928724E+04</pdfrwt>
<pdfrwt beam="2">  1       -2 0.68525360E-01 0.17928724E+04</pdfrwt>
<totfact> 0.15786324E+01</totfact>
</mgrwt>
</event>
<event>
12    1  0.1472088E-007  0.1242673E+04  0.7818608E-02  0.9076304E-01
          2   -1    0    0  501    0  0.00000000000E+00  0.00000000000E+00  0.38755453530E+03  0.38755453530E+03  0.00000000000E+00 0. -1.
         -2   -1    0    0    0  501 -0.00000000000E+00 -0.00000000000E+00 -0.99614092920E+03  0.99614092920E+03  0.00000000000E+00 0.  1.
         23    2    1    2    0    0  0.19429402561E+03 -0.37149233619E+01  0.82035957176E+02  0.22904879024E+03  0.89271949664E+02 0.  0.
        254    2    1    2    0    0 -0.19429402561E+03  0.37149233619E+01 -0.69062235108E+03  0.11546466743E+04  0.90470201807E+03 0.  0.
        -24    2    4    4    0    0  0.13612936897E+03  0.48230255932E+02  0.16458747161E+03  0.23318536973E+03  0.80181158404E+02 0.  0.
         24    2    4    4    0    0 -0.33042339458E+03 -0.44515332570E+02 -0.85520982269E+03  0.92146130452E+03  0.80906491576E+02 0.  0.
         11    1    3    3    0    0  0.10120467925E+03  0.42007114376E+02  0.33818833251E+02  0.11467649386E+03  0.00000000000E+00 0.  1.
        -11    1    3    3    0    0  0.93089346361E+02 -0.45722037738E+02  0.48217123925E+02  0.11437229639E+03  0.00000000000E+00 0. -1.
          4    1    6    6  502    0 -0.27093075047E+03 -0.44141830698E+02 -0.77057220454E+03  0.81800580388E+03  0.00000000000E+00 0. -1.
          1    1    5    5  503    0  0.12798790363E+03  0.31646168329E+02  0.16884946905E+03  0.21422541083E+03  0.00000000000E+00 0. -1.
         -2    1    5    5    0  503  0.81414653346E+01  0.16584087603E+02 -0.42619974395E+01  0.18959958903E+02  0.00000000000E+00 0.  1.
         -3    1    6    6    0  502 -0.59492644106E+02 -0.37350187210E+00 -0.84637618148E+02  0.10345550064E+03  0.00000000000E+00 0.  1.
<mgrwt>
<rscale>  0 0.12426728E+04</rscale>
<asrwt>0</asrwt>
<pdfrwt beam="1">  1        2 0.59623776E-01 0.12426728E+04</pdfrwt>
<pdfrwt beam="2">  1       -2 0.15325245E+00 0.12426728E+04</pdfrwt>
<totfact> 0.22921202E+01</totfact>
</mgrwt>
</event>
<event>
12    1  0.1472088E-007  0.1695409E+04  0.7818608E-02  0.8763987E-01
          1   -1    0    0  501    0  0.00000000000E+00  0.00000000000E+00  0.13702584303E+04  0.13702584303E+04  0.00000000000E+00 0. -1.
         -1   -1    0    0    0  501 -0.00000000000E+00 -0.00000000000E+00 -0.52442883217E+03  0.52442883217E+03  0.00000000000E+00 0.  1.
         23    2    1    2    0    0  0.14853521670E+02  0.33932376996E+03  0.86035252490E+03  0.92931406524E+03  0.89760329697E+02 0.  0.
        254    2    1    2    0    0 -0.14853521670E+02 -0.33932376996E+03 -0.14522926743E+02  0.96537319726E+03  0.90353375511E+03 0.  0.
        -24    2    4    4    0    0 -0.30693250423E+03 -0.33098247840E+02  0.29404300312E+03  0.43444847858E+03  0.83553196816E+02 0.  0.
         24    2    4    4    0    0  0.29207898256E+03 -0.30622552212E+03 -0.30856592986E+03  0.53092471868E+03  0.87085712833E+02 0.  0.
         13    1    3    3    0    0  0.27598398552E+02  0.20546656330E+03  0.41177495445E+03  0.46101712913E+03  0.00000000000E+00 0.  1.
        -13    1    3    3    0    0 -0.12744876881E+02  0.13385720665E+03  0.44857757045E+03  0.46829693611E+03  0.00000000000E+00 0. -1.
          2    1    6    6  502    0  0.70079424081E+02 -0.38620309028E+02 -0.89089524367E+02  0.11974805761E+03  0.00000000000E+00 0. -1.
          1    1    5    5  503    0 -0.24166961195E+03 -0.41276095505E+02  0.26927568922E+03  0.36416660227E+03  0.00000000000E+00 0. -1.
         -2    1    5    5    0  503 -0.65262892278E+02  0.81778476652E+01  0.24767313897E+02  0.70281876317E+02  0.00000000000E+00 0.  1.
         -1    1    6    6    0  502  0.22199955848E+03 -0.26760521309E+03 -0.21947640550E+03  0.41117666107E+03  0.00000000000E+00 0.  1.
<mgrwt>
<rscale>  0 0.16954091E+04</rscale>
<asrwt>0</asrwt>
<pdfrwt beam="1">  1        1 0.21080899E+00 0.16954091E+04</pdfrwt>
<pdfrwt beam="2">  1       -1 0.80681359E-01 0.16954091E+04</pdfrwt>
<totfact> 0.11758348E+01</totfact>
</mgrwt>
</event>
<event>
12    1  0.1472088E-007  0.2483607E+04  0.7818608E-02  0.8408849E-01
          2   -1    0    0  501    0  0.00000000000E+00  0.00000000000E+00  0.18348679376E+04  0.18348679376E+04  0.00000000000E+00 0. -1.
         -2   -1    0    0    0  501 -0.00000000000E+00 -0.00000000000E+00 -0.84042859881E+03  0.84042859881E+03  0.00000000000E+00 0.  1.
         23    2    1    2    0    0  0.75980895186E+03 -0.78314069279E+03  0.38085916115E+03  0.11593346934E+04  0.91565509894E+02 0.  0.
        254    2    1    2    0    0 -0.75980895186E+03  0.78314069279E+03  0.61358017765E+03  0.15159618430E+04  0.85500917370E+03 0.  0.
        -24    2    4    4    0    0  0.81381145824E+02 -0.18105451521E+02 -0.98920941468E+02  0.15119785206E+03  0.78260715156E+02 0.  0.
         24    2    4    4    0    0 -0.84119009769E+03  0.80124614431E+03  0.71250111912E+03  0.13647639910E+04  0.72984533339E+02 0.  0.
         13    1    3    3    0    0  0.67108481849E+03 -0.67944655697E+03  0.30142400085E+03  0.10014284226E+04  0.00000000000E+00 0.  1.
        -13    1    3    3    0    0  0.88724133371E+02 -0.10369413582E+03  0.79435160292E+02  0.15790627073E+03  0.00000000000E+00 0. -1.
          2    1    6    6  502    0 -0.89001688106E+02  0.10255519978E+03  0.60974852541E+02  0.14885161111E+03  0.00000000000E+00 0. -1.
          3    1    5    5  503    0  0.26603316852E+02 -0.12888336497E+02  0.82807118294E+01  0.30698792705E+02  0.00000000000E+00 0. -1.
         -4    1    5    5    0  503  0.54777828972E+02 -0.52171150246E+01 -0.10720165330E+03  0.12049905936E+03  0.00000000000E+00 0.  1.
         -1    1    6    6    0  502 -0.75218840958E+03  0.69869094453E+03  0.65152626658E+03  0.12159123799E+04  0.00000000000E+00 0.  1.
<mgrwt>
<rscale>  0 0.24836066E+04</rscale>
<asrwt>0</asrwt>
<pdfrwt beam="1">  1        2 0.28228737E+00 0.24836066E+04</pdfrwt>
<pdfrwt beam="2">  1       -2 0.12929671E+00 0.24836066E+04</pdfrwt>
<totfact> 0.32455179E+00</totfact>
</mgrwt>
</event>
<event>
12    1  0.1472088E-007  0.1191255E+04  0.7818608E-02  0.9120545E-01
          1   -1    0    0  501    0  0.00000000000E+00  0.00000000000E+00  0.13778667298E+04  0.13778667298E+04  0.00000000000E+00 0. -1.
         -1   -1    0    0    0  501 -0.00000000000E+00 -0.00000000000E+00 -0.25747947039E+03  0.25747947039E+03  0.00000000000E+00 0.  1.
         23    2    1    2    0    0 -0.19743178392E+03 -0.34579868101E+02  0.99634319988E+02  0.24199656031E+03  0.91979676585E+02 0.  0.
        254    2    1    2    0    0  0.19743178392E+03  0.34579868101E+02  0.10207529394E+04  0.13933496398E+04  0.92699060352E+03 0.  0.
        -24    2    4    4    0    0  0.33070724645E+03  0.37965354590E+03  0.33282230585E+03  0.60785232303E+03  0.72177985399E+02 0.  0.
         24    2    4    4    0    0 -0.13327546253E+03 -0.34507367780E+03  0.68793063352E+03  0.78549731681E+03  0.83182246622E+02 0.  0.
         13    1    3    3    0    0 -0.91623127544E+02  0.23638722003E+02  0.18253633786E+02  0.96367950198E+02  0.00000000000E+00 0.  1.
        -13    1    3    3    0    0 -0.10580865637E+03 -0.58218590104E+02  0.81380686203E+02  0.14562861012E+03  0.00000000000E+00 0. -1.
          2    1    6    6  502    0 -0.72988186633E+02 -0.19273924068E+03  0.46695745289E+03  0.51041645065E+03  0.00000000000E+00 0. -1.
          1    1    5    5  503    0  0.25896503840E+03  0.30403196092E+03  0.22729465560E+03  0.45952277945E+03  0.00000000000E+00 0. -1.
         -2    1    5    5    0  503  0.71742208048E+02  0.75621584982E+02  0.10552765025E+03  0.14832954358E+03  0.00000000000E+00 0.  1.
         -1    1    6    6    0  502 -0.60287275896E+02 -0.15233443712E+03  0.22097318063E+03  0.27508086616E+03  0.00000000000E+00 0.  1.
<mgrwt>
<rscale>  0 0.11912555E+04</rscale>
<asrwt>0</asrwt>
<pdfrwt beam="1">  1        1 0.21197949E+00 0.11912555E+04</pdfrwt>
<pdfrwt beam="2">  1       -1 0.39612227E-01 0.11912555E+04</pdfrwt>
<totfact> 0.48882751E+01</totfact>
</mgrwt>
</event>
<event>
12    1  0.1472088E-007  0.1564628E+04  0.7818608E-02  0.8842578E-01
          2   -1    0    0  501    0  0.00000000000E+00  0.00000000000E+00  0.81910187787E+03  0.81910187787E+03  0.00000000000E+00 0. -1.
         -2   -1    0    0    0  501 -0.00000000000E+00 -0.00000000000E+00 -0.74717866692E+03  0.74717866692E+03  0.00000000000E+00 0.  1.
         23    2    1    2    0    0  0.44608083771E+03 -0.14841771129E+03  0.16445913978E+03  0.50661622072E+03  0.92721387171E+02 0.  0.
        254    2    1    2    0    0 -0.44608083771E+03  0.14841771129E+03 -0.92535928829E+02  0.10596643241E+04  0.94515059689E+03 0.  0.
        -24    2    4    4    0    0  0.24292272707E+03  0.14229128157E+03 -0.20417720839E+03  0.35713362905E+03  0.81227067138E+02 0.  0.
         24    2    4    4    0    0 -0.68900356478E+03  0.61264297179E+01  0.11164127956E+03  0.70253069503E+03  0.79511991101E+02 0.  0.
         11    1    3    3    0    0  0.13967209653E+03 -0.28638512150E+02  0.92181230962E+02  0.16978173715E+03  0.00000000000E+00 0.  1.
        -11    1    3    3    0    0  0.30640874118E+03 -0.11977919914E+03  0.72277908821E+02  0.33683448357E+03  0.00000000000E+00 0. -1.
          2    1    6    6  502    0 -0.32297824462E+03 -0.70674255715E+00  0.12347799548E+02  0.32321496583E+03  0.00000000000E+00 0. -1.
          3    1    5    5  503    0  0.55598065709E+02  0.54031884869E+01 -0.15178149540E+02  0.57885365852E+02  0.00000000000E+00 0. -1.
         -4    1    5    5    0  503  0.18732466136E+03  0.13688809308E+03 -0.18899905885E+03  0.29924826320E+03  0.00000000000E+00 0.  1.
         -1    1    6    6    0  502 -0.36602532017E+03  0.68331722751E+01  0.99293480010E+02  0.37931572920E+03  0.00000000000E+00 0.  1.
<mgrwt>
<rscale>  0 0.15646283E+04</rscale>
<asrwt>0</asrwt>
<pdfrwt beam="1">  1        2 0.12601567E+00 0.15646283E+04</pdfrwt>
<pdfrwt beam="2">  1       -2 0.11495056E+00 0.15646283E+04</pdfrwt>
<totfact> 0.18942060E+01</totfact>
</mgrwt>
</event>
<event>
12    1  0.1472088E-007  0.1786217E+04  0.7818608E-02  0.8713664E-01
         -2   -1    0    0    0  501 -0.00000000000E+00  0.00000000000E+00  0.54997826176E+03  0.54997826176E+03  0.00000000000E+00 0.  1.
          2   -1    0    0  501    0  0.00000000000E+00 -0.00000000000E+00 -0.14503171804E+04  0.14503171804E+04  0.00000000000E+00 0. -1.
         23    2    1    2    0    0  0.52248539265E+02 -0.51503466385E+03 -0.78038055339E+03  0.94084414975E+03  0.90572022188E+02 0.  0.
        254    2    1    2    0    0 -0.52248539265E+02  0.51503466385E+03 -0.11995836529E+03  0.10594512924E+04  0.91654591639E+03 0.  0.
        -24    2    4    4    0    0  0.27672554367E+03 -0.12047566914E+03 -0.13141669940E+03  0.33905715403E+03  0.81228021288E+02 0.  0.
         24    2    4    4    0    0 -0.32897408294E+03  0.63551033298E+03  0.11458334104E+02  0.72039413842E+03  0.82091964744E+02 0.  0.
         11    1    3    3    0    0  0.80372716076E+01 -0.22189313056E+03 -0.25967857109E+03  0.34166375197E+03  0.00000000000E+00 0.  1.
        -11    1    3    3    0    0  0.44211267658E+02 -0.29314153329E+03 -0.52070198229E+03  0.59918039778E+03  0.00000000000E+00 0. -1.
          4    1    6    6  502    0 -0.33292087197E+03  0.62381142507E+03  0.15909738800E+02  0.70726948247E+03  0.00000000000E+00 0. -1.
          3    1    5    5  503    0  0.13778888936E+03 -0.10299384729E+03 -0.62953913263E+02  0.18318489513E+03  0.00000000000E+00 0. -1.
         -4    1    5    5    0  503  0.13893665432E+03 -0.17481821845E+02 -0.68462786136E+02  0.15587225889E+03  0.00000000000E+00 0.  1.
         -3    1    6    6    0  502  0.39467890355E+01  0.11698907909E+02 -0.44514046958E+01  0.13124655947E+02  0.00000000000E+00 0.  1.
<mgrwt>
<rscale>  0 0.17862171E+04</rscale>
<asrwt>0</asrwt>
<pdfrwt beam="1">  1        2 0.22312572E+00 0.17862171E+04</pdfrwt>
<pdfrwt beam="2">  1       -2 0.84612040E-01 0.17862171E+04</pdfrwt>
<totfact> 0.15586136E+01</totfact>
</mgrwt>
</event>
<event>
12    1  0.1472088E-007  0.1413225E+04  0.7818608E-02  0.8944301E-01
         -1   -1    0    0    0  501 -0.00000000000E+00  0.00000000000E+00  0.65706748915E+03  0.65706748915E+03  0.00000000000E+00 0.  1.
          1   -1    0    0  501    0  0.00000000000E+00 -0.00000000000E+00 -0.75989311714E+03  0.75989311714E+03  0.00000000000E+00 0. -1.
         23    2    1    2    0    0 -0.12491499238E+03  0.14523693887E+03  0.33549210646E+03  0.39581647066E+03  0.86128980107E+02 0.  0.
        254    2    1    2    0    0  0.12491499238E+03 -0.14523693887E+03 -0.43831773445E+03  0.10211441356E+04  0.90217259195E+03 0.  0.
        -24    2    4    4    0    0  0.38758193195E+03  0.13151456365E+03  0.22968380593E+02  0.41700631042E+03  0.76491058285E+02 0.  0.
         24    2    4    4    0    0 -0.26266693957E+03 -0.27675150252E+03 -0.46128611505E+03  0.60413782521E+03  0.81316152291E+02 0.  0.
         11    1    3    3    0    0 -0.98646244238E+02  0.11137593926E+03  0.31488302057E+03  0.34826282890E+03  0.00000000000E+00 0.  1.
        -11    1    3    3    0    0 -0.26268748138E+02  0.33860999613E+02  0.20609085890E+02  0.47553641761E+02  0.00000000000E+00 0. -1.
          4    1    6    6  502    0 -0.22099156585E+03 -0.18417006356E+03 -0.35868000047E+03  0.45979041664E+03  0.00000000000E+00 0. -1.
          3    1    5    5  503    0  0.35709839662E+03  0.12755666082E+03  0.40937955654E+02  0.38139989879E+03  0.00000000000E+00 0. -1.
         -4    1    5    5    0  503  0.30483535329E+02  0.39579028333E+01 -0.17969575061E+02  0.35606411626E+02  0.00000000000E+00 0.  1.
         -3    1    6    6    0  502 -0.41675373717E+02 -0.92581438958E+02 -0.10260611457E+03  0.14434740857E+03  0.00000000000E+00 0.  1.
<mgrwt>
<rscale>  0 0.14132248E+04</rscale>
<asrwt>0</asrwt>
<pdfrwt beam="1">  1        1 0.11690663E+00 0.14132248E+04</pdfrwt>
<pdfrwt beam="2">  1       -1 0.10108731E+00 0.14132248E+04</pdfrwt>
<totfact> 0.21738345E+01</totfact>
</mgrwt>
</event>
<event>
12    1  0.1472088E-007  0.1824893E+04  0.7818608E-02  0.8693173E-01
         -2   -1    0    0    0  501 -0.00000000000E+00  0.00000000000E+00  0.42664590646E+03  0.42664590646E+03  0.00000000000E+00 0.  1.
          2   -1    0    0  501    0  0.00000000000E+00 -0.00000000000E+00 -0.19514038218E+04  0.19514038218E+04  0.00000000000E+00 0. -1.
         23    2    1    2    0    0  0.51283634791E+03 -0.32898875843E+03 -0.97284808491E+03  0.11517636204E+04  0.94293786372E+02 0.  0.
        254    2    1    2    0    0 -0.51283634791E+03  0.32898875843E+03 -0.55190983044E+03  0.12262861078E+04  0.90991122336E+03 0.  0.
        -24    2    4    4    0    0 -0.59675496487E+03  0.56576781077E+03 -0.47108842223E+03  0.95100787930E+03  0.79258949929E+02 0.  0.
         24    2    4    4    0    0  0.83918616951E+02 -0.23677905234E+03 -0.80821408216E+02  0.27527822853E+03  0.78353999094E+02 0.  0.
         11    1    3    3    0    0  0.36761952333E+03 -0.26153542056E+03 -0.64787034437E+03  0.78948139512E+03  0.00000000000E+00 0. -1.
        -11    1    3    3    0    0  0.14521682459E+03 -0.67453337870E+02 -0.32497774055E+03  0.36228222532E+03  0.00000000000E+00 0.  1.
          4    1    6    6  502    0  0.97269021254E+02 -0.18439472003E+03 -0.71656772687E+02  0.22044810805E+03  0.00000000000E+00 0. -1.
          3    1    5    5  503    0 -0.59396239335E+03  0.56032680278E+03 -0.47408202586E+03  0.94419871736E+03  0.00000000000E+00 0. -1.
         -4    1    5    5    0  503 -0.27925715137E+01  0.54410079935E+01  0.29936036302E+01  0.68091619410E+01  0.00000000000E+00 0.  1.
         -3    1    6    6    0  502 -0.13350404303E+02 -0.52384332315E+02 -0.91646355297E+01  0.54830120477E+02  0.00000000000E+00 0.  1.
<mgrwt>
<rscale>  0 0.18248928E+04</rscale>
<asrwt>0</asrwt>
<pdfrwt beam="1">  1        2 0.30021597E+00 0.18248928E+04</pdfrwt>
<pdfrwt beam="2">  1       -2 0.65637831E-01 0.18248928E+04</pdfrwt>
<totfact> 0.14320017E+01</totfact>
</mgrwt>
</event>
<event>
12    1  0.1472088E-007  0.1481860E+04  0.7818608E-02  0.8896606E-01
          2   -1    0    0  501    0  0.00000000000E+00  0.00000000000E+00  0.14583136978E+04  0.14583136978E+04  0.00000000000E+00 0.  1.
         -2   -1    0    0    0  501 -0.00000000000E+00 -0.00000000000E+00 -0.37644651564E+03  0.37644651564E+03  0.00000000000E+00 0. -1.
         23    2    1    2    0    0  0.24977173173E+03 -0.15990012442E+03 -0.84198137827E+02  0.32503937562E+03  0.10299175465E+03 0.  0.
        254    2    1    2    0    0 -0.24977173173E+03  0.15990012442E+03  0.11660653199E+04  0.15097208378E+04  0.91191814866E+03 0.  0.
        -24    2    4    4    0    0 -0.22128443101E+03 -0.33228486523E+03  0.77299045785E+03  0.87370584316E+03  0.80421523126E+02 0.  0.
         24    2    4    4    0    0 -0.28487300724E+02  0.49218498965E+03  0.39307486209E+03  0.63601499461E+03  0.83364475756E+02 0.  0.
         11    1    3    3    0    0  0.65407608475E+02 -0.17578506482E+02 -0.60702834652E+02  0.90950499016E+02  0.00000000000E+00 0. -1.
        -11    1    3    3    0    0  0.18436412326E+03 -0.14232161794E+03 -0.23495303175E+02  0.23408887660E+03  0.00000000000E+00 0.  1.
          2    1    6    6  502    0  0.83862208141E+01  0.22460359927E+01  0.66707717587E+01  0.10948633389E+02  0.00000000000E+00 0. -1.
          1    1    5    5  503    0 -0.10170363979E+03 -0.13090813855E+03  0.40369270958E+03  0.43640391251E+03  0.00000000000E+00 0. -1.
         -4    1    5    5    0  503 -0.11958079122E+03 -0.20137672667E+03  0.36929774827E+03  0.43730193065E+03  0.00000000000E+00 0.  1.
         -1    1    6    6    0  502 -0.36873521538E+02  0.48993895366E+03  0.38640409033E+03  0.62506636122E+03  0.00000000000E+00 0.  1.
<mgrwt>
<rscale>  0 0.14818598E+04</rscale>
<asrwt>0</asrwt>
<pdfrwt beam="1">  1        2 0.22435595E+00 0.14818598E+04</pdfrwt>
<pdfrwt beam="2">  1       -2 0.57914849E-01 0.14818598E+04</pdfrwt>
<totfact> 0.36182795E+01</totfact>
</mgrwt>
</event>
<event>
12    1  0.1472088E-007  0.1073866E+04  0.7818608E-02  0.9231045E-01
         -2   -1    0    0    0  501 -0.00000000000E+00  0.00000000000E+00  0.10477233628E+03  0.10477233628E+03  0.00000000000E+00 0.  1.
          2   -1    0    0  501    0  0.00000000000E+00 -0.00000000000E+00 -0.27516500617E+04  0.27516500617E+04  0.00000000000E+00 0. -1.
         23    2    1    2    0    0  0.46722253077E+02  0.52545807700E+02 -0.10020400775E+03  0.15376285230E+03  0.93049130781E+02 0.  0.
        254    2    1    2    0    0 -0.46722253077E+02 -0.52545807700E+02 -0.25466737177E+04  0.27026595457E+04  0.90215163069E+03 0.  0.
        -24    2    4    4    0    0  0.37862726297E+03 -0.21312901137E+03 -0.11638586906E+04  0.12448770762E+04  0.79807916788E+02 0.  0.
         24    2    4    4    0    0 -0.42534951605E+03  0.16058320367E+03 -0.13828150272E+04  0.14577824695E+04  0.79013624980E+02 0.  0.
         13    1    3    3    0    0  0.55963459757E+02  0.69739036426E+02 -0.10012903441E+03  0.13424330733E+03  0.00000000000E+00 0. -1.
        -13    1    3    3    0    0 -0.92412066797E+01 -0.17193228726E+02 -0.74973334257E-01  0.19519544972E+02  0.00000000000E+00 0.  1.
          4    1    6    6  502    0 -0.59090352473E+02  0.44651354841E+02 -0.29384015391E+03  0.30303044285E+03  0.00000000000E+00 0. -1.
          1    1    5    5  503    0  0.91246792364E+01 -0.24954023561E+01 -0.55924927469E+01  0.10989211947E+02  0.00000000000E+00 0. -1.
         -2    1    5    5    0  503  0.36950258374E+03 -0.21063360901E+03 -0.11582661978E+04  0.12338878643E+04  0.00000000000E+00 0.  1.
         -3    1    6    6    0  502 -0.36625916358E+03  0.11593184883E+03 -0.10889748733E+04  0.11547520267E+04  0.00000000000E+00 0.  1.
<mgrwt>
<rscale>  0 0.10738656E+04</rscale>
<asrwt>0</asrwt>
<pdfrwt beam="1">  1        2 0.42333077E+00 0.10738656E+04</pdfrwt>
<pdfrwt beam="2">  1       -2 0.16118821E-01 0.10738656E+04</pdfrwt>
<totfact> 0.77515298E+01</totfact>
</mgrwt>
</event>
<event>
12    1  0.1472088E-007  0.1449394E+04  0.7818608E-02  0.8918820E-01
         -1   -1    0    0    0  501 -0.00000000000E+00  0.00000000000E+00  0.35273079132E+03  0.35273079132E+03  0.00000000000E+00 0.  1.
          1   -1    0    0  501    0  0.00000000000E+00 -0.00000000000E+00 -0.14889144776E+04  0.14889144776E+04  0.00000000000E+00 0. -1.
         23    2    1    2    0    0  0.59671026763E+02  0.11297208483E+02 -0.88534993236E+03  0.89460651515E+03  0.11308428653E+03 0.  0.
        254    2    1    2    0    0 -0.59671026763E+02 -0.11297208483E+02 -0.25083375388E+03  0.94703875372E+03  0.91119513312E+03 0.  0.
        -24    2    4    4    0    0 -0.10217771319E+03 -0.22587133034E+03 -0.52549826132E+03  0.58685398986E+03  0.82407765541E+02 0.  0.
         24    2    4    4    0    0  0.42506686423E+02  0.21457412186E+03  0.27466450744E+03  0.36018476387E+03  0.80272039434E+02 0.  0.
         11    1    3    3    0    0  0.38270828696E+02  0.61982115743E+02 -0.54287257855E+03  0.54773814505E+03  0.00000000000E+00 0. -1.
        -11    1    3    3    0    0  0.21400198068E+02 -0.50684907259E+02 -0.34247735381E+03  0.34686837010E+03  0.00000000000E+00 0.  1.
          4    1    6    6  502    0  0.20899641234E+02  0.27203306743E+02  0.89603106527E+02  0.95945461595E+02  0.00000000000E+00 0. -1.
          1    1    5    5  503    0 -0.61333719064E+02 -0.83791668744E+02 -0.29769594355E+03  0.31528676416E+03  0.00000000000E+00 0. -1.
         -2    1    5    5    0  503 -0.40843994123E+02 -0.14207966160E+03 -0.22780231777E+03  0.27156722570E+03  0.00000000000E+00 0.  1.
         -3    1    6    6    0  502  0.21607045190E+02  0.18737081511E+03  0.18506140091E+03  0.26423930227E+03  0.00000000000E+00 0.  1.
<mgrwt>
<rscale>  0 0.14493943E+04</rscale>
<asrwt>0</asrwt>
<pdfrwt beam="1">  1        1 0.22906377E+00 0.14493943E+04</pdfrwt>
<pdfrwt beam="2">  1       -1 0.54266276E-01 0.14493943E+04</pdfrwt>
<totfact> 0.22177254E+01</totfact>
</mgrwt>
</event>
<event>
12    1  0.1472088E-007  0.2208899E+04  0.7818608E-02  0.8514733E-01
          2   -1    0    0  501    0  0.00000000000E+00  0.00000000000E+00  0.10803444543E+04  0.10803444543E+04  0.00000000000E+00 0. -1.
         -2   -1    0    0    0  501 -0.00000000000E+00 -0.00000000000E+00 -0.11290922347E+04  0.11290922347E+04  0.00000000000E+00 0.  1.
         23    2    1    2    0    0  0.37010941659E+02 -0.58915300684E+03  0.68776741304E+03  0.91092303790E+03  0.91025772566E+02 0.  0.
        254    2    1    2    0    0 -0.37010941659E+02  0.58915300684E+03 -0.73651519345E+03  0.12985136511E+04  0.89174659893E+03 0.  0.
        -24    2    4    4    0    0  0.17730271551E+03  0.49899914465E+03 -0.86714870978E+03  0.10191514244E+04  0.79286453682E+02 0.  0.
         24    2    4    4    0    0 -0.21431365717E+03  0.90153862196E+02  0.13063351633E+03  0.27936222671E+03  0.83186991788E+02 0.  0.
         11    1    3    3    0    0  0.15773116414E+02 -0.65421413406E+02  0.12431970611E+03  0.14136527813E+03  0.00000000000E+00 0.  1.
        -11    1    3    3    0    0  0.21237825246E+02 -0.52373159344E+03  0.56344770693E+03  0.76955775977E+03  0.00000000000E+00 0. -1.
          2    1    6    6  502    0 -0.16511639438E+03  0.44574893880E+02  0.58225253265E+02  0.18066688953E+03  0.00000000000E+00 0. -1.
          3    1    5    5  503    0  0.12966703287E+03  0.43082077700E+03 -0.76419540955E+03  0.88680026234E+03  0.00000000000E+00 0. -1.
         -4    1    5    5    0  503  0.47635682640E+02  0.68178367652E+02 -0.10295330023E+03  0.13235116208E+03  0.00000000000E+00 0.  1.
         -1    1    6    6    0  502 -0.49197262794E+02  0.45578968316E+02  0.72408263068E+02  0.98695337173E+02  0.00000000000E+00 0.  1.
<mgrwt>
<rscale>  0 0.22088989E+04</rscale>
<asrwt>0</asrwt>
<pdfrwt beam="1">  1        2 0.16620684E+00 0.22088989E+04</pdfrwt>
<pdfrwt beam="2">  1       -2 0.17370650E+00 0.22088989E+04</pdfrwt>
<totfact> 0.41058386E+00</totfact>
</mgrwt>
</event>
<event>
12    1  0.1472088E-007  0.2536693E+04  0.7818608E-02  0.8390029E-01
         -2   -1    0    0    0  501 -0.00000000000E+00  0.00000000000E+00  0.28973824636E+03  0.28973824636E+03  0.00000000000E+00 0.  1.
          2   -1    0    0  501    0  0.00000000000E+00 -0.00000000000E+00 -0.55522619630E+04  0.55522619630E+04  0.00000000000E+00 0. -1.
         23    2    1    2    0    0  0.45258982517E+03  0.36933302760E+03 -0.44718629454E+04  0.45108362675E+04  0.94027626041E+02 0.  0.
        254    2    1    2    0    0 -0.45258982517E+03 -0.36933302760E+03 -0.79066077127E+03  0.13311639419E+04  0.89755698976E+03 0.  0.
        -24    2    4    4    0    0 -0.53161583458E+03 -0.22883148536E+03 -0.93417848945E+03  0.11019128129E+04  0.80889756762E+02 0.  0.
         24    2    4    4    0    0  0.79026009404E+02 -0.14050154224E+03  0.14351771818E+03  0.22925112903E+03  0.77284870421E+02 0.  0.
         13    1    3    3    0    0  0.25589158479E+03  0.17002791128E+03 -0.20628489625E+04  0.20856020320E+04  0.00000000000E+00 0.  1.
        -13    1    3    3    0    0  0.19669824039E+03  0.19930511631E+03 -0.24090139829E+04  0.24252342355E+04  0.00000000000E+00 0. -1.
          4    1    6    6  502    0  0.38824357552E+02 -0.10406313591E+03  0.51501047806E+02  0.12242885657E+03  0.00000000000E+00 0. -1.
          1    1    5    5  503    0 -0.41425496399E+03 -0.14420597566E+03 -0.67276316295E+03  0.80312689659E+03  0.00000000000E+00 0. -1.
         -4    1    5    5    0  503 -0.11736087059E+03 -0.84625509694E+02 -0.26141532650E+03  0.29878591628E+03  0.00000000000E+00 0.  1.
         -3    1    6    6    0  502  0.40201651852E+02 -0.36438406325E+02  0.92016670375E+02  0.10682227246E+03  0.00000000000E+00 0.  1.
<mgrwt>
<rscale>  0 0.25366928E+04</rscale>
<asrwt>0</asrwt>
<pdfrwt beam="1">  1        2 0.85419410E+00 0.25366928E+04</pdfrwt>
<pdfrwt beam="2">  1       -2 0.44575117E-01 0.25366928E+04</pdfrwt>
<totfact> 0.20550979E-02</totfact>
</mgrwt>
</event>
<event>
12    1  0.1472088E-007  0.1776562E+04  0.7818608E-02  0.8718864E-01
          2   -1    0    0  501    0  0.00000000000E+00  0.00000000000E+00  0.47310472763E+03  0.47310472763E+03  0.00000000000E+00 0. -1.
         -2   -1    0    0    0  501 -0.00000000000E+00 -0.00000000000E+00 -0.16677989197E+04  0.16677989197E+04  0.00000000000E+00 0.  1.
         23    2    1    2    0    0 -0.64950790888E+02  0.64644417845E+03 -0.41264547082E+03  0.77490651029E+03  0.89972962653E+02 0.  0.
        254    2    1    2    0    0  0.64950790888E+02 -0.64644417845E+03 -0.78204872121E+03  0.13659971370E+04  0.91227150283E+03 0.  0.
        -24    2    4    4    0    0  0.52582633291E+01  0.21078014679E+03 -0.41632633794E+02  0.22885747287E+03  0.78654606207E+02 0.  0.
         24    2    4    4    0    0  0.59692527559E+02 -0.85722432525E+03 -0.74041608742E+03  0.11371396641E+04  0.80460497167E+02 0.  0.
         13    1    3    3    0    0  0.96265296960E+00  0.21214134423E+03 -0.17777125493E+03  0.27678059128E+03  0.00000000000E+00 0. -1.
        -13    1    3    3    0    0 -0.65913443858E+02  0.43430283422E+03 -0.23487421589E+03  0.49812591901E+03  0.00000000000E+00 0.  1.
          2    1    6    6  502    0  0.46187508792E+02 -0.82852622369E+03 -0.69906617347E+03  0.10850264993E+04  0.00000000000E+00 0. -1.
          3    1    5    5  503    0 -0.69934959232E+01  0.19675347902E+03 -0.56724187382E+02  0.20488649035E+03  0.00000000000E+00 0. -1.
         -4    1    5    5    0  503  0.12251759252E+02  0.14026667771E+02  0.15091553588E+02  0.23970982526E+02  0.00000000000E+00 0.  1.
         -1    1    6    6    0  502  0.13505018767E+02 -0.28698101557E+02 -0.41349913955E+02  0.52113164833E+02  0.00000000000E+00 0.  1.
<mgrwt>
<rscale>  0 0.17765625E+04</rscale>
<asrwt>0</asrwt>
<pdfrwt beam="1">  1        2 0.72785342E-01 0.17765625E+04</pdfrwt>
<pdfrwt beam="2">  1       -2 0.25658445E+00 0.17765625E+04</pdfrwt>
<totfact> 0.36363403E+00</totfact>
</mgrwt>
</event>
<event>
12    1  0.1472088E-007  0.1459836E+04  0.7818608E-02  0.8911609E-01
         -2   -1    0    0    0  501 -0.00000000000E+00  0.00000000000E+00  0.39602383557E+03  0.39602383557E+03  0.00000000000E+00 0.  1.
          2   -1    0    0  501    0  0.00000000000E+00 -0.00000000000E+00 -0.13453245366E+04  0.13453245366E+04  0.00000000000E+00 0. -1.
         23    2    1    2    0    0  0.44853761162E+03 -0.13363916352E+02 -0.34750551189E+03  0.57330770514E+03  0.80975679531E+02 0.  0.
        254    2    1    2    0    0 -0.44853761162E+03  0.13363916352E+02 -0.60179518911E+03  0.11680406670E+04  0.89487259810E+03 0.  0.
        -24    2    4    4    0    0 -0.59942635100E+03 -0.33426746696E+02 -0.73053435922E+03  0.94901852780E+03  0.80786251510E+02 0.  0.
         24    2    4    4    0    0  0.15088873937E+03  0.46790663049E+02  0.12873917011E+03  0.21902213920E+03  0.80250518511E+02 0.  0.
         13    1    3    3    0    0  0.17871223667E+03  0.16410210515E+02 -0.97387408179E+02  0.20418537121E+03  0.00000000000E+00 0.  1.
        -13    1    3    3    0    0  0.26982537495E+03 -0.29774126868E+02 -0.25011810371E+03  0.36912233392E+03  0.00000000000E+00 0. -1.
          2    1    6    6  502    0  0.10499403601E+02 -0.11772684165E+02 -0.49249575102E+01  0.16525397874E+02  0.00000000000E+00 0. -1.
          1    1    5    5  503    0 -0.25246577142E+03  0.43705889416E+01 -0.36288677808E+03  0.44209148543E+03  0.00000000000E+00 0. -1.
         -2    1    5    5    0  503 -0.34696057957E+03 -0.37797335638E+02 -0.36764758115E+03  0.50692704237E+03  0.00000000000E+00 0.  1.
         -1    1    6    6    0  502  0.14038933577E+03  0.58563347214E+02  0.13366412762E+03  0.20249674133E+03  0.00000000000E+00 0.  1.
<mgrwt>
<rscale>  0 0.14598364E+04</rscale>
<asrwt>0</asrwt>
<pdfrwt beam="1">  1        2 0.20697300E+00 0.14598364E+04</pdfrwt>
<pdfrwt beam="2">  1       -2 0.60926744E-01 0.14598364E+04</pdfrwt>
<totfact> 0.37797864E+01</totfact>
</mgrwt>
</event>
<event>
12    1  0.1472088E-007  0.1812941E+04  0.7818608E-02  0.8699448E-01
          3   -1    0    0  501    0  0.00000000000E+00  0.00000000000E+00  0.13838598052E+04  0.13838598052E+04  0.00000000000E+00 0. -1.
         -3   -1    0    0    0  501 -0.00000000000E+00 -0.00000000000E+00 -0.59376565624E+03  0.59376565624E+03  0.00000000000E+00 0.  1.
         23    2    1    2    0    0 -0.20855632378E+03  0.57969603158E+03  0.58935289271E+03  0.85736209110E+03  0.90496927526E+02 0.  0.
        254    2    1    2    0    0  0.20855632378E+03 -0.57969603158E+03  0.20074125621E+03  0.11202633703E+04  0.91386527326E+03 0.  0.
        -24    2    4    4    0    0  0.14382835705E+03 -0.56083259046E+03 -0.26584428186E+03  0.64212694438E+03  0.80212465952E+02 0.  0.
         24    2    4    4    0    0  0.64727966721E+02 -0.18863441124E+02  0.46658553806E+03  0.47813642592E+03  0.79792470643E+02 0.  0.
         11    1    3    3    0    0 -0.60066409736E+02  0.23210786529E+03  0.28238729924E+03  0.37043841793E+03  0.00000000000E+00 0. -1.
        -11    1    3    3    0    0 -0.14848991404E+03  0.34758816629E+03  0.30696559347E+03  0.48692367317E+03  0.00000000000E+00 0.  1.
          2    1    6    6  502    0  0.37084774141E+02 -0.24544145337E+02  0.42814806251E+03  0.43045145949E+03  0.00000000000E+00 0. -1.
          3    1    5    5  503    0  0.13953357595E+03 -0.52219674682E+03 -0.26776494718E+03  0.60320570964E+03  0.00000000000E+00 0. -1.
         -4    1    5    5    0  503  0.42947811045E+01 -0.38635843643E+02  0.19206653250E+01  0.38921234744E+02  0.00000000000E+00 0.  1.
         -1    1    6    6    0  502  0.27643192580E+02  0.56807042127E+01  0.38437475550E+02  0.47684966426E+02  0.00000000000E+00 0.  1.
<mgrwt>
<rscale>  0 0.18129406E+04</rscale>
<asrwt>0</asrwt>
<pdfrwt beam="1">  1        3 0.21290151E+00 0.18129406E+04</pdfrwt>
<pdfrwt beam="2">  1       -3 0.91348562E-01 0.18129406E+04</pdfrwt>
<totfact> 0.32560868E-01</totfact>
</mgrwt>
</event>
<event>
12    1  0.1472088E-007  0.2629014E+04  0.7818608E-02  0.8358412E-01
         -2   -1    0    0    0  501 -0.00000000000E+00  0.00000000000E+00  0.90351644005E+03  0.90351644005E+03  0.00000000000E+00 0. -1.
          2   -1    0    0  501    0  0.00000000000E+00 -0.00000000000E+00 -0.19124485956E+04  0.19124485956E+04  0.00000000000E+00 0.  1.
         23    2    1    2    0    0  0.25592881061E+03 -0.13536080495E+03  0.75378568727E+03  0.81321368499E+03  0.96444447733E+02 0.  0.
        254    2    1    2    0    0 -0.25592881061E+03  0.13536080495E+03 -0.17627178429E+04  0.20027513507E+04  0.90554772134E+03 0.  0.
        -24    2    4    4    0    0 -0.24034853428E+03 -0.26596199833E+03 -0.27173039189E+03  0.45655650689E+03  0.78123207927E+02 0.  0.
         24    2    4    4    0    0 -0.15580276334E+02  0.40132280328E+03 -0.14909874510E+04  0.15461948438E+04  0.79825927342E+02 0.  0.
         13    1    3    3    0    0  0.13090249181E+03 -0.10217274579E+03  0.31955663639E+03  0.36012661136E+03  0.00000000000E+00 0. -1.
        -13    1    3    3    0    0  0.12502631880E+03 -0.33188059152E+02  0.43422905088E+03  0.45308707363E+03  0.00000000000E+00 0.  1.
          2    1    6    6  502    0  0.25253899233E+02  0.23721607651E+03 -0.94300092082E+03  0.97270754240E+03  0.00000000000E+00 0. -1.
          1    1    5    5  503    0 -0.10049111153E+03 -0.62131063863E+02 -0.10784597477E+03  0.15996714309E+03  0.00000000000E+00 0. -1.
         -2    1    5    5    0  503 -0.13985742275E+03 -0.20383093447E+03 -0.16388441711E+03  0.29658936380E+03  0.00000000000E+00 0.  1.
         -1    1    6    6    0  502 -0.40834175566E+02  0.16410672677E+03 -0.54798653014E+03  0.57348730141E+03  0.00000000000E+00 0.  1.
<mgrwt>
<rscale>  0 0.26290141E+04</rscale>
<asrwt>0</asrwt>
<pdfrwt beam="1">  1        2 0.29422286E+00 0.26290141E+04</pdfrwt>
<pdfrwt beam="2">  1       -2 0.13900253E+00 0.26290141E+04</pdfrwt>
<totfact> 0.24132955E+00</totfact>
</mgrwt>
</event>
<event>
12    1  0.1472088E-007  0.1425887E+04  0.7818608E-02  0.8935290E-01
          2   -1    0    0  501    0  0.00000000000E+00  0.00000000000E+00  0.14575881388E+04  0.14575881388E+04  0.00000000000E+00 0. -1.
         -2   -1    0    0    0  501 -0.00000000000E+00 -0.00000000000E+00 -0.34871888116E+03  0.34871888116E+03  0.00000000000E+00 0.  1.
         23    2    1    2    0    0 -0.31498625992E+03 -0.35251176084E+02  0.65475997758E+03  0.73317935683E+03  0.91555183799E+02 0.  0.
        254    2    1    2    0    0  0.31498625992E+03  0.35251176084E+02  0.45410928009E+03  0.10731276632E+04  0.91920006192E+03 0.  0.
        -24    2    4    4    0    0 -0.12596450444E+03  0.36351487274E+03  0.72702733874E+02  0.39945588261E+03  0.79178251758E+02 0.  0.
         24    2    4    4    0    0  0.44095076437E+03 -0.32826369666E+03  0.38140654621E+03  0.67367178056E+03  0.78537145927E+02 0.  0.
         11    1    3    3    0    0 -0.50742770074E+02 -0.20153213572E+02  0.19683934711E+03  0.20427116611E+03  0.00000000000E+00 0.  1.
        -11    1    3    3    0    0 -0.26424348985E+03 -0.15097962511E+02  0.45792063046E+03  0.52890819072E+03  0.00000000000E+00 0. -1.
          2    1    6    6  502    0  0.22057583349E+01  0.87718705072E+00  0.12374829810E+02  0.12600446015E+02  0.00000000000E+00 0. -1.
          1    1    5    5  503    0 -0.61039023607E+02  0.82188423868E+02  0.35460470011E+02  0.10834271713E+03  0.00000000000E+00 0. -1.
         -2    1    5    5    0  503 -0.64925480833E+02  0.28132644887E+03  0.37242263862E+02  0.29111316548E+03  0.00000000000E+00 0.  1.
         -1    1    6    6    0  502  0.43874500603E+03 -0.32914088371E+03  0.36903171640E+03  0.66107133454E+03  0.00000000000E+00 0.  1.
<mgrwt>
<rscale>  0 0.14258871E+04</rscale>
<asrwt>0</asrwt>
<pdfrwt beam="1">  1        2 0.22424433E+00 0.14258871E+04</pdfrwt>
<pdfrwt beam="2">  1       -2 0.53649059E-01 0.14258871E+04</pdfrwt>
<totfact> 0.42660861E+01</totfact>
</mgrwt>
</event>
<event>
12    1  0.1472088E-007  0.1741872E+04  0.7818608E-02  0.8737837E-01
          1   -1    0    0  501    0  0.00000000000E+00  0.00000000000E+00  0.10910711766E+04  0.10910711766E+04  0.00000000000E+00 0. -1.
         -1   -1    0    0    0  501 -0.00000000000E+00 -0.00000000000E+00 -0.69521506036E+03  0.69521506036E+03  0.00000000000E+00 0.  1.
         23    2    1    2    0    0 -0.69999303673E+03 -0.82962045197E+01  0.11794590765E+03  0.71565873386E+03  0.90537880156E+02 0.  0.
        254    2    1    2    0    0  0.69999303673E+03  0.82962045197E+01  0.27791020858E+03  0.10706275031E+04  0.76088769726E+03 0.  0.
        -24    2    4    4    0    0  0.16389803274E+03 -0.30375253274E+03 -0.61130449577E+02  0.35935078556E+03  0.79170000223E+02 0.  0.
         24    2    4    4    0    0  0.53609500398E+03  0.31204873726E+03  0.33904065816E+03  0.71127671752E+03  0.78700274949E+02 0.  0.
         13    1    3    3    0    0 -0.45637968093E+03 -0.27185163569E+02  0.11441859494E+03  0.47128872377E+03  0.00000000000E+00 0. -1.
        -13    1    3    3    0    0 -0.24361335580E+03  0.18888959050E+02  0.35273127082E+01  0.24437001009E+03  0.00000000000E+00 0.  1.
          2    1    6    6  502    0  0.41174528797E+03  0.20273534191E+03  0.26439851905E+03  0.52966251320E+03  0.00000000000E+00 0. -1.
          1    1    5    5  503    0  0.14267169772E+03 -0.27648111240E+03 -0.78210419358E+02  0.32080194597E+03  0.00000000000E+00 0. -1.
         -2    1    5    5    0  503  0.21226335028E+02 -0.27271420342E+02  0.17079969781E+02  0.38548839592E+02  0.00000000000E+00 0.  1.
         -1    1    6    6    0  502  0.12434971602E+03  0.10931339535E+03  0.74642139114E+02  0.18161420431E+03  0.00000000000E+00 0.  1.
<mgrwt>
<rscale>  0 0.17418715E+04</rscale>
<asrwt>0</asrwt>
<pdfrwt beam="1">  1        1 0.16785710E+00 0.17418715E+04</pdfrwt>
<pdfrwt beam="2">  1       -1 0.10695616E+00 0.17418715E+04</pdfrwt>
<totfact> 0.99581646E+00</totfact>
</mgrwt>
</event>
<event>
12    1  0.1472088E-007  0.1187198E+04  0.7818608E-02  0.9124137E-01
         -2   -1    0    0    0  501 -0.00000000000E+00  0.00000000000E+00  0.63410027815E+03  0.63410027815E+03  0.00000000000E+00 0.  1.
          2   -1    0    0  501    0  0.00000000000E+00 -0.00000000000E+00 -0.55568431631E+03  0.55568431631E+03  0.00000000000E+00 0. -1.
         23    2    1    2    0    0  0.11016249216E+03 -0.19898422079E+03 -0.26915484478E+02  0.24685419620E+03  0.92098078558E+02 0.  0.
        254    2    1    2    0    0 -0.11016249216E+03  0.19898422079E+03  0.10533144632E+03  0.94293039826E+03  0.90900634078E+03 0.  0.
        -24    2    4    4    0    0 -0.40935967692E+03  0.31736941997E+03  0.25144905508E+03  0.58076272521E+03  0.75894807997E+02 0.  0.
         24    2    4    4    0    0  0.29919718476E+03 -0.11838519917E+03 -0.14611760876E+03  0.36216767305E+03  0.79253120192E+02 0.  0.
         13    1    3    3    0    0  0.37492204575E+02 -0.10702753020E+02 -0.22438609590E+02  0.44985614661E+02  0.00000000000E+00 0. -1.
        -13    1    3    3    0    0  0.72670287586E+02 -0.18828146777E+03 -0.44768748882E+01  0.20186858154E+03  0.00000000000E+00 0.  1.
          2    1    6    6  502    0  0.87768166155E+01 -0.10266149064E+02 -0.26962188574E+02  0.30156026582E+02  0.00000000000E+00 0. -1.
          3    1    5    5  503    0 -0.78657234177E+01  0.10028407889E+02  0.22192854201E+02  0.25592212629E+02  0.00000000000E+00 0. -1.
         -4    1    5    5    0  503 -0.40149395350E+03  0.30734101208E+03  0.22925620088E+03  0.55517051259E+03  0.00000000000E+00 0.  1.
         -1    1    6    6    0  502  0.29042036814E+03 -0.10811905011E+03 -0.11915542018E+03  0.33201164646E+03  0.00000000000E+00 0.  1.
<mgrwt>
<rscale>  0 0.11871977E+04</rscale>
<asrwt>0</asrwt>
<pdfrwt beam="1">  1        2 0.85489895E-01 0.11871977E+04</pdfrwt>
<pdfrwt beam="2">  1       -2 0.97553889E-01 0.11871977E+04</pdfrwt>
<totfact> 0.47047493E+01</totfact>
</mgrwt>
</event>
<event>
12    1  0.1472088E-007  0.1874563E+04  0.7818608E-02  0.8667623E-01
         -2   -1    0    0    0  501 -0.00000000000E+00  0.00000000000E+00  0.16108201363E+04  0.16108201363E+04  0.00000000000E+00 0.  1.
          2   -1    0    0  501    0  0.00000000000E+00 -0.00000000000E+00 -0.54537231488E+03  0.54537231488E+03  0.00000000000E+00 0. -1.
         23    2    1    2    0    0  0.30727398080E+03 -0.61281435355E+03  0.66015561062E+03  0.95608457410E+03  0.91288287306E+02 0.  0.
        254    2    1    2    0    0 -0.30727398080E+03  0.61281435355E+03  0.40529221078E+03  0.12001078771E+04  0.89779641860E+03 0.  0.
        -24    2    4    4    0    0 -0.20171806103E+03 -0.20557601533E+03  0.11909299442E+03  0.32300244421E+03  0.84827845791E+02 0.  0.
         24    2    4    4    0    0 -0.10555591978E+03  0.81839036888E+03  0.28619921636E+03  0.87710543285E+03  0.80617000832E+02 0.  0.
         13    1    3    3    0    0  0.11207750174E+02 -0.90516291457E+02  0.88163045261E+02  0.12685241516E+03  0.00000000000E+00 0. -1.
        -13    1    3    3    0    0  0.29606623063E+03 -0.52229806209E+03  0.57199256536E+03  0.82923215893E+03  0.00000000000E+00 0.  1.
          4    1    6    6  502    0 -0.11638072084E+03  0.73277354474E+03  0.24405559573E+03  0.78106636969E+03  0.00000000000E+00 0. -1.
          3    1    5    5  503    0 -0.19218160840E+03 -0.19607544310E+03  0.13174742939E+03  0.30452706800E+03  0.00000000000E+00 0. -1.
         -4    1    5    5    0  503 -0.95364526286E+01 -0.95005722224E+01 -0.12654434975E+02  0.18475376203E+02  0.00000000000E+00 0.  1.
         -3    1    6    6    0  502  0.10824801060E+02  0.85616824132E+02  0.42143620628E+02  0.96039063157E+02  0.00000000000E+00 0.  1.
<mgrwt>
<rscale>  0 0.18745631E+04</rscale>
<asrwt>0</asrwt>
<pdfrwt beam="1">  1        2 0.83903433E-01 0.18745631E+04</pdfrwt>
<pdfrwt beam="2">  1       -2 0.24781848E+00 0.18745631E+04</pdfrwt>
<totfact> 0.34582299E+00</totfact>
</mgrwt>
</event>
<event>
12    1  0.1472088E-007  0.1529626E+04  0.7818608E-02  0.8864988E-01
         -3   -1    0    0    0  501 -0.00000000000E+00  0.00000000000E+00  0.13119647943E+04  0.13119647943E+04  0.00000000000E+00 0.  1.
          3   -1    0    0  501    0  0.00000000000E+00 -0.00000000000E+00 -0.44584932411E+03  0.44584932411E+03  0.00000000000E+00 0. -1.
         23    2    1    2    0    0 -0.43501575705E+03 -0.15135605640E+03  0.30027902422E+03  0.55724614614E+03  0.90600277670E+02 0.  0.
        254    2    1    2    0    0  0.43501575705E+03  0.15135605640E+03  0.56583644600E+03  0.12005679723E+04  0.95343862300E+03 0.  0.
        -24    2    4    4    0    0  0.17374663407E+03  0.20061745865E+03  0.79403873477E+03  0.84100399386E+03  0.79717926539E+02 0.  0.
         24    2    4    4    0    0  0.26126912298E+03 -0.49261402246E+02 -0.22820228877E+03  0.35956397845E+03  0.80757226460E+02 0.  0.
         11    1    3    3    0    0 -0.68799636651E-01 -0.53035862415E+01 -0.40530789662E+01  0.66753434007E+01  0.00000000000E+00 0.  1.
        -11    1    3    3    0    0 -0.43494695741E+03 -0.14605247016E+03  0.30433210318E+03  0.55057080274E+03  0.00000000000E+00 0. -1.
          4    1    6    6  502    0  0.88825114868E+02  0.21620929275E+02 -0.74117208964E+02  0.11768910858E+03  0.00000000000E+00 0. -1.
          1    1    5    5  503    0  0.54616370914E+02  0.43202070347E+02  0.32023063837E+03  0.32771485868E+03  0.00000000000E+00 0. -1.
         -2    1    5    5    0  503  0.11913026316E+03  0.15741538830E+03  0.47380809640E+03  0.51328913518E+03  0.00000000000E+00 0.  1.
         -3    1    6    6    0  502  0.17244400811E+03 -0.70882331521E+02 -0.15408507980E+03  0.24187486987E+03  0.00000000000E+00 0.  1.
<mgrwt>
<rscale>  0 0.15296256E+04</rscale>
<asrwt>0</asrwt>
<pdfrwt beam="1">  1        3 0.68592204E-01 0.15296256E+04</pdfrwt>
<pdfrwt beam="2">  1       -3 0.20184074E+00 0.15296256E+04</pdfrwt>
<totfact> 0.73436625E-01</totfact>
</mgrwt>
</event>
<event>
12    1  0.1472088E-007  0.1677867E+04  0.7818608E-02  0.8774089E-01
          1   -1    0    0  501    0  0.00000000000E+00  0.00000000000E+00  0.28327629255E+04  0.28327629255E+04  0.00000000000E+00 0. -1.
         -1   -1    0    0    0  501 -0.00000000000E+00 -0.00000000000E+00 -0.24845327111E+03  0.24845327111E+03  0.00000000000E+00 0.  1.
         23    2    1    2    0    0 -0.53375174769E+03 -0.14621588698E+03  0.13344494474E+04  0.14475095874E+04  0.90877193091E+02 0.  0.
        254    2    1    2    0    0  0.53375174769E+03  0.14621588698E+03  0.12498602070E+04  0.16337066092E+04  0.89474953709E+03 0.  0.
        -24    2    4    4    0    0 -0.21717490095E+03  0.11290176051E+02  0.10250262702E+03  0.25349536874E+03  0.80378527907E+02 0.  0.
         24    2    4    4    0    0  0.75092664864E+03  0.13492571093E+03  0.11473575800E+04  0.13802112404E+04  0.80360891293E+02 0.  0.
         13    1    3    3    0    0 -0.52421678419E+03 -0.14788507633E+03  0.12634842073E+04  0.13758871955E+04  0.00000000000E+00 0. -1.
        -13    1    3    3    0    0 -0.95349635040E+01  0.16691893524E+01  0.70965240109E+02  0.71622391930E+02  0.00000000000E+00 0.  1.
          4    1    6    6  502    0  0.12274520394E+03  0.36164172387E+02  0.24350607878E+03  0.27508079333E+03  0.00000000000E+00 0. -1.
          3    1    5    5  503    0 -0.64816797363E+02 -0.21818764467E+02  0.28393421066E+01  0.68449525688E+02  0.00000000000E+00 0. -1.
         -4    1    5    5    0  503 -0.15235810358E+03  0.33108940519E+02  0.99663284916E+02  0.18504584305E+03  0.00000000000E+00 0.  1.
         -3    1    6    6    0  502  0.62818144469E+03  0.98761538541E+02  0.90385150118E+03  0.11051304471E+04  0.00000000000E+00 0.  1.
<mgrwt>
<rscale>  0 0.16778668E+04</rscale>
<asrwt>0</asrwt>
<pdfrwt beam="1">  1        1 0.43580966E+00 0.16778668E+04</pdfrwt>
<pdfrwt beam="2">  1       -1 0.38223582E-01 0.16778668E+04</pdfrwt>
<totfact> 0.49979266E+00</totfact>
</mgrwt>
</event>
<event>
12    1  0.1472088E-007  0.1183440E+04  0.7818608E-02  0.9127477E-01
          1   -1    0    0  501    0  0.00000000000E+00  0.00000000000E+00  0.13161811186E+04  0.13161811186E+04  0.00000000000E+00 0. -1.
         -1   -1    0    0    0  501 -0.00000000000E+00 -0.00000000000E+00 -0.26602139703E+03  0.26602139703E+03  0.00000000000E+00 0.  1.
         23    2    1    2    0    0 -0.45590486290E+02 -0.96624747525E+02  0.49617020788E+03  0.51583565066E+03  0.92123335944E+02 0.  0.
        254    2    1    2    0    0  0.45590486290E+02  0.96624747525E+02  0.55398951373E+03  0.10663668650E+04  0.90488622225E+03 0.  0.
        -24    2    4    4    0    0 -0.22423433326E+03  0.32655382440E+03 -0.25002504902E+00  0.40423213914E+03  0.80530263605E+02 0.  0.
         24    2    4    4    0    0  0.26982481955E+03 -0.22992907688E+03  0.55423953878E+03  0.66213472588E+03  0.74619804576E+02 0.  0.
         11    1    3    3    0    0 -0.44198797996E+02 -0.80732113924E+02  0.21076589701E+03  0.22998580675E+03  0.00000000000E+00 0. -1.
        -11    1    3    3    0    0 -0.13916882943E+01 -0.15892633602E+02  0.28540431087E+03  0.28584984391E+03  0.00000000000E+00 0.  1.
          4    1    6    6  502    0  0.87081917393E+02 -0.32769939293E+02  0.15646591712E+03  0.18204041441E+03  0.00000000000E+00 0. -1.
          1    1    5    5  503    0 -0.39158240527E+02  0.16567531868E+02 -0.72446868681E+01  0.43131617187E+02  0.00000000000E+00 0. -1.
         -2    1    5    5    0  503 -0.18507609274E+03  0.30998629253E+03  0.69946618191E+01  0.36110052195E+03  0.00000000000E+00 0.  1.
         -3    1    6    6    0  502  0.18274290216E+03 -0.19715913758E+03  0.39777362166E+03  0.48009431148E+03  0.00000000000E+00 0.  1.
<mgrwt>
<rscale>  0 0.11834396E+04</rscale>
<asrwt>0</asrwt>
<pdfrwt beam="1">  1        1 0.20248940E+00 0.11834396E+04</pdfrwt>
<pdfrwt beam="2">  1       -1 0.40926370E-01 0.11834396E+04</pdfrwt>
<totfact> 0.50946820E+01</totfact>
</mgrwt>
</event>
<event>
12    1  0.1472088E-007  0.1654101E+04  0.7818608E-02  0.8787984E-01
          2   -1    0    0  501    0  0.00000000000E+00  0.00000000000E+00  0.47502797618E+03  0.47502797618E+03  0.00000000000E+00 0. -1.
         -2   -1    0    0    0  501 -0.00000000000E+00 -0.00000000000E+00 -0.14399412257E+04  0.14399412257E+04  0.00000000000E+00 0.  1.
         23    2    1    2    0    0  0.38193860640E+03 -0.41135494355E+03 -0.16912800362E+03  0.59294402167E+03  0.88816341897E+02 0.  0.
        254    2    1    2    0    0 -0.38193860640E+03  0.41135494355E+03 -0.79578524587E+03  0.13220251802E+04  0.89408412961E+03 0.  0.
        -24    2    4    4    0    0  0.57421507462E+02  0.21226218071E+03 -0.79782483197E+03  0.83147912069E+03  0.80502191014E+02 0.  0.
         24    2    4    4    0    0 -0.43936011386E+03  0.19909276285E+03  0.20395861005E+01  0.49054605948E+03  0.89196629399E+02 0.  0.
         11    1    3    3    0    0  0.23399785365E+03 -0.27022159257E+03 -0.64366242731E+02  0.36320478770E+03  0.00000000000E+00 0. -1.
        -11    1    3    3    0    0  0.14794075275E+03 -0.14113335098E+03 -0.10476176089E+03  0.22973923398E+03  0.00000000000E+00 0.  1.
          4    1    6    6  502    0 -0.23569372502E+03  0.11364470213E+03 -0.42901786767E+02  0.26515507471E+03  0.00000000000E+00 0. -1.
          1    1    5    5  503    0  0.40113543611E+02  0.45624878443E+02 -0.30396117000E+03  0.30997277103E+03  0.00000000000E+00 0. -1.
         -2    1    5    5    0  503  0.17307963851E+02  0.16663730226E+03 -0.49386366197E+03  0.52150634965E+03  0.00000000000E+00 0.  1.
         -3    1    6    6    0  502 -0.20366638883E+03  0.85448060720E+02  0.44941372868E+02  0.22539098477E+03  0.00000000000E+00 0.  1.
<mgrwt>
<rscale>  0 0.16541008E+04</rscale>
<asrwt>0</asrwt>
<pdfrwt beam="1">  1        2 0.73081229E-01 0.16541008E+04</pdfrwt>
<pdfrwt beam="2">  1       -2 0.22152941E+00 0.16541008E+04</pdfrwt>
<totfact> 0.60278985E+00</totfact>
</mgrwt>
</event>
<event>
12    1  0.1472088E-007  0.1432214E+04  0.7818608E-02  0.8930825E-01
         -1   -1    0    0    0  501 -0.00000000000E+00  0.00000000000E+00  0.31325919364E+03  0.31325919364E+03  0.00000000000E+00 0.  1.
          1   -1    0    0  501    0  0.00000000000E+00 -0.00000000000E+00 -0.16370123741E+04  0.16370123741E+04  0.00000000000E+00 0. -1.
         23    2    1    2    0    0  0.19329457756E+01  0.20202605412E+03  0.10128794830E+03  0.24347190958E+03  0.90559701080E+02 0.  0.
        254    2    1    2    0    0 -0.19329457756E+01 -0.20202605412E+03 -0.14250411287E+04  0.17067996581E+04  0.91739009784E+03 0.  0.
        -24    2    4    4    0    0 -0.14957922079E+03 -0.45311889590E+03 -0.12860331226E+04  0.13740062374E+04  0.79506419380E+02 0.  0.
         24    2    4    4    0    0  0.14764627501E+03  0.25109284178E+03 -0.13900800611E+03  0.33279342077E+03  0.81124579676E+02 0.  0.
         11    1    3    3    0    0  0.33323456425E+02  0.70488738604E+02  0.69744510436E+02  0.10461076309E+03  0.00000000000E+00 0.  1.
        -11    1    3    3    0    0 -0.31390510650E+02  0.13153731552E+03  0.31543437868E+02  0.13886114649E+03  0.00000000000E+00 0. -1.
          2    1    6    6  502    0  0.17110752046E+02 -0.16249281636E+01 -0.27675531262E+01  0.17409123396E+02  0.00000000000E+00 0. -1.
          1    1    5    5  503    0 -0.29472832658E+02 -0.23926681591E+02 -0.93489701947E+02  0.10090321267E+03  0.00000000000E+00 0. -1.
         -2    1    5    5    0  503 -0.12010638813E+03 -0.42919221431E+03 -0.11925434207E+04  0.12731030247E+04  0.00000000000E+00 0.  1.
         -1    1    6    6    0  502  0.13053552296E+03  0.25271776995E+03 -0.13624045299E+03  0.31538429738E+03  0.00000000000E+00 0.  1.
<mgrwt>
<rscale>  0 0.14322139E+04</rscale>
<asrwt>0</asrwt>
<pdfrwt beam="1">  1        1 0.25184805E+00 0.14322139E+04</pdfrwt>
<pdfrwt beam="2">  1       -1 0.48193723E-01 0.14322139E+04</pdfrwt>
<totfact> 0.22035294E+01</totfact>
</mgrwt>
</event>
<event>
12    1  0.1472088E-007  0.2484404E+04  0.7818608E-02  0.8408563E-01
         -2   -1    0    0    0  501 -0.00000000000E+00  0.00000000000E+00  0.66917408207E+03  0.66917408207E+03  0.00000000000E+00 0.  1.
          2   -1    0    0  501    0  0.00000000000E+00 -0.00000000000E+00 -0.23059252419E+04  0.23059252419E+04  0.00000000000E+00 0. -1.
         23    2    1    2    0    0 -0.90677954542E+03 -0.36592634143E+03 -0.13004208750E+04  0.16297751675E+04  0.94453232985E+02 0.  0.
        254    2    1    2    0    0  0.90677954542E+03  0.36592634143E+03 -0.33633028482E+03  0.13453241564E+04  0.86059734721E+03 0.  0.
        -24    2    4    4    0    0 -0.14834596073E+03 -0.32178738045E+02 -0.42448976551E+02  0.17711552864E+03  0.80783659402E+02 0.  0.
         24    2    4    4    0    0  0.10551255062E+04  0.39810507947E+03 -0.29388130827E+03  0.11682086278E+04  0.81041265097E+02 0.  0.
         13    1    3    3    0    0 -0.78499856501E+03 -0.28061966416E+03 -0.11091606328E+04  0.13875184512E+04  0.00000000000E+00 0. -1.
        -13    1    3    3    0    0 -0.12178098041E+03 -0.85306677267E+02 -0.19126024220E+03  0.24225671636E+03  0.00000000000E+00 0.  1.
          4    1    6    6  502    0  0.79392213285E+03  0.33020169915E+03 -0.24345207317E+03  0.89365229653E+03  0.00000000000E+00 0. -1.
          1    1    5    5  503    0 -0.14740497042E+03 -0.44812741922E+02 -0.25827138504E+02  0.15621603063E+03  0.00000000000E+00 0. -1.
         -2    1    5    5    0  503 -0.94099031058E+00  0.12634003877E+02 -0.16621838047E+02  0.20899498003E+02  0.00000000000E+00 0.  1.
         -3    1    6    6    0  502  0.26120337330E+03  0.67903380325E+02 -0.50429235098E+02  0.27455633126E+03  0.00000000000E+00 0.  1.
<mgrwt>
<rscale>  0 0.24844037E+04</rscale>
<asrwt>0</asrwt>
<pdfrwt beam="1">  1        2 0.35475773E+00 0.24844037E+04</pdfrwt>
<pdfrwt beam="2">  1       -2 0.10294986E+00 0.24844037E+04</pdfrwt>
<totfact> 0.30956010E+00</totfact>
</mgrwt>
</event>
<event>
12    1  0.1472088E-007  0.1758605E+04  0.7818608E-02  0.8728628E-01
         -1   -1    0    0    0  501 -0.00000000000E+00  0.00000000000E+00  0.38758674829E+03  0.38758674829E+03  0.00000000000E+00 0.  1.
          1   -1    0    0  501    0  0.00000000000E+00 -0.00000000000E+00 -0.19948390861E+04  0.19948390861E+04  0.00000000000E+00 0. -1.
         23    2    1    2    0    0 -0.42624968397E+03 -0.53103104364E+02  0.65062735870E+02  0.44366368766E+03  0.89975415360E+02 0.  0.
        254    2    1    2    0    0  0.42624968397E+03  0.53103104364E+02 -0.16723150736E+04  0.19387621467E+04  0.88184591802E+03 0.  0.
        -24    2    4    4    0    0  0.13974230036E+03  0.39501418653E+03 -0.12444984976E+04  0.13155606038E+04  0.79743800689E+02 0.  0.
         24    2    4    4    0    0  0.28650738361E+03 -0.34191108217E+03 -0.42781657607E+03  0.62320154289E+03  0.79771369091E+02 0.  0.
         11    1    3    3    0    0 -0.17816544389E+02  0.16644744715E+02  0.61992444019E+01  0.25157651157E+02  0.00000000000E+00 0. -1.
        -11    1    3    3    0    0 -0.40843313958E+03 -0.69747849079E+02  0.58863491469E+02  0.41850603650E+03  0.00000000000E+00 0.  1.
          4    1    6    6  502    0  0.28704104978E+03 -0.32838599680E+03 -0.39798247694E+03  0.59044049582E+03  0.00000000000E+00 0. -1.
          1    1    5    5  503    0  0.83740923632E+02  0.30118394788E+03 -0.10007596257E+04  0.10484484447E+04  0.00000000000E+00 0. -1.
         -2    1    5    5    0  503  0.56001376730E+02  0.93830238654E+02 -0.24373887182E+03  0.26711215906E+03  0.00000000000E+00 0.  1.
         -3    1    6    6    0  502 -0.53366617870E+00 -0.13525085368E+02 -0.29834099135E+02  0.32761047068E+02  0.00000000000E+00 0.  1.
<mgrwt>
<rscale>  0 0.17586054E+04</rscale>
<asrwt>0</asrwt>
<pdfrwt beam="1">  1        1 0.30689832E+00 0.17586054E+04</pdfrwt>
<pdfrwt beam="2">  1       -1 0.59628731E-01 0.17586054E+04</pdfrwt>
<totfact> 0.81126985E+00</totfact>
</mgrwt>
</event>
<event>
12    1  0.1472088E-007  0.1530571E+04  0.7818608E-02  0.8864374E-01
          1   -1    0    0  501    0  0.00000000000E+00  0.00000000000E+00  0.11148069690E+04  0.11148069690E+04  0.00000000000E+00 0. -1.
         -1   -1    0    0    0  501 -0.00000000000E+00 -0.00000000000E+00 -0.52534817012E+03  0.52534817012E+03  0.00000000000E+00 0.  1.
         23    2    1    2    0    0 -0.41259733957E+03  0.13705167981E+02  0.48187418611E+03  0.64305466763E+03  0.10436559817E+03 0.  0.
        254    2    1    2    0    0  0.41259733957E+03 -0.13705167981E+02  0.10758461275E+03  0.99710047147E+03  0.90122722166E+03 0.  0.
        -24    2    4    4    0    0  0.54701885202E+03 -0.31104921164E+03  0.16952155269E+03  0.65657519897E+03  0.79826051848E+02 0.  0.
         24    2    4    4    0    0 -0.13442151245E+03  0.29734404366E+03 -0.61936939940E+02  0.34052527250E+03  0.75090967299E+02 0.  0.
         13    1    3    3    0    0 -0.34543028586E+02 -0.14946505227E+02  0.91163572484E+02  0.98627662400E+02  0.00000000000E+00 0. -1.
        -13    1    3    3    0    0 -0.37805431098E+03  0.28651673208E+02  0.39071061362E+03  0.54442700523E+03  0.00000000000E+00 0.  1.
          4    1    6    6  502    0  0.33729490934E+01 -0.26171163381E+01  0.12213928142E+01  0.44404823973E+01  0.00000000000E+00 0. -1.
          3    1    5    5  503    0  0.14499666042E+03 -0.11596682513E+03  0.72426811118E+02  0.19929370043E+03  0.00000000000E+00 0. -1.
         -4    1    5    5    0  503  0.40202219160E+03 -0.19508238651E+03  0.97094741572E+02  0.45728149854E+03  0.00000000000E+00 0.  1.
         -3    1    6    6    0  502 -0.13779446155E+03  0.29996116000E+03 -0.63158332754E+02  0.33608479010E+03  0.00000000000E+00 0.  1.
<mgrwt>
<rscale>  0 0.15305709E+04</rscale>
<asrwt>0</asrwt>
<pdfrwt beam="1">  1        1 0.17150876E+00 0.15305709E+04</pdfrwt>
<pdfrwt beam="2">  1       -1 0.80822796E-01 0.15305709E+04</pdfrwt>
<totfact> 0.18201734E+01</totfact>
</mgrwt>
</event>
<event>
12    1  0.1472088E-007  0.1808362E+04  0.7818608E-02  0.8701865E-01
          1   -1    0    0  501    0  0.00000000000E+00  0.00000000000E+00  0.72184307378E+03  0.72184307378E+03  0.00000000000E+00 0. -1.
         -1   -1    0    0    0  501 -0.00000000000E+00 -0.00000000000E+00 -0.11325780573E+04  0.11325780573E+04  0.00000000000E+00 0.  1.
         23    2    1    2    0    0  0.59849724297E+03  0.47441455891E+02 -0.48203416058E+03  0.77598724202E+03  0.96693465282E+02 0.  0.
        254    2    1    2    0    0 -0.59849724297E+03 -0.47441455891E+02  0.71299177062E+02  0.10784338891E+04  0.89302096215E+03 0.  0.
        -24    2    4    4    0    0 -0.73542355631E+03  0.19181632700E+03  0.15495121858E+03  0.77979186625E+03  0.80150883073E+02 0.  0.
         24    2    4    4    0    0  0.13692631334E+03 -0.23925778289E+03 -0.83652041516E+02  0.29864202280E+03  0.78716527980E+02 0.  0.
         13    1    3    3    0    0  0.10201859892E+03  0.44228653022E+02 -0.99688615628E+02  0.14933783298E+03  0.00000000000E+00 0. -1.
        -13    1    3    3    0    0  0.49647864405E+03  0.32128028682E+01 -0.38234554495E+03  0.62664940904E+03  0.00000000000E+00 0.  1.
          4    1    6    6  502    0  0.14490967987E+03 -0.20246844708E+03 -0.70608343964E+02  0.25880074501E+03  0.00000000000E+00 0. -1.
          1    1    5    5  503    0 -0.71697713796E+03  0.17974844949E+03  0.13788951433E+03  0.75191704304E+03  0.00000000000E+00 0. -1.
         -2    1    5    5    0  503 -0.18446418353E+02  0.12067877507E+02  0.17061704244E+02  0.27874823215E+02  0.00000000000E+00 0.  1.
         -3    1    6    6    0  502 -0.79833665245E+01 -0.36789335808E+02 -0.13043697552E+02  0.39841277792E+02  0.00000000000E+00 0.  1.
<mgrwt>
<rscale>  0 0.18083624E+04</rscale>
<asrwt>0</asrwt>
<pdfrwt beam="1">  1        1 0.11105278E+00 0.18083624E+04</pdfrwt>
<pdfrwt beam="2">  1       -1 0.17424278E+00 0.18083624E+04</pdfrwt>
<totfact> 0.56139749E+00</totfact>
</mgrwt>
</event>
<event>
12    1  0.1472088E-007  0.1434928E+04  0.7818608E-02  0.8928917E-01
         -2   -1    0    0    0  501 -0.00000000000E+00  0.00000000000E+00  0.74898066645E+03  0.74898066645E+03  0.00000000000E+00 0.  1.
          2   -1    0    0  501    0  0.00000000000E+00 -0.00000000000E+00 -0.68727328763E+03  0.68727328763E+03  0.00000000000E+00 0. -1.
         23    2    1    2    0    0 -0.35158203219E+03 -0.10150707778E+03 -0.20264416223E+03  0.42835983868E+03  0.92270703392E+02 0.  0.
        254    2    1    2    0    0  0.35158203219E+03  0.10150707778E+03  0.26435154106E+03  0.10078941154E+04  0.90114105356E+03 0.  0.
        -24    2    4    4    0    0  0.13187889270E+03  0.48209196267E+03  0.39182482224E+02  0.50772034084E+03  0.80249453430E+02 0.  0.
         24    2    4    4    0    0  0.21970313950E+03 -0.38058488489E+03  0.22516905883E+03  0.50017377457E+03  0.79739423087E+02 0.  0.
         11    1    3    3    0    0 -0.35258940485E+03 -0.10795165436E+03 -0.19164672141E+03  0.41557347596E+03  0.00000000000E+00 0. -1.
        -11    1    3    3    0    0  0.10073726607E+01  0.64445765788E+01 -0.10997440818E+02  0.12786362716E+02  0.00000000000E+00 0.  1.
          2    1    6    6  502    0  0.76383994573E+02 -0.87849872110E+02  0.29791267043E+02  0.12016502923E+03  0.00000000000E+00 0. -1.
          1    1    5    5  503    0  0.21092105871E+01  0.13869796148E+03  0.17999697907E+01  0.13872567599E+03  0.00000000000E+00 0. -1.
         -2    1    5    5    0  503  0.12976968211E+03  0.34339400119E+03  0.37382512434E+02  0.36899466485E+03  0.00000000000E+00 0.  1.
         -1    1    6    6    0  502  0.14331914492E+03 -0.29273501278E+03  0.19537779179E+03  0.38000874534E+03  0.00000000000E+00 0.  1.
<mgrwt>
<rscale>  0 0.14349277E+04</rscale>
<asrwt>0</asrwt>
<pdfrwt beam="1">  1        2 0.10573435E+00 0.14349277E+04</pdfrwt>
<pdfrwt beam="2">  1       -2 0.11522779E+00 0.14349277E+04</pdfrwt>
<totfact> 0.23889124E+01</totfact>
</mgrwt>
</event>
<event>
12    1  0.1472088E-007  0.1093615E+04  0.7818608E-02  0.9211437E-01
          2   -1    0    0  501    0  0.00000000000E+00  0.00000000000E+00  0.24663059555E+04  0.24663059555E+04  0.00000000000E+00 0. -1.
         -2   -1    0    0    0  501 -0.00000000000E+00 -0.00000000000E+00 -0.12123336236E+03  0.12123336236E+03  0.00000000000E+00 0.  1.
         23    2    1    2    0    0 -0.10656913013E+03  0.11603354428E+02  0.14708689285E+03  0.20364407686E+03  0.91349541106E+02 0.  0.
        254    2    1    2    0    0  0.10656913013E+03 -0.11603354428E+02  0.21979857003E+04  0.23838952410E+04  0.91669174974E+03 0.  0.
        -24    2    4    4    0    0  0.44331040817E+03  0.21199439822E+03  0.10011653022E+04  0.11181429866E+04  0.80287191688E+02 0.  0.
         24    2    4    4    0    0 -0.33674127804E+03 -0.22359775265E+03  0.11968203980E+04  0.12657522544E+04  0.79743721112E+02 0.  0.
         13    1    3    3    0    0 -0.66421756434E+02 -0.35268819689E+02  0.10414102729E+03  0.12845657996E+03  0.00000000000E+00 0. -1.
        -13    1    3    3    0    0 -0.40147373697E+02  0.46872174117E+02  0.42945865565E+02  0.75187496902E+02  0.00000000000E+00 0.  1.
          4    1    6    6  502    0 -0.15719692324E+02 -0.20474033818E+02  0.35609314811E+02  0.43980883220E+02  0.00000000000E+00 0. -1.
          1    1    5    5  503    0 -0.15551424829E+01  0.49871618473E+01  0.25666924373E+02  0.26193152888E+02  0.00000000000E+00 0. -1.
         -2    1    5    5    0  503  0.44486555066E+03  0.20700723638E+03  0.97549837787E+03  0.10919498337E+04  0.00000000000E+00 0.  1.
         -3    1    6    6    0  502 -0.32102158572E+03 -0.20312371883E+03  0.11612110832E+04  0.12217713712E+04  0.00000000000E+00 0.  1.
<mgrwt>
<rscale>  0 0.10936152E+04</rscale>
<asrwt>0</asrwt>
<pdfrwt beam="1">  1        2 0.37943165E+00 0.10936152E+04</pdfrwt>
<pdfrwt beam="2">  1       -2 0.18651288E-01 0.10936152E+04</pdfrwt>
<totfact> 0.88089503E+01</totfact>
</mgrwt>
</event>
<event>
12    1  0.1472088E-007  0.2480608E+04  0.7818608E-02  0.8409927E-01
         -2   -1    0    0    0  501 -0.00000000000E+00  0.00000000000E+00  0.87247515982E+03  0.87247515982E+03  0.00000000000E+00 0.  1.
          2   -1    0    0  501    0  0.00000000000E+00 -0.00000000000E+00 -0.17632064637E+04  0.17632064637E+04  0.00000000000E+00 0. -1.
         23    2    1    2    0    0  0.25498852496E+03 -0.77332415415E+03 -0.11305228903E+04  0.13962490215E+04  0.91541953517E+02 0.  0.
        254    2    1    2    0    0 -0.25498852496E+03  0.77332415415E+03  0.23979158641E+03  0.12394326021E+04  0.90312998779E+03 0.  0.
        -24    2    4    4    0    0 -0.53966389016E+03  0.24357808480E+03  0.20554853229E+03  0.63203105454E+03  0.81520899403E+02 0.  0.
         24    2    4    4    0    0  0.28467536520E+03  0.52974606935E+03  0.34243054126E+02  0.60740154751E+03  0.78058257859E+02 0.  0.
         11    1    3    3    0    0  0.10578120277E+03 -0.29118412749E+03 -0.50570351205E+03  0.59305472013E+03  0.00000000000E+00 0. -1.
        -11    1    3    3    0    0  0.14920732219E+03 -0.48214002666E+03 -0.62481937825E+03  0.80319430136E+03  0.00000000000E+00 0.  1.
          4    1    6    6  502    0  0.15343486131E+03  0.35057017813E+03  0.43292073707E+02  0.38511804697E+03  0.00000000000E+00 0. -1.
          1    1    5    5  503    0 -0.42293147989E+03  0.15809457166E+03  0.17443709493E+03  0.48403845958E+03  0.00000000000E+00 0. -1.
         -2    1    5    5    0  503 -0.11673241027E+03  0.85483513146E+02  0.31111437353E+02  0.14799259495E+03  0.00000000000E+00 0.  1.
         -3    1    6    6    0  502  0.13124050389E+03  0.17917589122E+03 -0.90490195809E+01  0.22228350054E+03  0.00000000000E+00 0.  1.
<mgrwt>
<rscale>  0 0.24806079E+04</rscale>
<asrwt>0</asrwt>
<pdfrwt beam="1">  1        2 0.27126253E+00 0.24806079E+04</pdfrwt>
<pdfrwt beam="2">  1       -2 0.13422695E+00 0.24806079E+04</pdfrwt>
<totfact> 0.32350039E+00</totfact>
</mgrwt>
</event>
<event>
12    1  0.1472088E-007  0.1660374E+04  0.7818608E-02  0.8784293E-01
          2   -1    0    0  501    0  0.00000000000E+00  0.00000000000E+00  0.36954510946E+03  0.36954510946E+03  0.00000000000E+00 0. -1.
         -2   -1    0    0    0  501 -0.00000000000E+00 -0.00000000000E+00 -0.18650245004E+04  0.18650245004E+04  0.00000000000E+00 0.  1.
         23    2    1    2    0    0 -0.20594038246E+03  0.26333321847E+03  0.11105981063E+03  0.36384605579E+03  0.91070553412E+02 0.  0.
        254    2    1    2    0    0  0.20594038246E+03 -0.26333321847E+03 -0.16065392016E+04  0.18707235541E+04  0.89826643295E+03 0.  0.
        -24    2    4    4    0    0 -0.34502704504E+03 -0.11846048103E+03 -0.76957516807E+03  0.85528039662E+03  0.78626141673E+02 0.  0.
         24    2    4    4    0    0  0.55096742750E+03 -0.14487273744E+03 -0.83696403353E+03  0.10154431575E+04  0.77863961298E+02 0.  0.
         13    1    3    3    0    0 -0.76400093648E+02  0.10672520555E+03  0.90797856447E+02  0.15959791523E+03  0.00000000000E+00 0. -1.
        -13    1    3    3    0    0 -0.12954028881E+03  0.15660801292E+03  0.20261954180E+02  0.20424814056E+03  0.00000000000E+00 0.  1.
          2    1    6    6  502    0  0.10731535081E+03 -0.60611707187E+02 -0.16974982063E+03  0.20977455797E+03  0.00000000000E+00 0. -1.
          1    1    5    5  503    0 -0.46628746577E+02 -0.14523900236E+02 -0.17832237752E+03  0.18488930204E+03  0.00000000000E+00 0. -1.
         -2    1    5    5    0  503 -0.29839829846E+03 -0.10393658080E+03 -0.59125279055E+03  0.67039109458E+03  0.00000000000E+00 0.  1.
         -1    1    6    6    0  502  0.44365207669E+03 -0.84261030252E+02 -0.66721421290E+03  0.80566859953E+03  0.00000000000E+00 0.  1.
<mgrwt>
<rscale>  0 0.16603743E+04</rscale>
<asrwt>0</asrwt>
<pdfrwt beam="1">  1        2 0.56853095E-01 0.16603743E+04</pdfrwt>
<pdfrwt beam="2">  1       -2 0.28692684E+00 0.16603743E+04</pdfrwt>
<totfact> 0.31761955E+00</totfact>
</mgrwt>
</event>
<event>
12    1  0.1472088E-007  0.2258998E+04  0.7818608E-02  0.8494265E-01
          1   -1    0    0  501    0  0.00000000000E+00  0.00000000000E+00  0.20520982346E+04  0.20520982346E+04  0.00000000000E+00 0. -1.
         -1   -1    0    0    0  501 -0.00000000000E+00 -0.00000000000E+00 -0.62168950826E+03  0.62168950826E+03  0.00000000000E+00 0.  1.
         23    2    1    2    0    0 -0.44401533508E+03 -0.57832780111E+03  0.13199329556E+04  0.15105607312E+04  0.89207914849E+02 0.  0.
        254    2    1    2    0    0  0.44401533508E+03  0.57832780111E+03  0.11047577077E+03  0.11632270117E+04  0.89959964509E+03 0.  0.
        -24    2    4    4    0    0 -0.65472685111E+02 -0.17751774814E+03 -0.93807218648E+02  0.22560877657E+03  0.79374444214E+02 0.  0.
         24    2    4    4    0    0  0.50948802019E+03  0.75584554924E+03  0.20428298942E+03  0.93761823511E+03  0.80720988669E+02 0.  0.
         11    1    3    3    0    0 -0.89295789859E+02 -0.11618372090E+03  0.34490995891E+03  0.37474694774E+03  0.00000000000E+00 0. -1.
        -11    1    3    3    0    0 -0.35471954522E+03 -0.46214408021E+03  0.97502299666E+03  0.11358137834E+04  0.00000000000E+00 0.  1.
          2    1    6    6  502    0  0.56304131896E+01  0.31002684095E+02 -0.76127072696E-01  0.31509899542E+02  0.00000000000E+00 0. -1.
          3    1    5    5  503    0 -0.93761602021E+01 -0.99968326387E+01  0.13229416485E+02  0.19049055186E+02  0.00000000000E+00 0. -1.
         -4    1    5    5    0  503 -0.56096524909E+02 -0.16752091550E+03 -0.10703663513E+03  0.20655972138E+03  0.00000000000E+00 0.  1.
         -1    1    6    6    0  502  0.50385760700E+03  0.72484286515E+03  0.20435911649E+03  0.90610833556E+03  0.00000000000E+00 0.  1.
<mgrwt>
<rscale>  0 0.22589980E+04</rscale>
<asrwt>0</asrwt>
<pdfrwt beam="1">  1        1 0.31570742E+00 0.22589980E+04</pdfrwt>
<pdfrwt beam="2">  1       -1 0.95644541E-01 0.22589980E+04</pdfrwt>
<totfact> 0.26271165E+00</totfact>
</mgrwt>
</event>
<event>
12    1  0.1472088E-007  0.1100787E+04  0.7818608E-02  0.9204425E-01
          1   -1    0    0  501    0  0.00000000000E+00  0.00000000000E+00  0.80998243578E+03  0.80998243578E+03  0.00000000000E+00 0. -1.
         -1   -1    0    0    0  501 -0.00000000000E+00 -0.00000000000E+00 -0.37399935581E+03  0.37399935581E+03  0.00000000000E+00 0.  1.
         23    2    1    2    0    0 -0.16865839168E+02 -0.12765002964E+03  0.17310977213E+03  0.23339830560E+03  0.89043749088E+02 0.  0.
        254    2    1    2    0    0  0.16865839168E+02  0.12765002964E+03  0.26287330784E+03  0.95058348600E+03  0.90439349913E+03 0.  0.
        -24    2    4    4    0    0  0.15301727448E+03  0.92972340143E+02  0.57021618685E+03  0.60323373496E+03  0.81769780051E+02 0.  0.
         24    2    4    4    0    0 -0.13615143531E+03  0.34677689500E+02 -0.30734287901E+03  0.34734975103E+03  0.80327135969E+02 0.  0.
         13    1    3    3    0    0  0.18226354119E+02 -0.36576401399E+02  0.80644740868E+01  0.41654157848E+02  0.00000000000E+00 0.  1.
        -13    1    3    3    0    0 -0.35092193287E+02 -0.91073628243E+02  0.16504529804E+03  0.19174414775E+03  0.00000000000E+00 0. -1.
          2    1    6    6  502    0 -0.90913186964E+02  0.27920525255E+02 -0.27593499085E+03  0.29186449334E+03  0.00000000000E+00 0. -1.
          1    1    5    5  503    0  0.72985663906E+02  0.22882688687E+02  0.35515802704E+03  0.36330118187E+03  0.00000000000E+00 0. -1.
         -2    1    5    5    0  503  0.80031610577E+02  0.70089651455E+02  0.21505815981E+03  0.23993255309E+03  0.00000000000E+00 0.  1.
         -1    1    6    6    0  502 -0.45238248351E+02  0.67571642446E+01 -0.31407888162E+02  0.55485257694E+02  0.00000000000E+00 0.  1.
<mgrwt>
<rscale>  0 0.11007868E+04</rscale>
<asrwt>0</asrwt>
<pdfrwt beam="1">  1        1 0.12461268E+00 0.11007868E+04</pdfrwt>
<pdfrwt beam="2">  1       -1 0.57538363E-01 0.11007868E+04</pdfrwt>
<totfact> 0.66061549E+01</totfact>
</mgrwt>
</event>
<event>
12    1  0.1472088E-007  0.2161798E+04  0.7818608E-02  0.8534499E-01
         -1   -1    0    0    0  501 -0.00000000000E+00  0.00000000000E+00  0.54513848747E+03  0.54513848747E+03  0.00000000000E+00 0.  1.
          1   -1    0    0  501    0  0.00000000000E+00 -0.00000000000E+00 -0.21432042175E+04  0.21432042175E+04  0.00000000000E+00 0. -1.
         23    2    1    2    0    0 -0.43475933961E+03 -0.77353648621E+03 -0.55780435853E+03  0.10522474876E+04  0.93298949291E+02 0.  0.
        254    2    1    2    0    0  0.43475933961E+03  0.77353648621E+03 -0.10402613715E+04  0.16360952174E+04  0.89849288273E+03 0.  0.
        -24    2    4    4    0    0  0.64313743089E+03  0.27623547751E+03 -0.46673290544E+03  0.84505338836E+03  0.79648164550E+02 0.  0.
         24    2    4    4    0    0 -0.20837809128E+03  0.49730100870E+03 -0.57352846608E+03  0.79104182900E+03  0.77990715068E+02 0.  0.
         11    1    3    3    0    0 -0.13675605056E+03 -0.20683454716E+03 -0.20149125397E+03  0.31950191344E+03  0.00000000000E+00 0. -1.
        -11    1    3    3    0    0 -0.29800328905E+03 -0.56670193906E+03 -0.35631310456E+03  0.73274557419E+03  0.00000000000E+00 0.  1.
          2    1    6    6  502    0 -0.15541985236E+02  0.10919658740E+03 -0.96507064858E+02  0.14655736615E+03  0.00000000000E+00 0. -1.
          3    1    5    5  503    0  0.31448716804E+03  0.14409216174E+03 -0.18391222699E+03  0.39177600382E+03  0.00000000000E+00 0. -1.
         -4    1    5    5    0  503  0.32865026285E+03  0.13214331577E+03 -0.28282067846E+03  0.45327738454E+03  0.00000000000E+00 0.  1.
         -1    1    6    6    0  502 -0.19283610605E+03  0.38810442130E+03 -0.47702140122E+03  0.64448446284E+03  0.00000000000E+00 0.  1.
<mgrwt>
<rscale>  0 0.21617984E+04</rscale>
<asrwt>0</asrwt>
<pdfrwt beam="1">  1        1 0.32972372E+00 0.21617984E+04</pdfrwt>
<pdfrwt beam="2">  1       -1 0.83867461E-01 0.21617984E+04</pdfrwt>
<totfact> 0.30703122E+00</totfact>
</mgrwt>
</event>
<event>
12    1  0.1472088E-007  0.1327561E+04  0.7818608E-02  0.9007990E-01
          3   -1    0    0  501    0  0.00000000000E+00  0.00000000000E+00  0.61285558119E+03  0.61285558119E+03  0.00000000000E+00 0. -1.
         -3   -1    0    0    0  501 -0.00000000000E+00 -0.00000000000E+00 -0.71893731755E+03  0.71893731755E+03  0.00000000000E+00 0.  1.
         23    2    1    2    0    0 -0.13974376070E+03 -0.88564403309E+02  0.29269553677E+03  0.34804845609E+03  0.89972653377E+02 0.  0.
        254    2    1    2    0    0  0.13974376070E+03  0.88564403309E+02 -0.39877727313E+03  0.98374444265E+03  0.88394447942E+03 0.  0.
        -24    2    4    4    0    0  0.10031206368E+03 -0.30065583866E+03  0.10270330371E+03  0.34255422443E+03  0.79617740733E+02 0.  0.
         24    2    4    4    0    0  0.39431697015E+02  0.38922024197E+03 -0.50148057683E+03  0.64119021822E+03  0.81208814239E+02 0.  0.
         11    1    3    3    0    0 -0.57320043139E+00  0.64040503794E+01 -0.34741176473E+01  0.73082086330E+01  0.00000000000E+00 0.  1.
        -11    1    3    3    0    0 -0.13917056027E+03 -0.94968453688E+02  0.29616965442E+03  0.34074024746E+03  0.00000000000E+00 0. -1.
          4    1    6    6  502    0 -0.13323029322E+01  0.15268460074E+03 -0.13923617128E+03  0.20664238125E+03  0.00000000000E+00 0. -1.
          3    1    5    5  503    0  0.31039773258E+02 -0.10589403323E+03 -0.29825774811E+01  0.11038980735E+03  0.00000000000E+00 0. -1.
         -4    1    5    5    0  503  0.69272290425E+02 -0.19476180543E+03  0.10568588119E+03  0.23216441708E+03  0.00000000000E+00 0.  1.
         -3    1    6    6    0  502  0.40763999947E+02  0.23653564123E+03 -0.36224440555E+03  0.43454783697E+03  0.00000000000E+00 0.  1.
<mgrwt>
<rscale>  0 0.13275613E+04</rscale>
<asrwt>0</asrwt>
<pdfrwt beam="1">  1        3 0.94285474E-01 0.13275613E+04</pdfrwt>
<pdfrwt beam="2">  1       -3 0.11060574E+00 0.13275613E+04</pdfrwt>
<totfact> 0.17694617E+00</totfact>
</mgrwt>
</event>
<event>
12    1  0.1472088E-007  0.2274725E+04  0.7818608E-02  0.8487954E-01
         -2   -1    0    0    0  501 -0.00000000000E+00  0.00000000000E+00  0.19418203396E+04  0.19418203396E+04  0.00000000000E+00 0.  1.
          2   -1    0    0  501    0  0.00000000000E+00 -0.00000000000E+00 -0.66617556072E+03  0.66617556072E+03  0.00000000000E+00 0. -1.
         23    2    1    2    0    0 -0.87288682602E+03  0.39252309087E+03  0.76469145240E+03  0.12280628434E+04  0.85904261331E+02 0.  0.
        254    2    1    2    0    0  0.87288682602E+03 -0.39252309087E+03  0.51095332651E+03  0.13799330569E+04  0.85272278722E+03 0.  0.
        -24    2    4    4    0    0 -0.20515160483E+02  0.19400042881E+03  0.77413482009E+02  0.22370100165E+03  0.77409642518E+02 0.  0.
         24    2    4    4    0    0  0.89340198650E+03 -0.58652351968E+03  0.43353984450E+03  0.11562320553E+04  0.82090317714E+02 0.  0.
         13    1    3    3    0    0 -0.75989606122E+03  0.37202638517E+03  0.67573355372E+03  0.10828026093E+04  0.00000000000E+00 0. -1.
        -13    1    3    3    0    0 -0.11299076480E+03  0.20496705700E+02  0.88957898680E+02  0.14526023411E+03  0.00000000000E+00 0.  1.
          4    1    6    6  502    0  0.88199677099E+03 -0.58304710469E+03  0.43665291155E+03  0.11439090853E+04  0.00000000000E+00 0. -1.
          3    1    5    5  503    0 -0.86855616791E+01  0.17729327398E+03  0.41390610108E+02  0.18226773325E+03  0.00000000000E+00 0. -1.
         -4    1    5    5    0  503 -0.11829598804E+02  0.16707154837E+02  0.36022871901E+02  0.41433268404E+02  0.00000000000E+00 0.  1.
         -3    1    6    6    0  502  0.11405215511E+02 -0.34764149914E+01 -0.31130670489E+01  0.12322969954E+02  0.00000000000E+00 0.  1.
<mgrwt>
<rscale>  0 0.22747248E+04</rscale>
<asrwt>0</asrwt>
<pdfrwt beam="1">  1        2 0.10248855E+00 0.22747248E+04</pdfrwt>
<pdfrwt beam="2">  1       -2 0.29874159E+00 0.22747248E+04</pdfrwt>
<totfact> 0.12822506E+00</totfact>
</mgrwt>
</event>
<event>
12    1  0.1472088E-007  0.1000680E+04  0.7818608E-02  0.9307800E-01
         -2   -1    0    0    0  501 -0.00000000000E+00  0.00000000000E+00  0.12772755698E+03  0.12772755698E+03  0.00000000000E+00 0.  1.
          2   -1    0    0  501    0  0.00000000000E+00 -0.00000000000E+00 -0.19599520264E+04  0.19599520264E+04  0.00000000000E+00 0. -1.
         23    2    1    2    0    0  0.38515632809E+02  0.19771281318E+01 -0.12449108517E+03  0.15975088090E+03  0.92384796661E+02 0.  0.
        254    2    1    2    0    0 -0.38515632809E+02 -0.19771281318E+01 -0.17077333843E+04  0.19279287025E+04  0.89390626307E+03 0.  0.
        -24    2    4    4    0    0  0.19019178198E+03 -0.30352655580E+03 -0.31788513055E+03  0.48530706416E+03  0.78553843270E+02 0.  0.
         24    2    4    4    0    0 -0.22870741479E+03  0.30154942767E+03 -0.13898482537E+04  0.14426216383E+04  0.78992937052E+02 0.  0.
         13    1    3    3    0    0  0.52963934781E+02  0.21166605072E+02 -0.34611839355E+02  0.66717186551E+02  0.00000000000E+00 0.  1.
        -13    1    3    3    0    0 -0.14448301972E+02 -0.19189476941E+02 -0.89879245818E+02  0.93033694348E+02  0.00000000000E+00 0. -1.
          4    1    6    6  502    0 -0.20159775838E+01  0.37135335112E+02 -0.10443357510E+03  0.11085787697E+03  0.00000000000E+00 0. -1.
          3    1    5    5  503    0  0.20782233794E+02 -0.61847206450E+02 -0.95953050567E+02  0.11603433156E+03  0.00000000000E+00 0. -1.
         -4    1    5    5    0  503  0.16940954818E+03 -0.24167934935E+03 -0.22193207998E+03  0.36927273260E+03  0.00000000000E+00 0.  1.
         -3    1    6    6    0  502 -0.22669143720E+03  0.26441409256E+03 -0.12854146786E+04  0.13317637614E+04  0.00000000000E+00 0.  1.
<mgrwt>
<rscale>  0 0.10006795E+04</rscale>
<asrwt>0</asrwt>
<pdfrwt beam="1">  1        2 0.30153106E+00 0.10006795E+04</pdfrwt>
<pdfrwt beam="2">  1       -2 0.19650395E-01 0.10006795E+04</pdfrwt>
<totfact> 0.15529280E+02</totfact>
</mgrwt>
</event>
<event>
12    1  0.1472088E-007  0.1303888E+04  0.7818608E-02  0.9026488E-01
         -2   -1    0    0    0  501 -0.00000000000E+00  0.00000000000E+00  0.79214967598E+03  0.79214967598E+03  0.00000000000E+00 0. -1.
          2   -1    0    0  501    0  0.00000000000E+00 -0.00000000000E+00 -0.53655392887E+03  0.53655392887E+03  0.00000000000E+00 0.  1.
         23    2    1    2    0    0  0.18695977613E+03 -0.83978516315E+01  0.35331244058E+03  0.41016568065E+03  0.91551751006E+02 0.  0.
        254    2    1    2    0    0 -0.18695977613E+03  0.83978516315E+01 -0.97716693474E+02  0.91853792420E+03  0.89394568303E+03 0.  0.
        -24    2    4    4    0    0 -0.18475095037E+03  0.41976949968E+02 -0.48220812483E+03  0.52418293580E+03  0.79674942951E+02 0.  0.
         24    2    4    4    0    0 -0.22088257629E+01 -0.33579098336E+02  0.38449143136E+03  0.39435498841E+03  0.80930595806E+02 0.  0.
         13    1    3    3    0    0  0.16277875222E+03 -0.19290420882E+02  0.22062363076E+03  0.27485237667E+03  0.00000000000E+00 0.  1.
        -13    1    3    3    0    0  0.24181023910E+02  0.10892569251E+02  0.13268880982E+03  0.13531330398E+03  0.00000000000E+00 0. -1.
          4    1    6    6  502    0 -0.17057025767E+02 -0.12431391595E+02  0.35295004573E+03  0.35358056565E+03  0.00000000000E+00 0. -1.
          3    1    5    5  503    0 -0.16528487076E+03  0.15282121244E+02 -0.44201068338E+03  0.47215048020E+03  0.00000000000E+00 0. -1.
         -2    1    5    5    0  503 -0.19466079611E+02  0.26694828723E+02 -0.40197441452E+02  0.52032455596E+02  0.00000000000E+00 0.  1.
         -3    1    6    6    0  502  0.14848200004E+02 -0.21147706741E+02  0.31541385628E+02  0.40774422757E+02  0.00000000000E+00 0.  1.
<mgrwt>
<rscale>  0 0.13038881E+04</rscale>
<asrwt>0</asrwt>
<pdfrwt beam="1">  1        2 0.82546758E-01 0.13038881E+04</pdfrwt>
<pdfrwt beam="2">  1       -2 0.12186918E+00 0.13038881E+04</pdfrwt>
<totfact> 0.28373772E+01</totfact>
</mgrwt>
</event>
<event>
12    1  0.1472088E-007  0.2765664E+04  0.7818608E-02  0.8314008E-01
         -2   -1    0    0    0  501 -0.00000000000E+00  0.00000000000E+00  0.10295790229E+04  0.10295790229E+04  0.00000000000E+00 0. -1.
          2   -1    0    0  501    0  0.00000000000E+00 -0.00000000000E+00 -0.18572878027E+04  0.18572878027E+04  0.00000000000E+00 0.  1.
         23    2    1    2    0    0  0.90707128180E+03  0.81487594878E+03 -0.25657085583E+03  0.12492899117E+04  0.89975314693E+02 0.  0.
        254    2    1    2    0    0 -0.90707128180E+03 -0.81487594878E+03 -0.57113792402E+03  0.16375769139E+04  0.93201850770E+03 0.  0.
        -24    2    4    4    0    0 -0.99455863869E+03 -0.38639137716E+03 -0.52179383125E+03  0.11906464550E+04  0.83216562176E+02 0.  0.
         24    2    4    4    0    0  0.87487356893E+02 -0.42848457162E+03 -0.49344092766E+02  0.44693045900E+03  0.77839128692E+02 0.  0.
         11    1    3    3    0    0  0.51795449217E+03  0.50994959571E+03 -0.12290175268E+03  0.73717724255E+03  0.00000000000E+00 0.  1.
        -11    1    3    3    0    0  0.38911678963E+03  0.30492635307E+03 -0.13366910315E+03  0.51211266915E+03  0.00000000000E+00 0. -1.
          2    1    6    6  502    0  0.77259114119E+01 -0.15457046153E+01 -0.70110077120E+01  0.10546712238E+02  0.00000000000E+00 0. -1.
          1    1    5    5  503    0 -0.11355534119E+03 -0.22054003406E+02 -0.74271888911E+02  0.13746820745E+03  0.00000000000E+00 0. -1.
         -2    1    5    5    0  503 -0.88100329751E+03 -0.36433737375E+03 -0.44752194234E+03  0.10531782475E+04  0.00000000000E+00 0.  1.
         -1    1    6    6    0  502  0.79761445481E+02 -0.42693886700E+03 -0.42333085054E+02  0.43638374676E+03  0.00000000000E+00 0.  1.
<mgrwt>
<rscale>  0 0.27656642E+04</rscale>
<asrwt>0</asrwt>
<pdfrwt beam="1">  1        2 0.28573658E+00 0.27656642E+04</pdfrwt>
<pdfrwt beam="2">  1       -2 0.15839677E+00 0.27656642E+04</pdfrwt>
<totfact> 0.18119100E+00</totfact>
</mgrwt>
</event>
<event>
12    1  0.1472088E-007  0.2465030E+04  0.7818608E-02  0.8415551E-01
          2   -1    0    0  501    0  0.00000000000E+00  0.00000000000E+00  0.25382078542E+04  0.25382078542E+04  0.00000000000E+00 0. -1.
         -2   -1    0    0    0  501 -0.00000000000E+00 -0.00000000000E+00 -0.59849034424E+03  0.59849034424E+03  0.00000000000E+00 0.  1.
         23    2    1    2    0    0  0.81191422431E+03 -0.40313910481E+03  0.15572646594E+04  0.18041749692E+04  0.90819902197E+02 0.  0.
        254    2    1    2    0    0 -0.81191422431E+03  0.40313910481E+03  0.38245285061E+03  0.13325232293E+04  0.89867798915E+03 0.  0.
        -24    2    4    4    0    0 -0.74647732126E+03 -0.10017829599E+03  0.28560402008E+03  0.80970489532E+03  0.82391013308E+02 0.  0.
         24    2    4    4    0    0 -0.65436903050E+02  0.50331740081E+03  0.96848830530E+02  0.52281833397E+03  0.79680111212E+02 0.  0.
         11    1    3    3    0    0  0.44155670661E+03 -0.26363096860E+03  0.83796159781E+03  0.98318525831E+03  0.00000000000E+00 0.  1.
        -11    1    3    3    0    0  0.37035751770E+03 -0.13950813622E+03  0.71930306156E+03  0.82098971087E+03  0.00000000000E+00 0. -1.
          4    1    6    6  502    0 -0.29046392689E+01  0.36552779059E+01 -0.72383406598E+01  0.86134523484E+01  0.00000000000E+00 0. -1.
          3    1    5    5  503    0 -0.32428810665E+02  0.82640976638E+00 -0.37671453593E+01  0.32657343714E+02  0.00000000000E+00 0. -1.
         -4    1    5    5    0  503 -0.71404851059E+03 -0.10100470576E+03  0.28937116544E+03  0.77704755160E+03  0.00000000000E+00 0.  1.
         -3    1    6    6    0  502 -0.62532263781E+02  0.49966212290E+03  0.10408717119E+03  0.51420488162E+03  0.00000000000E+00 0.  1.
<mgrwt>
<rscale>  0 0.24650297E+04</rscale>
<asrwt>0</asrwt>
<pdfrwt beam="1">  1        2 0.39049351E+00 0.24650297E+04</pdfrwt>
<pdfrwt beam="2">  1       -2 0.92075439E-01 0.24650297E+04</pdfrwt>
<totfact> 0.29652383E+00</totfact>
</mgrwt>
</event>
<event>
12    1  0.1472088E-007  0.2501057E+04  0.7818608E-02  0.8402609E-01
          1   -1    0    0  501    0  0.00000000000E+00  0.00000000000E+00  0.11658487855E+04  0.11658487855E+04  0.00000000000E+00 0.  1.
         -1   -1    0    0    0  501 -0.00000000000E+00 -0.00000000000E+00 -0.13413583488E+04  0.13413583488E+04  0.00000000000E+00 0. -1.
         23    2    1    2    0    0  0.55389497678E+03 -0.51360520183E+03  0.71011726922E+03  0.10408247877E+04  0.91976920709E+02 0.  0.
        254    2    1    2    0    0 -0.55389497678E+03  0.51360520183E+03 -0.88562683255E+03  0.14663823467E+04  0.89182529198E+03 0.  0.
        -24    2    4    4    0    0  0.33810645513E+02 -0.14730117626E+03  0.46990451268E+02  0.17853168576E+03  0.82611524821E+02 0.  0.
         24    2    4    4    0    0 -0.58770562229E+03  0.66090637809E+03 -0.93261728382E+03  0.12878506609E+04  0.81173811178E+02 0.  0.
         11    1    3    3    0    0  0.90659851686E+02 -0.49831323703E+02  0.12414989139E+03  0.16160310969E+03  0.00000000000E+00 0. -1.
        -11    1    3    3    0    0  0.46323512510E+03 -0.46377387813E+03  0.58596737783E+03  0.87922167799E+03  0.00000000000E+00 0.  1.
          2    1    6    6  502    0 -0.50398648254E+03  0.60518845142E+03 -0.82863182225E+03  0.11431912059E+04  0.00000000000E+00 0. -1.
          3    1    5    5  503    0  0.81867007105E+01 -0.13264149321E+03  0.60559006132E+02  0.14604170984E+03  0.00000000000E+00 0. -1.
         -4    1    5    5    0  503  0.25623944802E+02 -0.14659683051E+02 -0.13568554864E+02  0.32489975923E+02  0.00000000000E+00 0.  1.
         -1    1    6    6    0  502 -0.83719139752E+02  0.55717926669E+02 -0.10398546157E+03  0.14465945503E+03  0.00000000000E+00 0.  1.
<mgrwt>
<rscale>  0 0.25010566E+04</rscale>
<asrwt>0</asrwt>
<pdfrwt beam="1">  1        1 0.17936135E+00 0.25010566E+04</pdfrwt>
<pdfrwt beam="2">  1       -1 0.20636282E+00 0.25010566E+04</pdfrwt>
<totfact> 0.13688798E+00</totfact>
</mgrwt>
</event>
<event>
12    1  0.1971266E-007  0.1763339E+04  0.7818608E-02  0.8726042E-01
          1   -1    0    0  501    0  0.00000000000E+00  0.00000000000E+00  0.20243016981E+04  0.20243016981E+04  0.00000000000E+00 0. -1.
         -1   -1    0    0    0  501 -0.00000000000E+00 -0.00000000000E+00 -0.38400443071E+03  0.38400443071E+03  0.00000000000E+00 0.  1.
         23    2    1    2    0    0 -0.57746751449E+02 -0.10104621363E+03 -0.26605000015E+03  0.30089319680E+03  0.78797770974E+02 0.  0.
        254    2    1    2    0    0  0.57746751449E+02  0.10104621363E+03  0.19063472675E+04  0.21074129320E+04  0.89077737789E+03 0.  0.
        -24    2    4    4    0    0 -0.15411598279E+03 -0.12305083517E+03  0.17306898842E+04  0.17436309863E+04  0.77899273275E+02 0.  0.
         24    2    4    4    0    0  0.21186273424E+03  0.22409704880E+03  0.17565738332E+03  0.36378194573E+03  0.79852879032E+02 0.  0.
         13    1    3    3    0    0 -0.25660327703E+02  0.78269619491E+01 -0.44509470033E+02  0.51969285870E+02  0.00000000000E+00 0. -1.
        -13    1    3    3    0    0 -0.32086423746E+02 -0.10887317558E+03 -0.22154053011E+03  0.24892391093E+03  0.00000000000E+00 0.  1.
          2    1    6    6  502    0  0.14944537235E+03  0.19106669066E+03  0.10643221599E+03  0.26489283908E+03  0.00000000000E+00 0. -1.
          3    1    5    5  503    0 -0.12100748474E+03 -0.10470709192E+03  0.15867236516E+04  0.15947721885E+04  0.00000000000E+00 0. -1.
         -4    1    5    5    0  503 -0.33108498050E+02 -0.18343743252E+02  0.14396623257E+03  0.14885879780E+03  0.00000000000E+00 0.  1.
         -1    1    6    6    0  502  0.62417361882E+02  0.33030358145E+02  0.69225167322E+02  0.98889106651E+02  0.00000000000E+00 0.  1.
<mgrwt>
<rscale>  0 0.17633387E+04</rscale>
<asrwt>0</asrwt>
<pdfrwt beam="1">  1        1 0.31143102E+00 0.17633387E+04</pdfrwt>
<pdfrwt beam="2">  1       -1 0.59077606E-01 0.17633387E+04</pdfrwt>
<totfact> 0.78881780E+00</totfact>
</mgrwt>
</event>
<event>
12    1  0.1472088E-007  0.1118181E+04  0.7818608E-02  0.9187651E-01
         -1   -1    0    0    0  501 -0.00000000000E+00  0.00000000000E+00  0.24080931337E+03  0.24080931337E+03  0.00000000000E+00 0.  1.
          1   -1    0    0  501    0  0.00000000000E+00 -0.00000000000E+00 -0.12980481442E+04  0.12980481442E+04  0.00000000000E+00 0. -1.
         23    2    1    2    0    0 -0.55613453882E+02  0.86555470594E+02 -0.41429512437E+03  0.43602756165E+03  0.88853129930E+02 0.  0.
        254    2    1    2    0    0  0.55613453882E+02 -0.86555470594E+02 -0.64294370644E+03  0.11028298959E+04  0.89009688457E+03 0.  0.
        -24    2    4    4    0    0 -0.19174086365E+03  0.17349495195E+03  0.87879737814E+02  0.28502134586E+03  0.81543007870E+02 0.  0.
         24    2    4    4    0    0  0.24735431753E+03 -0.26005042255E+03 -0.73082344425E+03  0.81780855004E+03  0.76795424287E+02 0.  0.
         13    1    3    3    0    0 -0.77938865042E+02  0.70034956716E+02 -0.28173815126E+03  0.30059232811E+03  0.00000000000E+00 0. -1.
        -13    1    3    3    0    0  0.22325411160E+02  0.16520513879E+02 -0.13255697312E+03  0.13543523354E+03  0.00000000000E+00 0.  1.
          4    1    6    6  502    0  0.18629422791E+03 -0.23163138562E+03 -0.62936595885E+03  0.69603171503E+03  0.00000000000E+00 0. -1.
          3    1    5    5  503    0 -0.13276512974E+03  0.10157562801E+03  0.94054611927E+02  0.19180838851E+03  0.00000000000E+00 0. -1.
         -4    1    5    5    0  503 -0.58975733908E+02  0.71919323949E+02 -0.61748741129E+01  0.93212957348E+02  0.00000000000E+00 0.  1.
         -3    1    6    6    0  502  0.61060089619E+02 -0.28419036929E+02 -0.10145748540E+03  0.12177683502E+03  0.00000000000E+00 0.  1.
<mgrwt>
<rscale>  0 0.11181808E+04</rscale>
<asrwt>0</asrwt>
<pdfrwt beam="1">  1        1 0.19969971E+00 0.11181808E+04</pdfrwt>
<pdfrwt beam="2">  1       -1 0.37047587E-01 0.11181808E+04</pdfrwt>
<totfact> 0.63219223E+01</totfact>
</mgrwt>
</event>
<event>
12    1  0.1472088E-007  0.1606411E+04  0.7818608E-02  0.8816619E-01
          2   -1    0    0  501    0  0.00000000000E+00  0.00000000000E+00  0.24335737542E+04  0.24335737542E+04  0.00000000000E+00 0. -1.
         -2   -1    0    0    0  501 -0.00000000000E+00 -0.00000000000E+00 -0.26509939680E+03  0.26509939680E+03  0.00000000000E+00 0.  1.
         23    2    1    2    0    0 -0.26391384947E+03 -0.18470191075E+03  0.77918016110E+01  0.33483996295E+03  0.91059172195E+02 0.  0.
        254    2    1    2    0    0  0.26391384947E+03  0.18470191075E+03  0.21606825558E+04  0.23638331881E+04  0.90299109534E+03 0.  0.
        -24    2    4    4    0    0 -0.32373868807E+03  0.10417904590E+02  0.90290711014E+03  0.96236456736E+03  0.77388888595E+02 0.  0.
         24    2    4    4    0    0  0.58765253754E+03  0.17428400616E+03  0.12577754457E+04  0.14014686207E+04  0.80030015768E+02 0.  0.
         13    1    3    3    0    0 -0.18535283623E+03 -0.11230082073E+03 -0.35424180042E+02  0.21959512920E+03  0.00000000000E+00 0.  1.
        -13    1    3    3    0    0 -0.78561013241E+02 -0.72401090016E+02  0.43215981653E+02  0.11524483376E+03  0.00000000000E+00 0. -1.
          4    1    6    6  502    0  0.48880744640E+03  0.12874523965E+03  0.97005235833E+03  0.10938508282E+04  0.00000000000E+00 0. -1.
          1    1    5    5  503    0 -0.30169545018E+03  0.51587931004E+01  0.87933922713E+03  0.92966888416E+03  0.00000000000E+00 0. -1.
         -2    1    5    5    0  503 -0.22043237890E+02  0.52591114893E+01  0.23567883011E+02  0.32695683201E+02  0.00000000000E+00 0.  1.
         -3    1    6    6    0  502  0.98845091142E+02  0.45538766513E+02  0.28772308736E+03  0.30761779256E+03  0.00000000000E+00 0.  1.
<mgrwt>
<rscale>  0 0.16064108E+04</rscale>
<asrwt>0</asrwt>
<pdfrwt beam="1">  1        2 0.37439595E+00 0.16064108E+04</pdfrwt>
<pdfrwt beam="2">  1       -2 0.40784524E-01 0.16064108E+04</pdfrwt>
<totfact> 0.20786123E+01</totfact>
</mgrwt>
</event>
<event>
12    1  0.1472088E-007  0.1495203E+04  0.7818608E-02  0.8887649E-01
          2   -1    0    0  501    0  0.00000000000E+00  0.00000000000E+00  0.11867026190E+04  0.11867026190E+04  0.00000000000E+00 0. -1.
         -2   -1    0    0    0  501 -0.00000000000E+00 -0.00000000000E+00 -0.47097548012E+03  0.47097548012E+03  0.00000000000E+00 0.  1.
         23    2    1    2    0    0 -0.78458407440E+02 -0.25609091256E+02 -0.28486707927E+03  0.31119553780E+03  0.94243634506E+02 0.  0.
        254    2    1    2    0    0  0.78458407440E+02  0.25609091256E+02  0.10005942182E+04  0.13464825613E+04  0.89722625424E+03 0.  0.
        -24    2    4    4    0    0 -0.16636673783E+03  0.15911643319E+03 -0.56881294973E+02  0.25002821956E+03  0.79263472606E+02 0.  0.
         24    2    4    4    0    0  0.24482514527E+03 -0.13350734194E+03  0.10574755131E+04  0.10964543418E+04  0.78702608510E+02 0.  0.
         11    1    3    3    0    0  0.16818008803E+02 -0.24769851337E+02 -0.72051720071E+02  0.78024619964E+02  0.00000000000E+00 0. -1.
        -11    1    3    3    0    0 -0.95276416243E+02 -0.83923991917E+00 -0.21281535920E+03  0.23317091784E+03  0.00000000000E+00 0.  1.
          4    1    6    6  502    0  0.15832919955E+03 -0.12603809549E+03  0.70776534958E+03  0.73612874350E+03  0.00000000000E+00 0. -1.
          1    1    5    5  503    0 -0.12810879559E+03  0.12023787964E+03 -0.77083653460E+02  0.19186167110E+03  0.00000000000E+00 0. -1.
         -2    1    5    5    0  503 -0.38257942243E+02  0.38878553555E+02  0.20202358486E+02  0.58166548459E+02  0.00000000000E+00 0.  1.
         -3    1    6    6    0  502  0.86495945725E+02 -0.74692464450E+01  0.34971016357E+03  0.36032559828E+03  0.00000000000E+00 0.  1.
<mgrwt>
<rscale>  0 0.14952028E+04</rscale>
<asrwt>0</asrwt>
<pdfrwt beam="1">  1        2 0.18256963E+00 0.14952028E+04</pdfrwt>
<pdfrwt beam="2">  1       -2 0.72457766E-01 0.14952028E+04</pdfrwt>
<totfact> 0.32137263E+01</totfact>
</mgrwt>
</event>
<event>
12    1  0.1472088E-007  0.1816054E+04  0.7818608E-02  0.8697809E-01
         -2   -1    0    0    0  501 -0.00000000000E+00  0.00000000000E+00  0.77812056703E+03  0.77812056703E+03  0.00000000000E+00 0.  1.
          2   -1    0    0  501    0  0.00000000000E+00 -0.00000000000E+00 -0.10596208446E+04  0.10596208446E+04  0.00000000000E+00 0. -1.
         23    2    1    2    0    0  0.33370465914E+03 -0.27628736298E+03 -0.63703233171E+03  0.77568511694E+03  0.90463818794E+02 0.  0.
        254    2    1    2    0    0 -0.33370465914E+03  0.27628736298E+03  0.35553205411E+03  0.10620562947E+04  0.90214578931E+03 0.  0.
        -24    2    4    4    0    0  0.24245294389E+03  0.13841273844E+03  0.36038426195E+03  0.46427323022E+03  0.87927810573E+02 0.  0.
         24    2    4    4    0    0 -0.57615760303E+03  0.13787462454E+03 -0.48522078395E+01  0.59778306450E+03  0.79712311840E+02 0.  0.
         13    1    3    3    0    0  0.10185694316E+03 -0.13979540661E+03 -0.26869570582E+03  0.31955433796E+03  0.00000000000E+00 0. -1.
        -13    1    3    3    0    0  0.23184771598E+03 -0.13649195638E+03 -0.36833662589E+03  0.45613077898E+03  0.00000000000E+00 0.  1.
          4    1    6    6  502    0 -0.42819500443E+03  0.12701409611E+03 -0.28524418008E+02  0.44754573493E+03  0.00000000000E+00 0. -1.
          1    1    5    5  503    0  0.53128216668E+02  0.44887773467E+02  0.15411245832E+03  0.16908036380E+03  0.00000000000E+00 0. -1.
         -2    1    5    5    0  503  0.18932472723E+03  0.93524964973E+02  0.20627180363E+03  0.29519286642E+03  0.00000000000E+00 0.  1.
         -1    1    6    6    0  502 -0.14796259859E+03  0.10860528431E+02  0.23672210169E+02  0.15023732957E+03  0.00000000000E+00 0.  1.
<mgrwt>
<rscale>  0 0.18160537E+04</rscale>
<asrwt>0</asrwt>
<pdfrwt beam="1">  1        2 0.16301859E+00 0.18160537E+04</pdfrwt>
<pdfrwt beam="2">  1       -2 0.11971086E+00 0.18160537E+04</pdfrwt>
<totfact> 0.11628306E+01</totfact>
</mgrwt>
</event>
<event>
12    1  0.1472088E-007  0.2525338E+04  0.7818608E-02  0.8394014E-01
          2   -1    0    0  501    0  0.00000000000E+00  0.00000000000E+00  0.15319327378E+04  0.15319327378E+04  0.00000000000E+00 0. -1.
         -2   -1    0    0    0  501 -0.00000000000E+00 -0.00000000000E+00 -0.10407328887E+04  0.10407328887E+04  0.00000000000E+00 0.  1.
         23    2    1    2    0    0  0.36046371258E+03  0.86040741226E+03 -0.25032712774E+03  0.97018223062E+03  0.91405068622E+02 0.  0.
        254    2    1    2    0    0 -0.36046371258E+03 -0.86040741226E+03  0.74152697681E+03  0.16024833959E+04  0.10713803124E+04 0.  0.
        -24    2    4    4    0    0  0.22844289651E+03 -0.75402143149E+03  0.27099972674E+03  0.83706635884E+03  0.80652099181E+02 0.  0.
         24    2    4    4    0    0 -0.58890660909E+03 -0.10638598077E+03  0.47052725007E+03  0.76541703708E+03  0.79613921251E+02 0.  0.
         13    1    3    3    0    0  0.30135989972E+03  0.75258892831E+03 -0.18740980526E+03  0.83206389134E+03  0.00000000000E+00 0.  1.
        -13    1    3    3    0    0  0.59103812867E+02  0.10781848395E+03 -0.62917322477E+02  0.13811833927E+03  0.00000000000E+00 0. -1.
          2    1    6    6  502    0 -0.57342207773E+03 -0.10310439957E+03  0.47157956590E+03  0.74955365613E+03  0.00000000000E+00 0. -1.
          1    1    5    5  503    0  0.14779311774E+03 -0.42425721009E+03  0.19165063842E+03  0.48843316141E+03  0.00000000000E+00 0. -1.
         -2    1    5    5    0  503  0.80649778766E+02 -0.32976422140E+03  0.79349088324E+02  0.34863319743E+03  0.00000000000E+00 0.  1.
         -1    1    6    6    0  502 -0.15484531358E+02 -0.32815812043E+01 -0.10523158296E+01  0.15863380951E+02  0.00000000000E+00 0.  1.
<mgrwt>
<rscale>  0 0.25253378E+04</rscale>
<asrwt>0</asrwt>
<pdfrwt beam="1">  1        2 0.23568196E+00 0.25253378E+04</pdfrwt>
<pdfrwt beam="2">  1       -2 0.16011275E+00 0.25253378E+04</pdfrwt>
<totfact> 0.27253697E+00</totfact>
</mgrwt>
</event>
<event>
12    1  0.1472088E-007  0.1700719E+04  0.7818608E-02  0.8760955E-01
          2   -1    0    0  501    0  0.00000000000E+00  0.00000000000E+00  0.29621293136E+04  0.29621293136E+04  0.00000000000E+00 0.  1.
         -2   -1    0    0    0  501 -0.00000000000E+00 -0.00000000000E+00 -0.24411860774E+03  0.24411860774E+03  0.00000000000E+00 0. -1.
         23    2    1    2    0    0  0.79289686806E+02  0.53234690281E+03  0.44698183005E+03  0.70573790041E+03  0.92699235788E+02 0.  0.
        254    2    1    2    0    0 -0.79289686806E+02 -0.53234690281E+03  0.22710288758E+04  0.25005100209E+04  0.89738404856E+03 0.  0.
        -24    2    4    4    0    0 -0.23760350944E+03  0.14131039226E+03  0.32745736231E+03  0.43579313665E+03  0.79140881735E+02 0.  0.
         24    2    4    4    0    0  0.15831382263E+03 -0.67365729507E+03  0.19435715135E+04  0.20647168843E+04  0.81903397192E+02 0.  0.
         13    1    3    3    0    0  0.26059833481E+02  0.10342354181E+03  0.13812903805E+03  0.17451411139E+03  0.00000000000E+00 0.  1.
        -13    1    3    3    0    0  0.53229853325E+02  0.42892336099E+03  0.30885279200E+03  0.53122378902E+03  0.00000000000E+00 0. -1.
          2    1    6    6  502    0  0.98450196377E+02 -0.38141119363E+03  0.12216904473E+04  0.12836255252E+04  0.00000000000E+00 0. -1.
          1    1    5    5  503    0 -0.23285376857E+03  0.14915761366E+03  0.32406572652E+03  0.42601345795E+03  0.00000000000E+00 0. -1.
         -2    1    5    5    0  503 -0.47497408747E+01 -0.78472214050E+01  0.33916357893E+01  0.97796787004E+01  0.00000000000E+00 0.  1.
         -1    1    6    6    0  502  0.59863626258E+02 -0.29224610144E+03  0.72188106617E+03  0.78109135909E+03  0.00000000000E+00 0.  1.
<mgrwt>
<rscale>  0 0.17007185E+04</rscale>
<asrwt>0</asrwt>
<pdfrwt beam="1">  1        2 0.45571218E+00 0.17007185E+04</pdfrwt>
<pdfrwt beam="2">  1       -2 0.37556711E-01 0.17007185E+04</pdfrwt>
<totfact> 0.11753086E+01</totfact>
</mgrwt>
</event>
<event>
12    1  0.1472088E-007  0.2355797E+04  0.7818608E-02  0.8456240E-01
         -2   -1    0    0    0  501 -0.00000000000E+00  0.00000000000E+00  0.79096677035E+03  0.79096677035E+03  0.00000000000E+00 0. -1.
          2   -1    0    0  501    0  0.00000000000E+00 -0.00000000000E+00 -0.17541122969E+04  0.17541122969E+04  0.00000000000E+00 0.  1.
         23    2    1    2    0    0  0.63863680780E+03  0.76774856153E+03 -0.28711773640E+03  0.10428139947E+04  0.87918183665E+02 0.  0.
        254    2    1    2    0    0 -0.63863680780E+03 -0.76774856153E+03 -0.67602779017E+03  0.15022650726E+04  0.89581914978E+03 0.  0.
        -24    2    4    4    0    0 -0.57184927974E+03 -0.39044818820E+03 -0.82820596523E+03  0.10822813788E+04  0.77113394409E+02 0.  0.
         24    2    4    4    0    0 -0.66787528059E+02 -0.37730037333E+03  0.15217817506E+03  0.41998369378E+03  0.80074717941E+02 0.  0.
         13    1    3    3    0    0  0.70893230245E+02  0.67256390923E+02 -0.42683298725E+01  0.97813551487E+02  0.00000000000E+00 0. -1.
        -13    1    3    3    0    0  0.56774357755E+03  0.70049217061E+03 -0.28284940653E+03  0.94500044323E+03  0.00000000000E+00 0.  1.
          2    1    6    6  502    0 -0.28241823475E+02 -0.18467617186E+03  0.31572688924E+02  0.18947222417E+03  0.00000000000E+00 0. -1.
          1    1    5    5  503    0 -0.14685555363E+03 -0.11561645373E+03 -0.17592958844E+03  0.25668061496E+03  0.00000000000E+00 0. -1.
         -2    1    5    5    0  503 -0.42499372611E+03 -0.27483173447E+03 -0.65227637679E+03  0.82560076382E+03  0.00000000000E+00 0.  1.
         -1    1    6    6    0  502 -0.38545704584E+02 -0.19262420147E+03  0.12060548613E+03  0.23051146961E+03  0.00000000000E+00 0.  1.
<mgrwt>
<rscale>  0 0.23557967E+04</rscale>
<asrwt>0</asrwt>
<pdfrwt beam="1">  1        2 0.26986343E+00 0.23557967E+04</pdfrwt>
<pdfrwt beam="2">  1       -2 0.12168720E+00 0.23557967E+04</pdfrwt>
<totfact> 0.42355355E+00</totfact>
</mgrwt>
</event>
<event>
12    1  0.1472088E-007  0.2765168E+04  0.7818608E-02  0.8314165E-01
         -1   -1    0    0    0  501 -0.00000000000E+00  0.00000000000E+00  0.79915249373E+03  0.79915249373E+03  0.00000000000E+00 0.  1.
          1   -1    0    0  501    0  0.00000000000E+00 -0.00000000000E+00 -0.23919571015E+04  0.23919571015E+04  0.00000000000E+00 0. -1.
         23    2    1    2    0    0 -0.72543409334E+03 -0.83556009008E+03 -0.13373279988E+04  0.17383465903E+04  0.94801917153E+02 0.  0.
        254    2    1    2    0    0  0.72543409334E+03  0.83556009008E+03 -0.25547660895E+03  0.14527630050E+04  0.90600042109E+03 0.  0.
        -24    2    4    4    0    0  0.61368201303E+03  0.40104678140E+03 -0.54153727247E+03  0.91452133153E+03  0.75116671632E+02 0.  0.
         24    2    4    4    0    0  0.11175208030E+03  0.43451330868E+03  0.28606066353E+03  0.53824167345E+03  0.81136015130E+02 0.  0.
         13    1    3    3    0    0 -0.12200834831E+03 -0.10551538405E+03 -0.15837915261E+03  0.22606080888E+03  0.00000000000E+00 0.  1.
        -13    1    3    3    0    0 -0.60342574503E+03 -0.73004470603E+03 -0.11789488462E+04  0.15122857814E+04  0.00000000000E+00 0. -1.
          4    1    6    6  502    0  0.77613331248E+02  0.16963162074E+03  0.91238480452E+02  0.20766120547E+03  0.00000000000E+00 0. -1.
          1    1    5    5  503    0  0.15801762335E+03  0.91613801987E+02 -0.97633316726E+02  0.20711089430E+03  0.00000000000E+00 0. -1.
         -2    1    5    5    0  503  0.45566438969E+03  0.30943297942E+03 -0.44390395574E+03  0.70741043723E+03  0.00000000000E+00 0.  1.
         -3    1    6    6    0  502  0.34138749055E+02  0.26488168794E+03  0.19482218307E+03  0.33058046798E+03  0.00000000000E+00 0.  1.
<mgrwt>
<rscale>  0 0.27651680E+04</rscale>
<asrwt>0</asrwt>
<pdfrwt beam="1">  1        1 0.36799340E+00 0.27651680E+04</pdfrwt>
<pdfrwt beam="2">  1       -1 0.12294654E+00 0.27651680E+04</pdfrwt>
<totfact> 0.81446144E-01</totfact>
</mgrwt>
</event>
<event>
12    1  0.1472088E-007  0.2611435E+04  0.7818608E-02  0.8364327E-01
         -1   -1    0    0    0  501 -0.00000000000E+00  0.00000000000E+00  0.50040948871E+03  0.50040948871E+03  0.00000000000E+00 0.  1.
          1   -1    0    0  501    0  0.00000000000E+00 -0.00000000000E+00 -0.34070057847E+04  0.34070057847E+04  0.00000000000E+00 0. -1.
         23    2    1    2    0    0 -0.13241732836E+02  0.11466018531E+04 -0.10411898590E+04  0.15515296553E+04  0.91086750021E+02 0.  0.
        254    2    1    2    0    0  0.13241732836E+02 -0.11466018531E+04 -0.18654064370E+04  0.23558856181E+04  0.86924376173E+03 0.  0.
        -24    2    4    4    0    0 -0.38329987277E+01 -0.13909780791E+02 -0.78255823865E+03  0.78633850392E+03  0.75648344242E+02 0.  0.
         24    2    4    4    0    0  0.17074731564E+02 -0.11326920723E+04 -0.10828481984E+04  0.15695471142E+04  0.87378749386E+02 0.  0.
         11    1    3    3    0    0  0.92961460815E+00  0.16586878171E+03 -0.19609118458E+03  0.25683665938E+03  0.00000000000E+00 0.  1.
        -11    1    3    3    0    0 -0.14171347444E+02  0.98073307135E+03 -0.84509867440E+03  0.12946929960E+04  0.00000000000E+00 0. -1.
          4    1    6    6  502    0 -0.25995087438E+02 -0.76617548129E+03 -0.70832246648E+03  0.10437534811E+04  0.00000000000E+00 0. -1.
          1    1    5    5  503    0  0.12188704278E+02 -0.27740060969E+02 -0.71271349133E+03  0.71335727109E+03  0.00000000000E+00 0. -1.
         -2    1    5    5    0  503 -0.16021703006E+02  0.13830280177E+02 -0.69844747321E+02  0.72981232830E+02  0.00000000000E+00 0.  1.
         -3    1    6    6    0  502  0.43069819002E+02 -0.36651659098E+03 -0.37452573191E+03  0.52579363313E+03  0.00000000000E+00 0.  1.
<mgrwt>
<rscale>  0 0.26114349E+04</rscale>
<asrwt>0</asrwt>
<pdfrwt beam="1">  1        1 0.52415475E+00 0.26114349E+04</pdfrwt>
<pdfrwt beam="2">  1       -1 0.76986074E-01 0.26114349E+04</pdfrwt>
<totfact> 0.44005618E-01</totfact>
</mgrwt>
</event>
<event>
12    1  0.1472088E-007  0.2678956E+04  0.7818608E-02  0.8341865E-01
          1   -1    0    0  501    0  0.00000000000E+00  0.00000000000E+00  0.11190847568E+04  0.11190847568E+04  0.00000000000E+00 0. -1.
         -1   -1    0    0    0  501 -0.00000000000E+00 -0.00000000000E+00 -0.16032760246E+04  0.16032760246E+04  0.00000000000E+00 0.  1.
         23    2    1    2    0    0  0.85979609968E+03 -0.52187492467E+03 -0.87540345882E+03  0.13392360566E+04  0.12497691635E+03 0.  0.
        254    2    1    2    0    0 -0.85979609968E+03  0.52187492467E+03  0.39121219106E+03  0.13831247248E+04  0.86509205051E+03 0.  0.
        -24    2    4    4    0    0 -0.89502510829E+03  0.18099223937E+03  0.45840410683E+03  0.10248631222E+04  0.79887163937E+02 0.  0.
         24    2    4    4    0    0  0.35229008604E+02  0.34088268530E+03 -0.67191915777E+02  0.35826160256E+03  0.79965831078E+02 0.  0.
         11    1    3    3    0    0  0.77220598114E+03 -0.46418470590E+03 -0.82975025351E+03  0.12248489710E+04  0.00000000000E+00 0.  1.
        -11    1    3    3    0    0  0.87590118549E+02 -0.57690218764E+02 -0.45653205309E+02  0.11438708565E+03  0.00000000000E+00 0. -1.
          4    1    6    6  502    0  0.10356977981E+02  0.30002129973E+03 -0.38964092903E+02  0.30271809959E+03  0.00000000000E+00 0. -1.
          1    1    5    5  503    0 -0.79075048175E+03  0.13503272427E+03  0.39026810204E+03  0.89209268156E+03  0.00000000000E+00 0. -1.
         -2    1    5    5    0  503 -0.10427462654E+03  0.45959515095E+02  0.68136004790E+02  0.13277044067E+03  0.00000000000E+00 0.  1.
         -3    1    6    6    0  502  0.24872030623E+02  0.40861385569E+02 -0.28227822874E+02  0.55543502970E+02  0.00000000000E+00 0.  1.
<mgrwt>
<rscale>  0 0.26789563E+04</rscale>
<asrwt>0</asrwt>
<pdfrwt beam="1">  1        1 0.17216688E+00 0.26789563E+04</pdfrwt>
<pdfrwt beam="2">  1       -1 0.24665785E+00 0.26789563E+04</pdfrwt>
<totfact> 0.78669171E-01</totfact>
</mgrwt>
</event>
<event>
12    1  0.1472088E-007  0.1105315E+04  0.7818608E-02  0.9200027E-01
         -1   -1    0    0    0  501 -0.00000000000E+00  0.00000000000E+00  0.22544856674E+03  0.22544856674E+03  0.00000000000E+00 0.  1.
          1   -1    0    0  501    0  0.00000000000E+00 -0.00000000000E+00 -0.13547672451E+04  0.13547672451E+04  0.00000000000E+00 0. -1.
         23    2    1    2    0    0 -0.12523665505E+03 -0.12055546398E+03 -0.22442493380E+03  0.29821572263E+03  0.91368630558E+02 0.  0.
        254    2    1    2    0    0  0.12523665505E+03  0.12055546398E+03 -0.90489374457E+03  0.12820000892E+04  0.89133254183E+03 0.  0.
        -24    2    4    4    0    0  0.11107403518E+03  0.15831789180E+03 -0.10722463241E+04  0.10921662362E+04  0.75583806496E+02 0.  0.
         24    2    4    4    0    0  0.14162619869E+02 -0.37762427827E+02  0.16735257950E+03  0.18983385304E+03  0.80021404232E+02 0.  0.
         11    1    3    3    0    0 -0.59986957944E+02 -0.10199238468E+03 -0.18543479677E+03  0.21997032870E+03  0.00000000000E+00 0.  1.
        -11    1    3    3    0    0 -0.65249697103E+02 -0.18563079299E+02 -0.38990137025E+02  0.78245393924E+02  0.00000000000E+00 0. -1.
          4    1    6    6  502    0 -0.10693936921E+02 -0.57059431102E+02  0.11252848848E+03  0.12662069216E+03  0.00000000000E+00 0. -1.
          1    1    5    5  503    0  0.62757933248E+02  0.12862971693E+03 -0.61594727916E+03  0.63235687153E+03  0.00000000000E+00 0. -1.
         -2    1    5    5    0  503  0.48316101930E+02  0.29688174877E+02 -0.45629904491E+03  0.45980936465E+03  0.00000000000E+00 0.  1.
         -3    1    6    6    0  502  0.24856556790E+02  0.19297003275E+02  0.54824091027E+02  0.63213160875E+02  0.00000000000E+00 0.  1.
<mgrwt>
<rscale>  0 0.11053150E+04</rscale>
<asrwt>0</asrwt>
<pdfrwt beam="1">  1        1 0.20842573E+00 0.11053150E+04</pdfrwt>
<pdfrwt beam="2">  1       -1 0.34684395E-01 0.11053150E+04</pdfrwt>
<totfact> 0.64925292E+01</totfact>
</mgrwt>
</event>
<event>
12    1  0.1472088E-007  0.1758019E+04  0.7818608E-02  0.8728948E-01
          2   -1    0    0  501    0  0.00000000000E+00  0.00000000000E+00  0.81027007573E+03  0.81027007573E+03  0.00000000000E+00 0. -1.
         -2   -1    0    0    0  501 -0.00000000000E+00 -0.00000000000E+00 -0.95358096772E+03  0.95358096772E+03  0.00000000000E+00 0.  1.
         23    2    1    2    0    0  0.20577926069E+03  0.25554961264E+03  0.50710998984E+03  0.61067384442E+03  0.90062721523E+02 0.  0.
        254    2    1    2    0    0 -0.20577926069E+03 -0.25554961264E+03 -0.65042088184E+03  0.11531771990E+04  0.89393490825E+03 0.  0.
        -24    2    4    4    0    0  0.84630981625E+02  0.11526005018E+03  0.14850645007E+03  0.22229525464E+03  0.83148856308E+02 0.  0.
         24    2    4    4    0    0 -0.29041024231E+03 -0.37080966282E+03 -0.79892733191E+03  0.93088194439E+03  0.80114903996E+02 0.  0.
         11    1    3    3    0    0  0.20304896637E+03  0.20313045801E+03  0.44060018234E+03  0.52594618203E+03  0.00000000000E+00 0. -1.
        -11    1    3    3    0    0  0.27302943157E+01  0.52419154633E+02  0.66509807498E+02  0.84727662383E+02  0.00000000000E+00 0.  1.
          4    1    6    6  502    0 -0.86182400665E+02 -0.60107525950E+02 -0.15347518678E+03  0.18599718766E+03  0.00000000000E+00 0. -1.
          3    1    5    5  503    0 -0.15258695071E+02  0.20582176997E+02  0.37806696518E+02  0.45670560395E+02  0.00000000000E+00 0. -1.
         -4    1    5    5    0  503  0.99889676696E+02  0.94677873184E+02  0.11069975355E+03  0.17662469425E+03  0.00000000000E+00 0.  1.
         -3    1    6    6    0  502 -0.20422784165E+03 -0.31070213687E+03 -0.64545214513E+03  0.74488475673E+03  0.00000000000E+00 0.  1.
<mgrwt>
<rscale>  0 0.17580195E+04</rscale>
<asrwt>0</asrwt>
<pdfrwt beam="1">  1        2 0.12465693E+00 0.17580195E+04</pdfrwt>
<pdfrwt beam="2">  1       -2 0.14670476E+00 0.17580195E+04</pdfrwt>
<totfact> 0.10188762E+01</totfact>
</mgrwt>
</event>
<event>
12    1  0.1472088E-007  0.1472260E+04  0.7818608E-02  0.8903112E-01
         -2   -1    0    0    0  501 -0.00000000000E+00  0.00000000000E+00  0.44166075425E+03  0.44166075425E+03  0.00000000000E+00 0.  1.
          2   -1    0    0  501    0  0.00000000000E+00 -0.00000000000E+00 -0.12269304784E+04  0.12269304784E+04  0.00000000000E+00 0. -1.
         23    2    1    2    0    0 -0.33688040528E+03 -0.18551302119E+03 -0.53542016727E+03  0.66470526304E+03  0.85175364399E+02 0.  0.
        254    2    1    2    0    0  0.33688040528E+03  0.18551302119E+03 -0.24984955686E+03  0.10038859696E+04  0.89300545933E+03 0.  0.
        -24    2    4    4    0    0  0.16512893738E+03  0.52395262217E+03 -0.26503753597E+03  0.61498567181E+03  0.78540211497E+02 0.  0.
         24    2    4    4    0    0  0.17175146790E+03 -0.33843960098E+03  0.15187979101E+02  0.38890029779E+03  0.83503512945E+02 0.  0.
         13    1    3    3    0    0 -0.29651281342E+02 -0.20817095087E+02 -0.10354534155E+03  0.10970044526E+03  0.00000000000E+00 0.  1.
        -13    1    3    3    0    0 -0.30722912394E+03 -0.16469592610E+03 -0.43187482572E+03  0.55500481778E+03  0.00000000000E+00 0. -1.
          4    1    6    6  502    0  0.73317153656E+02 -0.15913733737E+03 -0.34097708217E+02  0.17850140300E+03  0.00000000000E+00 0. -1.
          3    1    5    5  503    0  0.86914824842E+02  0.22389601801E+03 -0.76405123607E+02  0.25203443528E+03  0.00000000000E+00 0. -1.
         -4    1    5    5    0  503  0.78214112538E+02  0.30005660416E+03 -0.18863241236E+03  0.36295123652E+03  0.00000000000E+00 0.  1.
         -3    1    6    6    0  502  0.98434314246E+02 -0.17930226361E+03  0.49285687318E+02  0.21039889479E+03  0.00000000000E+00 0.  1.
<mgrwt>
<rscale>  0 0.14722595E+04</rscale>
<asrwt>0</asrwt>
<pdfrwt beam="1">  1        2 0.18875854E+00 0.14722595E+04</pdfrwt>
<pdfrwt beam="2">  1       -2 0.67947808E-01 0.14722595E+04</pdfrwt>
<totfact> 0.35055000E+01</totfact>
</mgrwt>
</event>
<event>
12    1  0.1472088E-007  0.3570740E+04  0.7818608E-02  0.8097227E-01
          2   -1    0    0  501    0  0.00000000000E+00  0.00000000000E+00  0.29035310267E+04  0.29035310267E+04  0.00000000000E+00 0. -1.
         -2   -1    0    0    0  501 -0.00000000000E+00 -0.00000000000E+00 -0.10978172506E+04  0.10978172506E+04  0.00000000000E+00 0.  1.
         23    2    1    2    0    0 -0.14871868905E+04  0.32510946118E+03  0.16192171267E+04  0.22243786797E+04  0.92603445298E+02 0.  0.
        254    2    1    2    0    0  0.14871868905E+04 -0.32510946118E+03  0.18649664942E+03  0.17769695976E+04  0.89745135882E+03 0.  0.
        -24    2    4    4    0    0  0.93535152067E+03 -0.42911991294E+03  0.48007845627E+03  0.11383125867E+04  0.79081312529E+02 0.  0.
         24    2    4    4    0    0  0.55183536986E+03  0.10401045176E+03 -0.29358180685E+03  0.63865701089E+03  0.79699753734E+02 0.  0.
         13    1    3    3    0    0 -0.13824322684E+04  0.31866689709E+03  0.14814073376E+04  0.20511546183E+04  0.00000000000E+00 0. -1.
        -13    1    3    3    0    0 -0.10475462210E+03  0.64425640911E+01  0.13780978907E+03  0.17322406140E+03  0.00000000000E+00 0.  1.
          4    1    6    6  502    0  0.69590746277E+02 -0.11676726352E+02 -0.26428192116E+02  0.75350296909E+02  0.00000000000E+00 0. -1.
          3    1    5    5  503    0  0.43532074525E+03 -0.20465806125E+03  0.18125222799E+03  0.51404420377E+03  0.00000000000E+00 0. -1.
         -4    1    5    5    0  503  0.50003077541E+03 -0.22446185170E+03  0.29882622828E+03  0.62426838293E+03  0.00000000000E+00 0.  1.
         -3    1    6    6    0  502  0.48224462358E+03  0.11568717811E+03 -0.26715361473E+03  0.56330671398E+03  0.00000000000E+00 0.  1.
<mgrwt>
<rscale>  0 0.35707402E+04</rscale>
<asrwt>0</asrwt>
<pdfrwt beam="1">  1        2 0.44669708E+00 0.35707402E+04</pdfrwt>
<pdfrwt beam="2">  1       -2 0.16889496E+00 0.35707402E+04</pdfrwt>
<totfact> 0.35426444E-01</totfact>
</mgrwt>
</event>
<event>
12    1  0.1472088E-007  0.1037388E+04  0.7818608E-02  0.9268463E-01
         -2   -1    0    0    0  501 -0.00000000000E+00  0.00000000000E+00  0.50358011059E+03  0.50358011059E+03  0.00000000000E+00 0.  1.
          2   -1    0    0  501    0  0.00000000000E+00 -0.00000000000E+00 -0.53426161635E+03  0.53426161635E+03  0.00000000000E+00 0. -1.
         23    2    1    2    0    0 -0.70530535883E+02 -0.41466879822E+01  0.54715491874E+02  0.12652144157E+03  0.89566392199E+02 0.  0.
        254    2    1    2    0    0  0.70530535883E+02  0.41466879822E+01 -0.85396997641E+02  0.91132028537E+03  0.90455528511E+03 0.  0.
        -24    2    4    4    0    0 -0.78023717585E+02 -0.42898429096E+03 -0.26743106974E+02  0.44383882623E+03  0.78501512785E+02 0.  0.
         24    2    4    4    0    0  0.14855425347E+03  0.43313097894E+03 -0.58653890668E+02  0.46748145914E+03  0.73673771508E+02 0.  0.
         13    1    3    3    0    0 -0.36101990124E+02  0.39902395770E+02  0.44194393212E+02  0.69632602066E+02  0.00000000000E+00 0. -1.
        -13    1    3    3    0    0 -0.34428545759E+02 -0.44049083752E+02  0.10521098662E+02  0.56888839499E+02  0.00000000000E+00 0.  1.
          4    1    6    6  502    0  0.47136156834E+02  0.62851283804E+02  0.31259674695E+01  0.78624886833E+02  0.00000000000E+00 0. -1.
          3    1    5    5  503    0 -0.35982739197E+02 -0.93990966073E+02 -0.33731297968E+02  0.10614546475E+03  0.00000000000E+00 0. -1.
         -4    1    5    5    0  503 -0.42040978387E+02 -0.33499332488E+03  0.69881909945E+01  0.33769336149E+03  0.00000000000E+00 0.  1.
         -3    1    6    6    0  502  0.10141809663E+03  0.37027969513E+03 -0.61779858137E+02  0.38885657231E+03  0.00000000000E+00 0.  1.
<mgrwt>
<rscale>  0 0.10373881E+04</rscale>
<asrwt>0</asrwt>
<pdfrwt beam="1">  1        2 0.82194095E-01 0.10373881E+04</pdfrwt>
<pdfrwt beam="2">  1       -2 0.77473863E-01 0.10373881E+04</pdfrwt>
<totfact> 0.84392398E+01</totfact>
</mgrwt>
</event>
<event>
12    1  0.1472088E-007  0.1785988E+04  0.7818608E-02  0.8713787E-01
         -2   -1    0    0    0  501 -0.00000000000E+00  0.00000000000E+00  0.45079038275E+03  0.45079038275E+03  0.00000000000E+00 0.  1.
          2   -1    0    0  501    0  0.00000000000E+00 -0.00000000000E+00 -0.17689781928E+04  0.17689781928E+04  0.00000000000E+00 0. -1.
         23    2    1    2    0    0 -0.23462600996E+02  0.25699379422E+03  0.26007875351E+03  0.37752348112E+03  0.91031405893E+02 0.  0.
        254    2    1    2    0    0  0.23462600996E+02 -0.25699379422E+03 -0.15782665636E+04  0.18422450945E+04  0.91451918427E+03 0.  0.
        -24    2    4    4    0    0 -0.19902876003E+03 -0.44672738910E+03 -0.14118351234E+04  0.14963064456E+04  0.80478295076E+02 0.  0.
         24    2    4    4    0    0  0.22249136102E+03  0.18973359489E+03 -0.16643144020E+03  0.34593864887E+03  0.80454221375E+02 0.  0.
         13    1    3    3    0    0 -0.44435151597E+02  0.99783235204E+02  0.69005612203E+02  0.12920120449E+03  0.00000000000E+00 0. -1.
        -13    1    3    3    0    0  0.20972550601E+02  0.15721055901E+03  0.19107314131E+03  0.24832227664E+03  0.00000000000E+00 0.  1.
          4    1    6    6  502    0  0.18385248091E+03  0.12847588379E+03 -0.93031953312E+02  0.24282242852E+03  0.00000000000E+00 0. -1.
          1    1    5    5  503    0 -0.19039756525E+03 -0.36249180217E+03 -0.12111051798E+04  0.12784472207E+04  0.00000000000E+00 0. -1.
         -2    1    5    5    0  503 -0.86311947750E+01 -0.84235586933E+02 -0.20072994357E+03  0.21785922491E+03  0.00000000000E+00 0.  1.
         -3    1    6    6    0  502  0.38638880112E+02  0.61257711090E+02 -0.73399486891E+02  0.10311622035E+03  0.00000000000E+00 0.  1.
<mgrwt>
<rscale>  0 0.17859881E+04</rscale>
<asrwt>0</asrwt>
<pdfrwt beam="1">  1        2 0.27215049E+00 0.17859881E+04</pdfrwt>
<pdfrwt beam="2">  1       -2 0.69352366E-01 0.17859881E+04</pdfrwt>
<totfact> 0.16095265E+01</totfact>
</mgrwt>
</event>
<event>
12    1  0.1472088E-007  0.1284368E+04  0.7818608E-02  0.9042055E-01
          1   -1    0    0  501    0  0.00000000000E+00  0.00000000000E+00  0.58273912689E+03  0.58273912689E+03  0.00000000000E+00 0. -1.
         -1   -1    0    0    0  501 -0.00000000000E+00 -0.00000000000E+00 -0.70769226542E+03  0.70769226542E+03  0.00000000000E+00 0.  1.
         23    2    1    2    0    0 -0.11469088157E+03 -0.10264166158E+03  0.22727023412E+03  0.28942766519E+03  0.91800354316E+02 0.  0.
        254    2    1    2    0    0  0.11469088157E+03  0.10264166158E+03 -0.35222337265E+03  0.10010037271E+04  0.92426070372E+03 0.  0.
        -24    2    4    4    0    0  0.51340537809E+03  0.83721925032E+02 -0.24150399951E+03  0.57926425811E+03  0.81415329996E+02 0.  0.
         24    2    4    4    0    0 -0.39871449652E+03  0.18919736545E+02 -0.11071937314E+03  0.42173946901E+03  0.79209809798E+02 0.  0.
         11    1    3    3    0    0 -0.23181703146E+02  0.15882931974E+02  0.23977901556E+02  0.36940474440E+02  0.00000000000E+00 0.  1.
        -11    1    3    3    0    0 -0.91509178429E+02 -0.11852459355E+03  0.20329233257E+03  0.25248719075E+03  0.00000000000E+00 0. -1.
          4    1    6    6  502    0 -0.36348755702E+02 -0.19721993125E+02 -0.18138303761E+01  0.41394190831E+02  0.00000000000E+00 0. -1.
          1    1    5    5  503    0  0.12868702887E+03  0.29905940029E+02 -0.24733051771E+02  0.13441145970E+03  0.00000000000E+00 0. -1.
         -2    1    5    5    0  503  0.38471834922E+03  0.53815985003E+02 -0.21677094774E+03  0.44485279841E+03  0.00000000000E+00 0.  1.
         -3    1    6    6    0  502 -0.36236574081E+03  0.38641729670E+02 -0.10890554277E+03  0.38034527818E+03  0.00000000000E+00 0.  1.
<mgrwt>
<rscale>  0 0.12843675E+04</rscale>
<asrwt>0</asrwt>
<pdfrwt beam="1">  1        1 0.89652173E-01 0.12843675E+04</pdfrwt>
<pdfrwt beam="2">  1       -1 0.10887573E+00 0.12843675E+04</pdfrwt>
<totfact> 0.27489285E+01</totfact>
</mgrwt>
</event>
<event>
12    1  0.1472088E-007  0.2326728E+04  0.7818608E-02  0.8467456E-01
         -2   -1    0    0    0  501 -0.00000000000E+00  0.00000000000E+00  0.54519622329E+03  0.54519622329E+03  0.00000000000E+00 0. -1.
          2   -1    0    0  501    0  0.00000000000E+00 -0.00000000000E+00 -0.24824388209E+04  0.24824388209E+04  0.00000000000E+00 0.  1.
         23    2    1    2    0    0  0.45224332447E+03  0.66334580503E+03 -0.15585063782E+04  0.17552480310E+04  0.86033934232E+02 0.  0.
        254    2    1    2    0    0 -0.45224332447E+03 -0.66334580503E+03 -0.37873621939E+03  0.12723870132E+04  0.91157879847E+03 0.  0.
        -24    2    4    4    0    0  0.20654447416E+03 -0.47758721417E+02  0.99890039504E+02  0.24817730969E+03  0.81685015610E+02 0.  0.
         24    2    4    4    0    0 -0.65878779863E+03 -0.61558708361E+03 -0.47862625889E+03  0.10242097035E+04  0.83508082605E+02 0.  0.
         13    1    3    3    0    0  0.85445973215E+02  0.11140484580E+03 -0.20865533453E+03  0.25149374274E+03  0.00000000000E+00 0. -1.
        -13    1    3    3    0    0  0.36679735126E+03  0.55194095923E+03 -0.13498510437E+04  0.15037542883E+04  0.00000000000E+00 0.  1.
          2    1    6    6  502    0 -0.24706019667E+02 -0.15356965346E+02 -0.32843704915E+02  0.43874055488E+02  0.00000000000E+00 0. -1.
          1    1    5    5  503    0  0.12994898584E+02  0.18492507682E+02  0.92131709411E+01  0.24407432237E+02  0.00000000000E+00 0. -1.
         -2    1    5    5    0  503  0.19354957558E+03 -0.66251229100E+02  0.90676868563E+02  0.22376987745E+03  0.00000000000E+00 0.  1.
         -1    1    6    6    0  502 -0.63408177897E+03 -0.60023011827E+03 -0.44578255398E+03  0.98033564799E+03  0.00000000000E+00 0.  1.
<mgrwt>
<rscale>  0 0.23267284E+04</rscale>
<asrwt>0</asrwt>
<pdfrwt beam="1">  1        2 0.38191366E+00 0.23267284E+04</pdfrwt>
<pdfrwt beam="2">  1       -2 0.83876343E-01 0.23267284E+04</pdfrwt>
<totfact> 0.40036142E+00</totfact>
</mgrwt>
</event>
<event>
12    1  0.1472088E-007  0.1653400E+04  0.7818608E-02  0.8788398E-01
         -1   -1    0    0    0  501 -0.00000000000E+00  0.00000000000E+00  0.55680631317E+03  0.55680631317E+03  0.00000000000E+00 0.  1.
          1   -1    0    0  501    0  0.00000000000E+00 -0.00000000000E+00 -0.12274155866E+04  0.12274155866E+04  0.00000000000E+00 0. -1.
         23    2    1    2    0    0 -0.39744273848E+03  0.34535373475E+03 -0.44790708472E+03  0.69716499247E+03  0.90489434216E+02 0.  0.
        254    2    1    2    0    0  0.39744273848E+03 -0.34535373475E+03 -0.22270218870E+03  0.10870569073E+04  0.92458992119E+03 0.  0.
        -24    2    4    4    0    0  0.30713263237E+03 -0.61271715506E+03 -0.34205929700E+03  0.77012226166E+03  0.79567388213E+02 0.  0.
         24    2    4    4    0    0  0.90310106108E+02  0.26736342030E+03  0.11935710831E+03  0.31693464563E+03  0.81008249686E+02 0.  0.
         11    1    3    3    0    0 -0.66908643782E+02  0.32666314048E+02 -0.98539483030E+02  0.12350661684E+03  0.00000000000E+00 0.  1.
        -11    1    3    3    0    0 -0.33053409470E+03  0.31268742071E+03 -0.34936760168E+03  0.57365837563E+03  0.00000000000E+00 0. -1.
          4    1    6    6  502    0  0.98365764517E+02  0.17561018075E+03  0.87441581254E+02  0.21945566601E+03  0.00000000000E+00 0. -1.
          1    1    5    5  503    0  0.25693735337E+03 -0.52071521982E+03 -0.32009958485E+03  0.66304214642E+03  0.00000000000E+00 0. -1.
         -2    1    5    5    0  503  0.50195279008E+02 -0.92001935238E+02 -0.21959712153E+02  0.10708011524E+03  0.00000000000E+00 0.  1.
         -3    1    6    6    0  502 -0.80556584090E+01  0.91753239554E+02  0.31915527052E+02  0.97478979622E+02  0.00000000000E+00 0.  1.
<mgrwt>
<rscale>  0 0.16533998E+04</rscale>
<asrwt>0</asrwt>
<pdfrwt beam="1">  1        1 0.18883316E+00 0.16533998E+04</pdfrwt>
<pdfrwt beam="2">  1       -1 0.85662511E-01 0.16533998E+04</pdfrwt>
<totfact> 0.13124392E+01</totfact>
</mgrwt>
</event>
<event>
12    1  0.1472088E-007  0.1285053E+04  0.7818608E-02  0.9041503E-01
         -1   -1    0    0    0  501 -0.00000000000E+00  0.00000000000E+00  0.24137601638E+03  0.24137601638E+03  0.00000000000E+00 0.  1.
          1   -1    0    0  501    0  0.00000000000E+00 -0.00000000000E+00 -0.17103618215E+04  0.17103618215E+04  0.00000000000E+00 0. -1.
         23    2    1    2    0    0  0.27590631000E+03 -0.12666272261E+03 -0.24715892305E+03  0.40458555871E+03  0.10214795091E+03 0.  0.
        254    2    1    2    0    0 -0.27590631000E+03  0.12666272261E+03 -0.12218268820E+04  0.15471522792E+04  0.89925052571E+03 0.  0.
        -24    2    4    4    0    0 -0.25480434711E+03  0.49636991876E+03 -0.64247297000E+03  0.85488686395E+03  0.82168615799E+02 0.  0.
         24    2    4    4    0    0 -0.21101962893E+02 -0.36970719616E+03 -0.57935391205E+03  0.69226541520E+03  0.80322761056E+02 0.  0.
         13    1    3    3    0    0  0.27590777949E+03 -0.10224878710E+03 -0.21607036309E+03  0.36505659705E+03  0.00000000000E+00 0.  1.
        -13    1    3    3    0    0 -0.14694857228E-02 -0.24413935509E+02 -0.31088559965E+02  0.39528961660E+02  0.00000000000E+00 0. -1.
          2    1    6    6  502    0  0.24085020299E+02 -0.24580657038E+03 -0.38317205502E+03  0.45587474376E+03  0.00000000000E+00 0. -1.
          1    1    5    5  503    0 -0.21984919946E+03  0.46663976808E+03 -0.56679338194E+03  0.76638181180E+03  0.00000000000E+00 0. -1.
         -2    1    5    5    0  503 -0.34955147650E+02  0.29730150685E+02 -0.75679588059E+02  0.88505052149E+02  0.00000000000E+00 0.  1.
         -1    1    6    6    0  502 -0.45186983192E+02 -0.12390062578E+03 -0.19618185703E+03  0.23639067144E+03  0.00000000000E+00 0.  1.
<mgrwt>
<rscale>  0 0.12850530E+04</rscale>
<asrwt>0</asrwt>
<pdfrwt beam="1">  1        1 0.26313260E+00 0.12850530E+04</pdfrwt>
<pdfrwt beam="2">  1       -1 0.37134771E-01 0.12850530E+04</pdfrwt>
<totfact> 0.32173313E+01</totfact>
</mgrwt>
</event>
<event>
12    1  0.1472088E-007  0.2639245E+04  0.7818608E-02  0.8354991E-01
         -2   -1    0    0    0  501 -0.00000000000E+00  0.00000000000E+00  0.99937753591E+03  0.99937753591E+03  0.00000000000E+00 0.  1.
          2   -1    0    0  501    0  0.00000000000E+00 -0.00000000000E+00 -0.17424882945E+04  0.17424882945E+04  0.00000000000E+00 0. -1.
         23    2    1    2    0    0  0.71554779932E+03  0.44287205811E+03  0.50691417893E+03  0.98652369300E+03  0.90126017814E+02 0.  0.
        254    2    1    2    0    0 -0.71554779932E+03 -0.44287205811E+03 -0.12500249376E+04  0.17553421374E+04  0.90028848820E+03 0.  0.
        -24    2    4    4    0    0 -0.29196800754E+03  0.26001698119E+03 -0.31005911605E+03  0.50496965151E+03  0.77482550076E+02 0.  0.
         24    2    4    4    0    0 -0.42357979178E+03 -0.70288903930E+03 -0.93996582152E+03  0.12503724859E+04  0.80142163653E+02 0.  0.
         13    1    3    3    0    0  0.69586282128E+03  0.44488663591E+03  0.50042565960E+03  0.96569924182E+03  0.00000000000E+00 0.  1.
        -13    1    3    3    0    0  0.19684978041E+02 -0.20145778014E+01  0.64885193255E+01  0.20824451187E+02  0.00000000000E+00 0. -1.
          4    1    6    6  502    0 -0.36100978345E+03 -0.61835458127E+03 -0.85462148422E+03  0.11149297436E+04  0.00000000000E+00 0. -1.
          1    1    5    5  503    0 -0.18450192301E+03  0.18847115675E+03 -0.16653627072E+03  0.31192413499E+03  0.00000000000E+00 0. -1.
         -2    1    5    5    0  503 -0.10746608453E+03  0.71545824441E+02 -0.14352284532E+03  0.19304551652E+03  0.00000000000E+00 0.  1.
         -3    1    6    6    0  502 -0.62570008330E+02 -0.84534458031E+02 -0.85344337298E+02  0.13544274232E+03  0.00000000000E+00 0.  1.
<mgrwt>
<rscale>  0 0.26392451E+04</rscale>
<asrwt>0</asrwt>
<pdfrwt beam="1">  1        2 0.26807512E+00 0.26392451E+04</pdfrwt>
<pdfrwt beam="2">  1       -2 0.15375039E+00 0.26392451E+04</pdfrwt>
<totfact> 0.22976365E+00</totfact>
</mgrwt>
</event>
<event>
12    1  0.1472088E-007  0.1888855E+04  0.7818608E-02  0.8660424E-01
         -1   -1    0    0    0  501 -0.00000000000E+00  0.00000000000E+00  0.11855597423E+04  0.11855597423E+04  0.00000000000E+00 0.  1.
          1   -1    0    0  501    0  0.00000000000E+00 -0.00000000000E+00 -0.75233930078E+03  0.75233930078E+03  0.00000000000E+00 0. -1.
         23    2    1    2    0    0  0.66189862828E+03 -0.31444995675E+03  0.34576764902E+03  0.81573377331E+03  0.94221825490E+02 0.  0.
        254    2    1    2    0    0 -0.66189862828E+03  0.31444995675E+03  0.87452792505E+02  0.11221652698E+04  0.84535101132E+03 0.  0.
        -24    2    4    4    0    0  0.17072037966E+03  0.17927583157E+03 -0.42405927505E+02  0.26512581100E+03  0.84900890196E+02 0.  0.
         24    2    4    4    0    0 -0.83261900794E+03  0.13517412518E+03  0.12985872001E+03  0.85703945876E+03  0.78274454418E+02 0.  0.
         11    1    3    3    0    0  0.64191386208E+03 -0.28514176517E+03  0.31979997950E+03  0.77177150729E+03  0.00000000000E+00 0.  1.
        -11    1    3    3    0    0  0.19984766194E+02 -0.29308191575E+02  0.25967669520E+02  0.43962266019E+02  0.00000000000E+00 0. -1.
          4    1    6    6  502    0 -0.46080883775E+03  0.99946522018E+02  0.42149332040E+02  0.47340327249E+03  0.00000000000E+00 0. -1.
          1    1    5    5  503    0  0.15397592652E+03  0.17054755805E+03 -0.61922739650E+02  0.23796949634E+03  0.00000000000E+00 0. -1.
         -2    1    5    5    0  503  0.16744453139E+02  0.87282735227E+01  0.19516812145E+02  0.27156314660E+02  0.00000000000E+00 0.  1.
         -3    1    6    6    0  502 -0.37181017019E+03  0.35227603160E+02  0.87709387970E+02  0.38363618627E+03  0.00000000000E+00 0.  1.
<mgrwt>
<rscale>  0 0.18888549E+04</rscale>
<asrwt>0</asrwt>
<pdfrwt beam="1">  1        1 0.11574451E+00 0.18888549E+04</pdfrwt>
<pdfrwt beam="2">  1       -1 0.18239381E+00 0.18888549E+04</pdfrwt>
<totfact> 0.45658573E+00</totfact>
</mgrwt>
</event>
<event>
12    1  0.1472088E-007  0.1363876E+04  0.7818608E-02  0.8980390E-01
         -1   -1    0    0    0  501 -0.00000000000E+00  0.00000000000E+00  0.40071071817E+03  0.40071071817E+03  0.00000000000E+00 0.  1.
          1   -1    0    0  501    0  0.00000000000E+00 -0.00000000000E+00 -0.11605364930E+04  0.11605364930E+04  0.00000000000E+00 0. -1.
         23    2    1    2    0    0  0.14005304330E+03  0.23508796507E+03  0.76289385290E+02  0.29927102604E+03  0.94137508254E+02 0.  0.
        254    2    1    2    0    0 -0.14005304330E+03 -0.23508796507E+03 -0.83611516010E+03  0.12619761851E+04  0.90477296853E+03 0.  0.
        -24    2    4    4    0    0 -0.48007309883E+03 -0.10796546736E+03 -0.22507768585E+03  0.54672067288E+03  0.78210019283E+02 0.  0.
         24    2    4    4    0    0  0.34002005554E+03 -0.12712249771E+03 -0.61103747425E+03  0.71525551223E+03  0.80311177610E+02 0.  0.
         11    1    3    3    0    0  0.59950607350E+02  0.15453338887E+03  0.83190077118E+02  0.18545951722E+03  0.00000000000E+00 0.  1.
        -11    1    3    3    0    0  0.80102435946E+02  0.80554576203E+02 -0.69006918276E+01  0.11381150882E+03  0.00000000000E+00 0. -1.
          2    1    6    6  502    0  0.21626329538E+03 -0.48120675091E+02 -0.41369824916E+03  0.46928845464E+03  0.00000000000E+00 0. -1.
          1    1    5    5  503    0 -0.45778483825E+03 -0.89557054485E+02 -0.19678702492E+03  0.50627320422E+03  0.00000000000E+00 0. -1.
         -4    1    5    5    0  503 -0.22288260589E+02 -0.18408412872E+02 -0.28290660937E+02  0.40447468658E+02  0.00000000000E+00 0.  1.
         -1    1    6    6    0  502  0.12375676016E+03 -0.79001822620E+02 -0.19733922510E+03  0.24596705760E+03  0.00000000000E+00 0.  1.
<mgrwt>
<rscale>  0 0.13638760E+04</rscale>
<asrwt>0</asrwt>
<pdfrwt beam="1">  1        1 0.17854408E+00 0.13638760E+04</pdfrwt>
<pdfrwt beam="2">  1       -1 0.61647803E-01 0.13638760E+04</pdfrwt>
<totfact> 0.29813247E+01</totfact>
</mgrwt>
</event>
<event>
12    1  0.1472088E-007  0.1133452E+04  0.7818608E-02  0.9173187E-01
          2   -1    0    0  501    0  0.00000000000E+00  0.00000000000E+00  0.28533755576E+03  0.28533755576E+03  0.00000000000E+00 0. -1.
         -2   -1    0    0    0  501 -0.00000000000E+00 -0.00000000000E+00 -0.11256079725E+04  0.11256079725E+04  0.00000000000E+00 0.  1.
         23    2    1    2    0    0 -0.35643357475E+02 -0.24423926155E+02  0.75650911461E+02  0.12800824170E+03  0.93787378878E+02 0.  0.
        254    2    1    2    0    0  0.35643357475E+02  0.24423926155E+02 -0.91592132821E+03  0.12829372866E+04  0.89730107808E+03 0.  0.
        -24    2    4    4    0    0  0.12838750392E+03 -0.14083334544E+03  0.11163289354E+03  0.23499878273E+03  0.80281645563E+02 0.  0.
         24    2    4    4    0    0 -0.92744146444E+02  0.16525727160E+03 -0.10275542217E+04  0.10479385038E+04  0.79974912842E+02 0.  0.
         11    1    3    3    0    0 -0.27840272113E+02 -0.58442302140E+02  0.32275706545E+02  0.72334671242E+02  0.00000000000E+00 0.  1.
        -11    1    3    3    0    0 -0.78030853624E+01  0.34018375984E+02  0.43375204916E+02  0.55673570456E+02  0.00000000000E+00 0. -1.
          2    1    6    6  502    0 -0.96376947218E+02  0.16027494097E+03 -0.85238264815E+03  0.87265843921E+03  0.00000000000E+00 0. -1.
          3    1    5    5  503    0  0.12222832441E+03 -0.91470978407E+02  0.10387347589E+03  0.18465211121E+03  0.00000000000E+00 0. -1.
         -4    1    5    5    0  503  0.61591795065E+01 -0.49362367035E+02  0.77594176526E+01  0.50346671527E+02  0.00000000000E+00 0.  1.
         -1    1    6    6    0  502  0.36328007741E+01  0.49823306282E+01 -0.17517157360E+03  0.17528006464E+03  0.00000000000E+00 0.  1.
<mgrwt>
<rscale>  0 0.11334518E+04</rscale>
<asrwt>0</asrwt>
<pdfrwt beam="1">  1        2 0.43898086E-01 0.11334518E+04</pdfrwt>
<pdfrwt beam="2">  1       -2 0.17317045E+00 0.11334518E+04</pdfrwt>
<totfact> 0.23259744E+01</totfact>
</mgrwt>
</event>
<event>
12    1  0.1524300E-007  0.1760115E+04  0.7818608E-02  0.8727802E-01
          1   -1    0    0  501    0  0.00000000000E+00  0.00000000000E+00  0.13495493879E+04  0.13495493879E+04  0.00000000000E+00 0. -1.
         -1   -1    0    0    0  501 -0.00000000000E+00 -0.00000000000E+00 -0.57389611492E+03  0.57389611492E+03  0.00000000000E+00 0.  1.
         23    2    1    2    0    0 -0.99322275854E+02  0.35243653271E+03 -0.28034528376E+03  0.47007074328E+03  0.91085682146E+02 0.  0.
        254    2    1    2    0    0  0.99322275854E+02 -0.35243653271E+03  0.10559985568E+04  0.14533747596E+04  0.92902573470E+03 0.  0.
        -24    2    4    4    0    0 -0.38956639069E+03 -0.22904348421E+03  0.67635029842E+03  0.81732211276E+03  0.79641819539E+02 0.  0.
         24    2    4    4    0    0  0.48888866655E+03 -0.12339304851E+03  0.37964825836E+03  0.63605264680E+03  0.78690512316E+02 0.  0.
         11    1    3    3    0    0 -0.93234356507E+02  0.34208881338E+03 -0.24045018096E+03  0.42840832274E+03  0.00000000000E+00 0.  1.
        -11    1    3    3    0    0 -0.60879193470E+01  0.10347719333E+02 -0.39895102809E+02  0.41662420543E+02  0.00000000000E+00 0. -1.
          4    1    6    6  502    0 -0.23368724326E+01  0.94439371282E+00  0.58815550068E+01  0.63988703339E+01  0.00000000000E+00 0. -1.
          1    1    5    5  503    0 -0.36809274415E+00 -0.74230650021E+01  0.18366347262E+01  0.76557568804E+01  0.00000000000E+00 0. -1.
         -2    1    5    5    0  503 -0.38919829795E+03 -0.22162041920E+03  0.67451366369E+03  0.80966635588E+03  0.00000000000E+00 0.  1.
         -3    1    6    6    0  502  0.49122553898E+03 -0.12433744222E+03  0.37376670335E+03  0.62965377647E+03  0.00000000000E+00 0.  1.
<mgrwt>
<rscale>  0 0.17601149E+04</rscale>
<asrwt>0</asrwt>
<pdfrwt beam="1">  1        1 0.20762298E+00 0.17601149E+04</pdfrwt>
<pdfrwt beam="2">  1       -1 0.88291711E-01 0.17601149E+04</pdfrwt>
<totfact> 0.99495576E+00</totfact>
</mgrwt>
</event>
<event>
12    1  0.1472088E-007  0.9906731E+03  0.7818608E-02  0.9318834E-01
          1   -1    0    0  501    0  0.00000000000E+00  0.00000000000E+00  0.14920606762E+04  0.14920606762E+04  0.00000000000E+00 0. -1.
         -1   -1    0    0    0  501 -0.00000000000E+00 -0.00000000000E+00 -0.16444256850E+03  0.16444256850E+03  0.00000000000E+00 0.  1.
         23    2    1    2    0    0 -0.14035291816E+02 -0.41360756644E+02  0.71686061459E+02  0.12277319217E+03  0.89591649725E+02 0.  0.
        254    2    1    2    0    0  0.14035291816E+02  0.41360756644E+02  0.12559320462E+04  0.15337300525E+04  0.87923538809E+03 0.  0.
        -24    2    4    4    0    0 -0.59458054170E+02 -0.13027349764E+03  0.13127696154E+04  0.13230140883E+04  0.80596342590E+02 0.  0.
         24    2    4    4    0    0  0.73493345986E+02  0.17163425428E+03 -0.56837569172E+02  0.21071596419E+03  0.79442552493E+02 0.  0.
         11    1    3    3    0    0 -0.97006703376E+01 -0.28005976236E+02  0.92799396986E+02  0.97417481957E+02  0.00000000000E+00 0. -1.
        -11    1    3    3    0    0 -0.43346214784E+01 -0.13354780408E+02 -0.21113335527E+02  0.25355710208E+02  0.00000000000E+00 0.  1.
          4    1    6    6  502    0  0.35836335733E+02  0.12127813367E+03 -0.76118363635E+00  0.12646425608E+03  0.00000000000E+00 0. -1.
          3    1    5    5  503    0 -0.50512950108E+02 -0.10125921407E+03  0.12235140420E+04  0.12287357721E+04  0.00000000000E+00 0. -1.
         -4    1    5    5    0  503 -0.89451040619E+01 -0.29014283569E+02  0.89255573336E+02  0.94278316220E+02  0.00000000000E+00 0.  1.
         -1    1    6    6    0  502  0.37657010253E+02  0.50356120614E+02 -0.56076385536E+02  0.84251708109E+02  0.00000000000E+00 0.  1.
<mgrwt>
<rscale>  0 0.99067308E+03</rscale>
<asrwt>0</asrwt>
<pdfrwt beam="1">  1        1 0.22954779E+00 0.99067308E+03</pdfrwt>
<pdfrwt beam="2">  1       -1 0.25298858E-01 0.99067308E+03</pdfrwt>
<totfact> 0.91209692E+01</totfact>
</mgrwt>
</event>
<event>
12    1  0.1472088E-007  0.2233331E+04  0.7818608E-02  0.8504682E-01
         -1   -1    0    0    0  501 -0.00000000000E+00  0.00000000000E+00  0.84595852620E+03  0.84595852620E+03  0.00000000000E+00 0.  1.
          1   -1    0    0  501    0  0.00000000000E+00 -0.00000000000E+00 -0.14739990059E+04  0.14739990059E+04  0.00000000000E+00 0. -1.
         23    2    1    2    0    0  0.84029222745E+03  0.16391453056E+02  0.15406207253E+03  0.85892367357E+03  0.87493128795E+02 0.  0.
        254    2    1    2    0    0 -0.84029222745E+03 -0.16391453056E+02 -0.78210255221E+03  0.14610338585E+04  0.90364585227E+03 0.  0.
        -24    2    4    4    0    0 -0.19754730427E+03  0.40510738257E+03 -0.23628227568E+03  0.51498645016E+03  0.79024054639E+02 0.  0.
         24    2    4    4    0    0 -0.64274492318E+03 -0.42149883563E+03 -0.54582027653E+03  0.94604740836E+03  0.79395339156E+02 0.  0.
         13    1    3    3    0    0  0.39423724723E+03  0.18399380695E+02  0.11539993665E+03  0.41119179185E+03  0.00000000000E+00 0. -1.
        -13    1    3    3    0    0  0.44605498022E+03 -0.20079276382E+01  0.38662135878E+02  0.44773188171E+03  0.00000000000E+00 0.  1.
          4    1    6    6  502    0 -0.26395563721E+03 -0.20924583062E+03 -0.26949381223E+03  0.43137374847E+03  0.00000000000E+00 0. -1.
          1    1    5    5  503    0 -0.12647433375E+03  0.30932770533E+03 -0.20359729549E+03  0.39131987570E+03  0.00000000000E+00 0. -1.
         -2    1    5    5    0  503 -0.71072970514E+02  0.95779677244E+02 -0.32684980191E+02  0.12366657447E+03  0.00000000000E+00 0.  1.
         -3    1    6    6    0  502 -0.37878928597E+03 -0.21225300501E+03 -0.27632646430E+03  0.51467365988E+03  0.00000000000E+00 0.  1.
<mgrwt>
<rscale>  0 0.22333312E+04</rscale>
<asrwt>0</asrwt>
<pdfrwt beam="1">  1        1 0.22676908E+00 0.22333312E+04</pdfrwt>
<pdfrwt beam="2">  1       -1 0.13014747E+00 0.22333312E+04</pdfrwt>
<totfact> 0.31351575E+00</totfact>
</mgrwt>
</event>
<event>
12    1  0.1472088E-007  0.1781015E+04  0.7818608E-02  0.8716461E-01
         -2   -1    0    0    0  501 -0.00000000000E+00  0.00000000000E+00  0.28037469572E+03  0.28037469572E+03  0.00000000000E+00 0.  1.
          2   -1    0    0  501    0  0.00000000000E+00 -0.00000000000E+00 -0.28283697798E+04  0.28283697798E+04  0.00000000000E+00 0. -1.
         23    2    1    2    0    0 -0.58590393829E+03  0.13587893104E+03 -0.47334073648E+03  0.77036199513E+03  0.87519380264E+02 0.  0.
        254    2    1    2    0    0  0.58590393829E+03 -0.13587893104E+03 -0.20746543476E+04  0.23383824804E+04  0.89559781919E+03 0.  0.
        -24    2    4    4    0    0  0.11559966960E+03 -0.16534545934E+03 -0.17425850746E+04  0.17563797286E+04  0.86974733250E+02 0.  0.
         24    2    4    4    0    0  0.47030426869E+03  0.29466528302E+02 -0.33206927300E+03  0.58200275180E+03  0.80017620507E+02 0.  0.
         13    1    3    3    0    0 -0.55531564532E+03  0.12116154293E+03 -0.46744752965E+03  0.73590949063E+03  0.00000000000E+00 0.  1.
        -13    1    3    3    0    0 -0.30588292973E+02  0.14717388108E+02 -0.58932068335E+01  0.34452504502E+02  0.00000000000E+00 0. -1.
          2    1    6    6  502    0  0.22314471412E+03  0.43060491665E+01 -0.11017333600E+03  0.24889811060E+03  0.00000000000E+00 0. -1.
          1    1    5    5  503    0  0.48326539410E+02 -0.97054748175E+01 -0.46074014043E+03  0.46336932102E+03  0.00000000000E+00 0. -1.
         -2    1    5    5    0  503  0.67273130193E+02 -0.15563998452E+03 -0.12818449342E+04  0.12930104076E+04  0.00000000000E+00 0.  1.
         -1    1    6    6    0  502  0.24715955458E+03  0.25160479136E+02 -0.22189593700E+03  0.33310464119E+03  0.00000000000E+00 0.  1.
<mgrwt>
<rscale>  0 0.17810147E+04</rscale>
<asrwt>0</asrwt>
<pdfrwt beam="1">  1        2 0.43513382E+00 0.17810147E+04</pdfrwt>
<pdfrwt beam="2">  1       -2 0.43134568E-01 0.17810147E+04</pdfrwt>
<totfact> 0.10739656E+01</totfact>
</mgrwt>
</event>
<event>
12    1  0.1472088E-007  0.2456094E+04  0.7818608E-02  0.8418796E-01
          2   -1    0    0  501    0  0.00000000000E+00  0.00000000000E+00  0.99001017712E+03  0.99001017712E+03  0.00000000000E+00 0. -1.
         -2   -1    0    0    0  501 -0.00000000000E+00 -0.00000000000E+00 -0.15233166971E+04  0.15233166971E+04  0.00000000000E+00 0.  1.
         23    2    1    2    0    0 -0.77849495457E+03  0.70957819225E+03 -0.35876522259E+03  0.11166411062E+04  0.92840023289E+02 0.  0.
        254    2    1    2    0    0  0.77849495457E+03 -0.70957819225E+03 -0.17454129734E+03  0.13966857680E+04  0.90039483822E+03 0.  0.
        -24    2    4    4    0    0 -0.72828190748E+02 -0.34209783504E+03  0.17801948114E+03  0.40104511389E+03  0.82531046321E+02 0.  0.
         24    2    4    4    0    0  0.85132314532E+03 -0.36748035722E+03 -0.35256077848E+03  0.99564065406E+03  0.84901700775E+02 0.  0.
         11    1    3    3    0    0 -0.68645520490E+03  0.59076983883E+03 -0.32803384180E+03  0.96324241610E+03  0.00000000000E+00 0.  1.
        -11    1    3    3    0    0 -0.92039749674E+02  0.11880835343E+03 -0.30731380794E+02  0.15339869012E+03  0.00000000000E+00 0. -1.
          2    1    6    6  502    0  0.32631971072E+03 -0.11598178638E+03 -0.16825396264E+03  0.38502691376E+03  0.00000000000E+00 0. -1.
          1    1    5    5  503    0 -0.26062647405E+02 -0.25350109080E+03  0.15492940394E+03  0.29823679322E+03  0.00000000000E+00 0. -1.
         -2    1    5    5    0  503 -0.46765543343E+02 -0.88596744240E+02  0.23090077197E+02  0.10280832067E+03  0.00000000000E+00 0.  1.
         -1    1    6    6    0  502  0.52500343460E+03 -0.25149857084E+03 -0.18430681584E+03  0.61061374030E+03  0.00000000000E+00 0.  1.
<mgrwt>
<rscale>  0 0.24560937E+04</rscale>
<asrwt>0</asrwt>
<pdfrwt beam="1">  1        2 0.15230926E+00 0.24560937E+04</pdfrwt>
<pdfrwt beam="2">  1       -2 0.23435641E+00 0.24560937E+04</pdfrwt>
<totfact> 0.18373362E+00</totfact>
</mgrwt>
</event>
<event>
12    1  0.1472088E-007  0.1462760E+04  0.7818608E-02  0.8909602E-01
         -2   -1    0    0    0  501 -0.00000000000E+00  0.00000000000E+00  0.57551031274E+03  0.57551031274E+03  0.00000000000E+00 0.  1.
          2   -1    0    0  501    0  0.00000000000E+00 -0.00000000000E+00 -0.92946492796E+03  0.92946492796E+03  0.00000000000E+00 0. -1.
         23    2    1    2    0    0  0.36009180379E+03 -0.25191922059E+03 -0.20657527095E+03  0.49407335808E+03  0.91135831219E+02 0.  0.
        254    2    1    2    0    0 -0.36009180379E+03  0.25191922059E+03 -0.14737934427E+03  0.10109018826E+04  0.89837216358E+03 0.  0.
        -24    2    4    4    0    0  0.22384466164E+03 -0.15124885839E+03 -0.41653176905E+01  0.28225345186E+03  0.81651769782E+02 0.  0.
         24    2    4    4    0    0 -0.58393646543E+03  0.40316807899E+03 -0.14321402658E+03  0.72864843076E+03  0.83017965892E+02 0.  0.
         11    1    3    3    0    0  0.62382573729E+02 -0.29697175144E+02 -0.18551814817E+00  0.69090825249E+02  0.00000000000E+00 0. -1.
        -11    1    3    3    0    0  0.29770923006E+03 -0.22222204545E+03 -0.20638975280E+03  0.42498253283E+03  0.00000000000E+00 0.  1.
          4    1    6    6  502    0 -0.31002601816E+03  0.24008475874E+03 -0.42922390583E+02  0.39446058729E+03  0.00000000000E+00 0. -1.
          3    1    5    5  503    0  0.17008129180E+03 -0.13016003521E+03 -0.34640268482E+02  0.21695443942E+03  0.00000000000E+00 0. -1.
         -4    1    5    5    0  503  0.53763369840E+02 -0.21088823184E+02  0.30474950791E+02  0.65299012440E+02  0.00000000000E+00 0.  1.
         -3    1    6    6    0  502 -0.27391044727E+03  0.16308332025E+03 -0.10029163600E+03  0.33418784347E+03  0.00000000000E+00 0.  1.
<mgrwt>
<rscale>  0 0.14627599E+04</rscale>
<asrwt>0</asrwt>
<pdfrwt beam="1">  1        2 0.14299460E+00 0.14627599E+04</pdfrwt>
<pdfrwt beam="2">  1       -2 0.88540049E-01 0.14627599E+04</pdfrwt>
<totfact> 0.29794672E+01</totfact>
</mgrwt>
</event>
<event>
12    1  0.1472088E-007  0.1504153E+04  0.7818608E-02  0.8881696E-01
          1   -1    0    0  501    0  0.00000000000E+00  0.00000000000E+00  0.49645020107E+03  0.49645020107E+03  0.00000000000E+00 0. -1.
         -1   -1    0    0    0  501 -0.00000000000E+00 -0.00000000000E+00 -0.11393272472E+04  0.11393272472E+04  0.00000000000E+00 0.  1.
         23    2    1    2    0    0 -0.31395621185E+03 -0.31834616515E+03 -0.25839765498E+02  0.45554419488E+03  0.83306879571E+02 0.  0.
        254    2    1    2    0    0  0.31395621185E+03  0.31834616515E+03 -0.61703728065E+03  0.11802332534E+04  0.90127839368E+03 0.  0.
        -24    2    4    4    0    0  0.19120396355E+03 -0.15843286361E+03 -0.62918169938E+03  0.68131725879E+03  0.81631295114E+02 0.  0.
         24    2    4    4    0    0  0.12275224830E+03  0.47677902876E+03  0.12144418730E+02  0.49891599461E+03  0.79895719823E+02 0.  0.
         11    1    3    3    0    0 -0.21696681782E+03 -0.17328340029E+03  0.80290620726E+01  0.27778805354E+03  0.00000000000E+00 0. -1.
        -11    1    3    3    0    0 -0.96989394023E+02 -0.14506276487E+03 -0.33868827571E+02  0.17775614134E+03  0.00000000000E+00 0.  1.
          2    1    6    6  502    0  0.12864877695E+03  0.36887732028E+03  0.69717527198E+01  0.39072956193E+03  0.00000000000E+00 0. -1.
          3    1    5    5  503    0  0.95098582105E+02 -0.97721588132E+02 -0.43964544908E+03  0.46030573535E+03  0.00000000000E+00 0. -1.
         -4    1    5    5    0  503  0.96105381447E+02 -0.60711275476E+02 -0.18953625031E+03  0.22101152344E+03  0.00000000000E+00 0.  1.
         -1    1    6    6    0  502 -0.58965286574E+01  0.10790170848E+03  0.51726660099E+01  0.10818643269E+03  0.00000000000E+00 0.  1.
<mgrwt>
<rscale>  0 0.15041532E+04</rscale>
<asrwt>0</asrwt>
<pdfrwt beam="1">  1        1 0.76376954E-01 0.15041532E+04</pdfrwt>
<pdfrwt beam="2">  1       -1 0.17528111E+00 0.15041532E+04</pdfrwt>
<totfact> 0.97433625E+00</totfact>
</mgrwt>
</event>
<event>
12    1  0.1472088E-007  0.1781737E+04  0.7818608E-02  0.8716072E-01
          1   -1    0    0  501    0  0.00000000000E+00  0.00000000000E+00  0.18068282592E+04  0.18068282592E+04  0.00000000000E+00 0. -1.
         -1   -1    0    0    0  501 -0.00000000000E+00 -0.00000000000E+00 -0.43924860124E+03  0.43924860124E+03  0.00000000000E+00 0.  1.
         23    2    1    2    0    0 -0.43962601692E+03 -0.47573075773E+03  0.62440012540E+03  0.90449568552E+03  0.92984621903E+02 0.  0.
        254    2    1    2    0    0  0.43962601692E+03  0.47573075773E+03  0.74317953254E+03  0.13415811749E+04  0.90990848038E+03 0.  0.
        -24    2    4    4    0    0  0.40791987472E+03  0.22643313565E+03  0.91292184576E+03  0.10282314684E+04  0.78505203332E+02 0.  0.
         24    2    4    4    0    0  0.31706142202E+02  0.24929762208E+03 -0.16974231322E+03  0.31334970654E+03  0.78873327962E+02 0.  0.
         13    1    3    3    0    0 -0.46700102708E+02 -0.55683862835E+02  0.11573495727E+03  0.13666079360E+03  0.00000000000E+00 0. -1.
        -13    1    3    3    0    0 -0.39292591421E+03 -0.42004689490E+03  0.50866516813E+03  0.76783489191E+03  0.00000000000E+00 0.  1.
          2    1    6    6  502    0  0.27172790061E+01  0.22487371441E+03 -0.13756569549E+03  0.26362832097E+03  0.00000000000E+00 0. -1.
          3    1    5    5  503    0  0.38724927612E+03  0.23001705072E+03  0.85088739294E+03  0.96274565745E+03  0.00000000000E+00 0. -1.
         -4    1    5    5    0  503  0.20670598602E+02 -0.35839150726E+01  0.62034452824E+02  0.65485810913E+02  0.00000000000E+00 0.  1.
         -1    1    6    6    0  502  0.28988863196E+02  0.24423907670E+02 -0.32176617730E+02  0.49721385578E+02  0.00000000000E+00 0.  1.
<mgrwt>
<rscale>  0 0.17817371E+04</rscale>
<asrwt>0</asrwt>
<pdfrwt beam="1">  1        1 0.27797357E+00 0.17817371E+04</pdfrwt>
<pdfrwt beam="2">  1       -1 0.67576709E-01 0.17817371E+04</pdfrwt>
<totfact> 0.84474591E+00</totfact>
</mgrwt>
</event>
<event>
12    1  0.1472088E-007  0.2140526E+04  0.7818608E-02  0.8543598E-01
         -1   -1    0    0    0  501 -0.00000000000E+00  0.00000000000E+00  0.57668865968E+03  0.57668865968E+03  0.00000000000E+00 0.  1.
          1   -1    0    0  501    0  0.00000000000E+00 -0.00000000000E+00 -0.19862767549E+04  0.19862767549E+04  0.00000000000E+00 0. -1.
         23    2    1    2    0    0 -0.46657331041E+03  0.15609997841E+03 -0.14604250955E+04  0.15437646946E+04  0.91159835490E+02 0.  0.
        254    2    1    2    0    0  0.46657331041E+03 -0.15609997841E+03  0.50837000236E+02  0.10192007200E+04  0.89113851324E+03 0.  0.
        -24    2    4    4    0    0  0.46530243058E+03 -0.33029273996E+02  0.41345054931E+03  0.62815263316E+03  0.77698706387E+02 0.  0.
         24    2    4    4    0    0  0.12708798307E+01 -0.12307070441E+03 -0.36261354907E+03  0.39104808683E+03  0.79259111921E+02 0.  0.
         13    1    3    3    0    0 -0.30778850001E+03  0.56931896901E+02 -0.93203840302E+03  0.98319407358E+03  0.00000000000E+00 0. -1.
        -13    1    3    3    0    0 -0.15878481040E+03  0.99168081511E+02 -0.52838669246E+03  0.56057062104E+03  0.00000000000E+00 0.  1.
          4    1    6    6  502    0  0.14508418027E+02 -0.32879735798E+02 -0.32075939807E+02  0.48170915855E+02  0.00000000000E+00 0. -1.
          3    1    5    5  503    0  0.11150506088E+03 -0.33982911891E+02  0.75494546122E+02  0.13887996038E+03  0.00000000000E+00 0. -1.
         -4    1    5    5    0  503  0.35379736971E+03  0.95363789498E+00  0.33795600318E+03  0.48927267277E+03  0.00000000000E+00 0.  1.
         -3    1    6    6    0  502 -0.13237538197E+02 -0.90190968617E+02 -0.33053760926E+03  0.34287717097E+03  0.00000000000E+00 0.  1.
<mgrwt>
<rscale>  0 0.21405264E+04</rscale>
<asrwt>0</asrwt>
<pdfrwt beam="1">  1        1 0.30558104E+00 0.21405264E+04</pdfrwt>
<pdfrwt beam="2">  1       -1 0.88721333E-01 0.21405264E+04</pdfrwt>
<totfact> 0.34779915E+00</totfact>
</mgrwt>
</event>
<event>
12    1  0.1472088E-007  0.1079619E+04  0.7818608E-02  0.9225288E-01
          2   -1    0    0  501    0  0.00000000000E+00  0.00000000000E+00  0.17246688043E+04  0.17246688043E+04  0.00000000000E+00 0.  1.
         -2   -1    0    0    0  501 -0.00000000000E+00 -0.00000000000E+00 -0.16895653315E+03  0.16895653315E+03  0.00000000000E+00 0. -1.
         23    2    1    2    0    0 -0.41718703449E+02 -0.12066951239E+03  0.21808536471E+03  0.27547565882E+03  0.10965414204E+03 0.  0.
        254    2    1    2    0    0  0.41718703449E+02  0.12066951239E+03  0.13376269065E+04  0.16181496786E+04  0.90158807677E+03 0.  0.
        -24    2    4    4    0    0  0.11376862410E+03  0.69427836066E+02 -0.93757421254E+02  0.18180346643E+03  0.80613411504E+02 0.  0.
         24    2    4    4    0    0 -0.72049920650E+02  0.51241676326E+02  0.14313843277E+04  0.14363462122E+04  0.80077757639E+02 0.  0.
         11    1    3    3    0    0  0.18689024192E+02 -0.87613973424E+02  0.75592817299E+02  0.11721673085E+03  0.00000000000E+00 0. -1.
        -11    1    3    3    0    0 -0.60407727641E+02 -0.33055538968E+02  0.14249254741E+03  0.15825892797E+03  0.00000000000E+00 0.  1.
          4    1    6    6  502    0 -0.34966001250E+02  0.65639030571E+02  0.71480930189E+03  0.71866782428E+03  0.00000000000E+00 0. -1.
          3    1    5    5  503    0  0.59651497777E+02 -0.90353755224E+01 -0.39759061865E+02  0.72254565242E+02  0.00000000000E+00 0. -1.
         -4    1    5    5    0  503  0.54117126322E+02  0.78463211589E+02 -0.53998359389E+02  0.10954890119E+03  0.00000000000E+00 0.  1.
         -3    1    6    6    0  502 -0.37083919399E+02 -0.14397354245E+02  0.71657502582E+03  0.71767838794E+03  0.00000000000E+00 0.  1.
<mgrwt>
<rscale>  0 0.10796186E+04</rscale>
<asrwt>0</asrwt>
<pdfrwt beam="1">  1        2 0.26533365E+00 0.10796186E+04</pdfrwt>
<pdfrwt beam="2">  1       -2 0.25993314E-01 0.10796186E+04</pdfrwt>
<totfact> 0.12624158E+02</totfact>
</mgrwt>
</event>
<event>
12    1  0.1472088E-007  0.1964321E+04  0.7818608E-02  0.8623486E-01
          2   -1    0    0  501    0  0.00000000000E+00  0.00000000000E+00  0.13046077476E+04  0.13046077476E+04  0.00000000000E+00 0. -1.
         -2   -1    0    0    0  501 -0.00000000000E+00 -0.00000000000E+00 -0.73940939528E+03  0.73940939528E+03  0.00000000000E+00 0.  1.
         23    2    1    2    0    0 -0.19801035813E+03  0.89637371048E+01 -0.55481703474E+03  0.59616562452E+03  0.91121124410E+02 0.  0.
        254    2    1    2    0    0  0.19801035813E+03 -0.89637371048E+01  0.11200153871E+04  0.14478515184E+04  0.89585216498E+03 0.  0.
        -24    2    4    4    0    0 -0.92968292837E+02 -0.39956636572E+03  0.59582475437E+03  0.72777459929E+03  0.79701601998E+02 0.  0.
         24    2    4    4    0    0  0.29097865096E+03  0.39060262862E+03  0.52419063273E+03  0.72007691912E+03  0.80597526040E+02 0.  0.
         13    1    3    3    0    0 -0.18109249022E+03 -0.15088217969E+02 -0.51858591885E+03  0.54950295683E+03  0.00000000000E+00 0.  1.
        -13    1    3    3    0    0 -0.16917867907E+02  0.24051955074E+02 -0.36231115894E+02  0.46662667694E+02  0.00000000000E+00 0. -1.
          4    1    6    6  502    0  0.22340776034E+03  0.28733505060E+03  0.43830651523E+03  0.56972366984E+03  0.00000000000E+00 0. -1.
          3    1    5    5  503    0 -0.80415829340E+02 -0.36021785463E+03  0.57000809373E+03  0.67906762205E+03  0.00000000000E+00 0. -1.
         -4    1    5    5    0  503 -0.12552463498E+02 -0.39348511092E+02  0.25816660643E+02  0.48706977239E+02  0.00000000000E+00 0.  1.
         -3    1    6    6    0  502  0.67570890624E+02  0.10326757802E+03  0.85884117501E+02  0.15035324928E+03  0.00000000000E+00 0.  1.
<mgrwt>
<rscale>  0 0.19643210E+04</rscale>
<asrwt>0</asrwt>
<pdfrwt beam="1">  1        2 0.20070889E+00 0.19643210E+04</pdfrwt>
<pdfrwt beam="2">  1       -2 0.11375529E+00 0.19643210E+04</pdfrwt>
<totfact> 0.92709615E+00</totfact>
</mgrwt>
</event>
<event>
12    1  0.1472088E-007  0.2188635E+04  0.7818608E-02  0.8523173E-01
         -2   -1    0    0    0  501 -0.00000000000E+00  0.00000000000E+00  0.10186572394E+04  0.10186572394E+04  0.00000000000E+00 0.  1.
          2   -1    0    0  501    0  0.00000000000E+00 -0.00000000000E+00 -0.11755976668E+04  0.11755976668E+04  0.00000000000E+00 0. -1.
         23    2    1    2    0    0  0.58824424023E+03  0.51909506471E+02  0.62400369467E+03  0.86434631996E+03  0.94805415691E+02 0.  0.
        254    2    1    2    0    0 -0.58824424023E+03 -0.51909506471E+02 -0.78094412210E+03  0.13299085862E+04  0.90003180097E+03 0.  0.
        -24    2    4    4    0    0 -0.33103402341E+02  0.85899902448E+02  0.17506714718E+03  0.21291474184E+03  0.78800715628E+02 0.  0.
         24    2    4    4    0    0 -0.55514083789E+03 -0.13780940892E+03 -0.95601126928E+03  0.11169938444E+04  0.80900669058E+02 0.  0.
         13    1    3    3    0    0  0.17220832568E+03  0.11045407951E+01  0.12566406233E+03  0.21318626599E+03  0.00000000000E+00 0. -1.
        -13    1    3    3    0    0  0.41603591455E+03  0.50804965676E+02  0.49833963234E+03  0.65116005398E+03  0.00000000000E+00 0.  1.
          2    1    6    6  502    0 -0.28633758313E+03 -0.11230108196E+03 -0.49871927684E+03  0.58593656792E+03  0.00000000000E+00 0. -1.
          1    1    5    5  503    0 -0.28760358219E+02  0.77490253671E+02  0.72602062398E+02  0.11001344047E+03  0.00000000000E+00 0. -1.
         -2    1    5    5    0  503 -0.43430441221E+01  0.84096487768E+01  0.10246508478E+03  0.10290130137E+03  0.00000000000E+00 0.  1.
         -1    1    6    6    0  502 -0.26880325476E+03 -0.25508326955E+02 -0.45729199244E+03  0.53105727644E+03  0.00000000000E+00 0.  1.
<mgrwt>
<rscale>  0 0.21886353E+04</rscale>
<asrwt>0</asrwt>
<pdfrwt beam="1">  1        2 0.18086118E+00 0.21886353E+04</pdfrwt>
<pdfrwt beam="2">  1       -2 0.15671650E+00 0.21886353E+04</pdfrwt>
<totfact> 0.47765747E+00</totfact>
</mgrwt>
</event>
<event>
12    1  0.1472088E-007  0.1474804E+04  0.7818608E-02  0.8901383E-01
          2   -1    0    0  501    0  0.00000000000E+00  0.00000000000E+00  0.43091502677E+03  0.43091502677E+03  0.00000000000E+00 0. -1.
         -2   -1    0    0    0  501 -0.00000000000E+00 -0.00000000000E+00 -0.12618766317E+04  0.12618766317E+04  0.00000000000E+00 0.  1.
         23    2    1    2    0    0  0.11656762552E+03  0.17298642826E+03  0.22539539729E+03  0.32038590669E+03  0.91278301962E+02 0.  0.
        254    2    1    2    0    0 -0.11656762552E+03 -0.17298642826E+03 -0.10563570022E+04  0.13724057517E+04  0.85093778601E+03 0.  0.
        -24    2    4    4    0    0  0.98475136963E+02  0.37261989577E+02 -0.10533358979E+04  0.10616668999E+04  0.80834919102E+02 0.  0.
         24    2    4    4    0    0 -0.21504276248E+03 -0.21024841783E+03 -0.30211043230E+01  0.31073885184E+03  0.78113507633E+02 0.  0.
         13    1    3    3    0    0  0.91311275640E+02  0.15629602405E+03  0.13718490331E+03  0.22712528237E+03  0.00000000000E+00 0. -1.
        -13    1    3    3    0    0  0.25256349880E+02  0.16690404201E+02  0.88210493980E+02  0.93260624327E+02  0.00000000000E+00 0.  1.
          2    1    6    6  502    0 -0.34303286978E+02 -0.50284632700E+02 -0.30022704478E+02  0.67872104487E+02  0.00000000000E+00 0. -1.
          3    1    5    5  503    0  0.51452219910E+02  0.94240140189E+01 -0.20484308912E+03  0.21141625797E+03  0.00000000000E+00 0. -1.
         -4    1    5    5    0  503  0.47022917053E+02  0.27837975558E+02 -0.84849280873E+03  0.85025064191E+03  0.00000000000E+00 0.  1.
         -1    1    6    6    0  502 -0.18073947550E+03 -0.15996378513E+03  0.27001600155E+02  0.24286674735E+03  0.00000000000E+00 0.  1.
<mgrwt>
<rscale>  0 0.14748039E+04</rscale>
<asrwt>0</asrwt>
<pdfrwt beam="1">  1        2 0.66294619E-01 0.14748039E+04</pdfrwt>
<pdfrwt beam="2">  1       -2 0.19413487E+00 0.14748039E+04</pdfrwt>
<totfact> 0.10276953E+01</totfact>
</mgrwt>
</event>
<event>
12    1  0.1472088E-007  0.3249237E+04  0.7818608E-02  0.8175933E-01
          1   -1    0    0  501    0  0.00000000000E+00  0.00000000000E+00  0.11030415062E+04  0.11030415062E+04  0.00000000000E+00 0. -1.
         -1   -1    0    0    0  501 -0.00000000000E+00 -0.00000000000E+00 -0.23928254043E+04  0.23928254043E+04  0.00000000000E+00 0.  1.
         23    2    1    2    0    0  0.11167046628E+04  0.50223991979E+03 -0.15230916418E+04  0.19564441550E+04  0.92689488511E+02 0.  0.
        254    2    1    2    0    0 -0.11167046628E+04 -0.50223991979E+03  0.23330774369E+03  0.15394227555E+04  0.90339120865E+03 0.  0.
        -24    2    4    4    0    0 -0.76078244274E+03 -0.63911772899E+03  0.44983091031E+03  0.10934767730E+04  0.77988514641E+02 0.  0.
         24    2    4    4    0    0 -0.35592222005E+03  0.13687780920E+03 -0.21652316662E+03  0.44594598253E+03  0.81051688864E+02 0.  0.
         11    1    3    3    0    0  0.11123075123E+04  0.49948400655E+03 -0.15233692411E+04  0.19512473241E+04  0.00000000000E+00 0.  1.
        -11    1    3    3    0    0  0.43971504569E+01  0.27559132411E+01  0.27759936759E+00  0.51968308941E+01  0.00000000000E+00 0. -1.
          4    1    6    6  502    0 -0.27138485530E+02  0.36517014835E+02 -0.33497192707E+02  0.56498245004E+02  0.00000000000E+00 0. -1.
          1    1    5    5  503    0 -0.13422150084E+02 -0.24103791296E+02  0.40903674526E+01  0.27890463847E+02  0.00000000000E+00 0. -1.
         -2    1    5    5    0  503 -0.74736029266E+03 -0.61501393770E+03  0.44574054286E+03  0.10655863091E+04  0.00000000000E+00 0.  1.
         -3    1    6    6    0  502 -0.32878373453E+03  0.10036079436E+03 -0.18302597392E+03  0.38944773752E+03  0.00000000000E+00 0.  1.
<mgrwt>
<rscale>  0 0.32492373E+04</rscale>
<asrwt>0</asrwt>
<pdfrwt beam="1">  1        1 0.16969869E+00 0.32492373E+04</pdfrwt>
<pdfrwt beam="2">  1       -1 0.36812698E+00 0.32492373E+04</pdfrwt>
<totfact> 0.12351910E-01</totfact>
</mgrwt>
</event>
<event>
12    1  0.1472088E-007  0.2078951E+04  0.7818608E-02  0.8570573E-01
         -2   -1    0    0    0  501 -0.00000000000E+00  0.00000000000E+00  0.76666608310E+03  0.76666608310E+03  0.00000000000E+00 0. -1.
          2   -1    0    0  501    0  0.00000000000E+00 -0.00000000000E+00 -0.14093604397E+04  0.14093604397E+04  0.00000000000E+00 0.  1.
         23    2    1    2    0    0 -0.79787528048E+03 -0.33665838663E+02  0.22539493406E+02  0.80431912209E+03  0.93181916197E+02 0.  0.
        254    2    1    2    0    0  0.79787528048E+03  0.33665838663E+02 -0.66523384998E+03  0.13717074007E+04  0.89515739734E+03 0.  0.
        -24    2    4    4    0    0 -0.29228168353E+02  0.73696693929E+02  0.16132540868E+03  0.19884220279E+03  0.85010855787E+02 0.  0.
         24    2    4    4    0    0  0.82710344884E+03 -0.40030855266E+02 -0.82655925866E+03  0.11728651979E+04  0.81914466852E+02 0.  0.
         11    1    3    3    0    0 -0.13474640241E+03 -0.33226379952E+01  0.38921138756E+02  0.14029429044E+03  0.00000000000E+00 0. -1.
        -11    1    3    3    0    0 -0.66312887807E+03 -0.30343200668E+02 -0.16381645351E+02  0.66402483166E+03  0.00000000000E+00 0.  1.
          2    1    6    6  502    0  0.73127220013E+03 -0.59248457733E+02 -0.74442719081E+03  0.10451991451E+04  0.00000000000E+00 0. -1.
          1    1    5    5  503    0  0.20073844334E+02  0.62443363816E+02  0.94778807775E+02  0.11526124810E+03  0.00000000000E+00 0. -1.
         -2    1    5    5    0  503 -0.49302012687E+02  0.11253330113E+02  0.66546600908E+02  0.83580954685E+02  0.00000000000E+00 0.  1.
         -1    1    6    6    0  502  0.95831248701E+02  0.19217602467E+02 -0.82132067855E+02  0.12766605282E+03  0.00000000000E+00 0.  1.
<mgrwt>
<rscale>  0 0.20789506E+04</rscale>
<asrwt>0</asrwt>
<pdfrwt beam="1">  1        2 0.21682468E+00 0.20789506E+04</pdfrwt>
<pdfrwt beam="2">  1       -2 0.11794863E+00 0.20789506E+04</pdfrwt>
<totfact> 0.73134390E+00</totfact>
</mgrwt>
</event>
<event>
12    1  0.1472088E-007  0.1192464E+04  0.7818608E-02  0.9119478E-01
         -1   -1    0    0    0  501 -0.00000000000E+00  0.00000000000E+00  0.11543409824E+04  0.11543409824E+04  0.00000000000E+00 0.  1.
          1   -1    0    0  501    0  0.00000000000E+00 -0.00000000000E+00 -0.30796153643E+03  0.30796153643E+03  0.00000000000E+00 0. -1.
         23    2    1    2    0    0 -0.18144498213E+02  0.21254352380E+03  0.32755795179E+03  0.40196489634E+03  0.93688813556E+02 0.  0.
        254    2    1    2    0    0  0.18144498213E+02 -0.21254352380E+03  0.51882149414E+03  0.10603376224E+04  0.89979784312E+03 0.  0.
        -24    2    4    4    0    0  0.17123218766E+03 -0.39568926566E+03 -0.46992843764E+02  0.44107535433E+03  0.80303697143E+02 0.  0.
         24    2    4    4    0    0 -0.15308768945E+03  0.18314574186E+03  0.56581433790E+03  0.61926226812E+03  0.79760192609E+02 0.  0.
         13    1    3    3    0    0 -0.11723698889E+02  0.20366389216E+03  0.33238167272E+03  0.38999231075E+03  0.00000000000E+00 0.  1.
        -13    1    3    3    0    0 -0.64207993239E+01  0.88796316450E+01 -0.48237209318E+01  0.11972585591E+02  0.00000000000E+00 0. -1.
          4    1    6    6  502    0 -0.67420566026E+02  0.89027712202E+02  0.36331115604E+03  0.38008744042E+03  0.00000000000E+00 0. -1.
          1    1    5    5  503    0  0.15144287416E+03 -0.38411857042E+03 -0.32984041289E+02  0.41421005210E+03  0.00000000000E+00 0. -1.
         -2    1    5    5    0  503  0.19789313497E+02 -0.11570695244E+02 -0.14008802475E+02  0.26865302230E+02  0.00000000000E+00 0.  1.
         -3    1    6    6    0  502 -0.85667123422E+02  0.94118029661E+02  0.20250318186E+03  0.23917482770E+03  0.00000000000E+00 0.  1.
<mgrwt>
<rscale>  0 0.11924640E+04</rscale>
<asrwt>0</asrwt>
<pdfrwt beam="1">  1        1 0.47378698E-01 0.11924640E+04</pdfrwt>
<pdfrwt beam="2">  1       -1 0.17759092E+00 0.11924640E+04</pdfrwt>
<totfact> 0.18172899E+01</totfact>
</mgrwt>
</event>
<event>
12    1  0.1472088E-007  0.1096996E+04  0.7818608E-02  0.9208124E-01
         -2   -1    0    0    0  501 -0.00000000000E+00  0.00000000000E+00  0.26904283346E+03  0.26904283346E+03  0.00000000000E+00 0.  1.
          2   -1    0    0  501    0  0.00000000000E+00 -0.00000000000E+00 -0.11182244346E+04  0.11182244346E+04  0.00000000000E+00 0. -1.
         23    2    1    2    0    0 -0.21190625035E+02 -0.14164686180E+03 -0.62140698604E+02  0.18071705821E+03  0.91018199601E+02 0.  0.
        254    2    1    2    0    0  0.21190625035E+02  0.14164686180E+03 -0.78704090256E+03  0.12065502099E+04  0.90322596873E+03 0.  0.
        -24    2    4    4    0    0 -0.39260869726E+03  0.22063546813E+03 -0.55584697742E+03  0.71958536844E+03  0.77560564747E+02 0.  0.
         24    2    4    4    0    0  0.41379932230E+03 -0.78988606328E+02 -0.23119392514E+03  0.48696484143E+03  0.78835567501E+02 0.  0.
         11    1    3    3    0    0  0.27856945317E+02 -0.50924388756E+02 -0.50484282843E+02  0.76928314597E+02  0.00000000000E+00 0. -1.
        -11    1    3    3    0    0 -0.49047570352E+02 -0.90722473047E+02 -0.11656415761E+02  0.10378874362E+03  0.00000000000E+00 0.  1.
          4    1    6    6  502    0  0.15134594015E+03 -0.22690807218E+02 -0.12756593091E+03  0.19923235947E+03  0.00000000000E+00 0. -1.
          1    1    5    5  503    0 -0.36382255657E+03  0.18577349067E+03 -0.52334621301E+03  0.66390503928E+03  0.00000000000E+00 0. -1.
         -2    1    5    5    0  503 -0.28786140689E+02  0.34861977466E+02 -0.32500764411E+02  0.55680329165E+02  0.00000000000E+00 0.  1.
         -3    1    6    6    0  502  0.26245338215E+03 -0.56297799110E+02 -0.10362799423E+03  0.28773248196E+03  0.00000000000E+00 0.  1.
<mgrwt>
<rscale>  0 0.10969964E+04</rscale>
<asrwt>0</asrwt>
<pdfrwt beam="1">  1        2 0.17203453E+00 0.10969964E+04</pdfrwt>
<pdfrwt beam="2">  1       -2 0.41391206E-01 0.10969964E+04</pdfrwt>
<totfact> 0.11649634E+02</totfact>
</mgrwt>
</event>
<event>
12    1  0.1472088E-007  0.1747763E+04  0.7818608E-02  0.8734583E-01
          2   -1    0    0  501    0  0.00000000000E+00  0.00000000000E+00  0.15134769490E+04  0.15134769490E+04  0.00000000000E+00 0. -1.
         -2   -1    0    0    0  501 -0.00000000000E+00 -0.00000000000E+00 -0.50457914651E+03  0.50457914651E+03  0.00000000000E+00 0.  1.
         23    2    1    2    0    0  0.53582665216E+03 -0.32868693065E+03  0.47303819521E+03  0.79176442482E+03  0.89333480546E+02 0.  0.
        254    2    1    2    0    0 -0.53582665216E+03  0.32868693065E+03  0.53585960726E+03  0.12262916707E+04  0.90636661640E+03 0.  0.
        -24    2    4    4    0    0 -0.56863882728E+03 -0.14617001382E+03  0.16132673229E+03  0.61454320560E+03  0.83194039289E+02 0.  0.
         24    2    4    4    0    0  0.32812175123E+02  0.47485694447E+03  0.37453287496E+03  0.61174846506E+03  0.85997404205E+02 0.  0.
         11    1    3    3    0    0  0.20709920610E+03 -0.17883447714E+03  0.20056267877E+03  0.33925984068E+03  0.00000000000E+00 0.  1.
        -11    1    3    3    0    0  0.32872744605E+03 -0.14985245351E+03  0.27247551643E+03  0.45250458414E+03  0.00000000000E+00 0. -1.
          4    1    6    6  502    0  0.56831589721E+02  0.41752076397E+03  0.32101275951E+03  0.52971936882E+03  0.00000000000E+00 0. -1.
          1    1    5    5  503    0 -0.40812572911E+03 -0.75470334626E+02  0.13916636322E+03  0.43775524991E+03  0.00000000000E+00 0. -1.
         -2    1    5    5    0  503 -0.16051309817E+03 -0.70699679192E+02  0.22160369071E+02  0.17678795569E+03  0.00000000000E+00 0.  1.
         -1    1    6    6    0  502 -0.24019414598E+02  0.57336180498E+02  0.53520115452E+02  0.82029096239E+02  0.00000000000E+00 0.  1.
<mgrwt>
<rscale>  0 0.17477630E+04</rscale>
<asrwt>0</asrwt>
<pdfrwt beam="1">  1        2 0.23284261E+00 0.17477630E+04</pdfrwt>
<pdfrwt beam="2">  1       -2 0.77627562E-01 0.17477630E+04</pdfrwt>
<totfact> 0.17486613E+01</totfact>
</mgrwt>
</event>
<event>
12    1  0.1472088E-007  0.1498723E+04  0.7818608E-02  0.8885303E-01
         -2   -1    0    0    0  501 -0.00000000000E+00  0.00000000000E+00  0.25683723526E+03  0.25683723526E+03  0.00000000000E+00 0.  1.
          2   -1    0    0  501    0  0.00000000000E+00 -0.00000000000E+00 -0.21863757567E+04  0.21863757567E+04  0.00000000000E+00 0. -1.
         23    2    1    2    0    0 -0.99325431917E+01  0.51805749870E+03 -0.75096842505E+03  0.91672995633E+03  0.89207679303E+02 0.  0.
        254    2    1    2    0    0  0.99325431917E+01 -0.51805749870E+03 -0.11785700964E+04  0.15264830356E+04  0.82014679085E+03 0.  0.
        -24    2    4    4    0    0 -0.26789110741E+03  0.80683507944E+02 -0.48411229086E+03  0.56490061007E+03  0.80451943471E+02 0.  0.
         24    2    4    4    0    0  0.27782365061E+03 -0.59874100664E+03 -0.69445780549E+03  0.96158242552E+03  0.81806745353E+02 0.  0.
         11    1    3    3    0    0  0.17005604154E+02  0.53140332719E+02 -0.12170582828E+03  0.13388575044E+03  0.00000000000E+00 0. -1.
        -11    1    3    3    0    0 -0.26938147346E+02  0.46491716598E+03 -0.62926259677E+03  0.78284420589E+03  0.00000000000E+00 0.  1.
          4    1    6    6  502    0  0.11510390423E+03 -0.17392219438E+03 -0.25018613737E+03  0.32571604474E+03  0.00000000000E+00 0. -1.
          1    1    5    5  503    0 -0.74413027040E+02  0.54092033688E+02 -0.11463993437E+03  0.14698830312E+03  0.00000000000E+00 0. -1.
         -2    1    5    5    0  503 -0.19347808037E+03  0.26591474256E+02 -0.36947235649E+03  0.41791230695E+03  0.00000000000E+00 0.  1.
         -3    1    6    6    0  502  0.16271974638E+03 -0.42481881226E+03 -0.44427166813E+03  0.63586638078E+03  0.00000000000E+00 0.  1.
<mgrwt>
<rscale>  0 0.14987231E+04</rscale>
<asrwt>0</asrwt>
<pdfrwt beam="1">  1        2 0.33636550E+00 0.14987231E+04</pdfrwt>
<pdfrwt beam="2">  1       -2 0.39513421E-01 0.14987231E+04</pdfrwt>
<totfact> 0.30796553E+01</totfact>
</mgrwt>
</event>
<event>
12    1  0.1472088E-007  0.1279302E+04  0.7818608E-02  0.9046142E-01
          2   -1    0    0  501    0  0.00000000000E+00  0.00000000000E+00  0.44820249389E+04  0.44820249389E+04  0.00000000000E+00 0. -1.
         -2   -1    0    0    0  501 -0.00000000000E+00 -0.00000000000E+00 -0.91287626999E+02  0.91287626999E+02  0.00000000000E+00 0.  1.
         23    2    1    2    0    0  0.98361630760E+02  0.11813524006E+03  0.19225717612E+04  0.19307020163E+04  0.87733423016E+02 0.  0.
        254    2    1    2    0    0 -0.98361630760E+02 -0.11813524006E+03  0.24681655508E+04  0.26426105496E+04  0.93162137467E+03 0.  0.
        -24    2    4    4    0    0 -0.94887718376E+02  0.32596454755E+03  0.42334304847E+03  0.54857643774E+03  0.80375406683E+02 0.  0.
         24    2    4    4    0    0 -0.34739123833E+01 -0.44409978761E+03  0.20448225023E+04  0.20940341119E+04  0.80268963377E+02 0.  0.
         13    1    3    3    0    0 -0.15020504850E+02  0.53418448557E+01  0.12105764816E+03  0.12210284620E+03  0.00000000000E+00 0.  1.
        -13    1    3    3    0    0  0.11338213561E+03  0.11279339520E+03  0.18015141130E+04  0.18085991701E+04  0.00000000000E+00 0. -1.
          2    1    6    6  502    0 -0.33425752423E+02 -0.35339970954E+03  0.15576958670E+04  0.15976310743E+04  0.00000000000E+00 0. -1.
          3    1    5    5  503    0 -0.73376558147E+02  0.29289362107E+03  0.40473532732E+03  0.50495690681E+03  0.00000000000E+00 0. -1.
         -4    1    5    5    0  503 -0.21511160230E+02  0.33070926478E+02  0.18607721146E+02  0.43619530933E+02  0.00000000000E+00 0.  1.
         -1    1    6    6    0  502  0.29951840040E+02 -0.90700078072E+02  0.48712663533E+03  0.49640303759E+03  0.00000000000E+00 0.  1.
<mgrwt>
<rscale>  0 0.12793020E+04</rscale>
<asrwt>0</asrwt>
<pdfrwt beam="1">  1        2 0.68954213E+00 0.12793020E+04</pdfrwt>
<pdfrwt beam="2">  1       -2 0.14044254E-01 0.12793020E+04</pdfrwt>
<totfact> 0.51892155E+00</totfact>
</mgrwt>
</event>
<event>
12    1  0.1472088E-007  0.2117982E+04  0.7818608E-02  0.8553363E-01
         -1   -1    0    0    0  501 -0.00000000000E+00  0.00000000000E+00  0.52629319892E+03  0.52629319892E+03  0.00000000000E+00 0.  1.
          1   -1    0    0  501    0  0.00000000000E+00 -0.00000000000E+00 -0.21308685454E+04  0.21308685454E+04  0.00000000000E+00 0. -1.
         23    2    1    2    0    0 -0.81094149162E+03 -0.28777751317E+03 -0.64531722307E+03  0.10797171239E+04  0.94407358056E+02 0.  0.
        254    2    1    2    0    0  0.81094149162E+03  0.28777751317E+03 -0.95925812337E+03  0.15774446204E+04  0.90978754845E+03 0.  0.
        -24    2    4    4    0    0 -0.96948599402E+02 -0.12543141597E+03  0.18675041828E+02  0.17817241499E+03  0.79149107626E+02 0.  0.
         24    2    4    4    0    0  0.90789009102E+03  0.41320892914E+03 -0.97793316520E+03  0.13992722054E+04  0.81261262451E+02 0.  0.
         13    1    3    3    0    0 -0.21227544316E+02  0.75233861604E+01 -0.17695734071E+02  0.28641734957E+02  0.00000000000E+00 0.  1.
        -13    1    3    3    0    0 -0.78971394731E+03 -0.29530089933E+03 -0.62762148900E+03  0.10510753889E+04  0.00000000000E+00 0. -1.
          2    1    6    6  502    0  0.46092632924E+03  0.24494374018E+03 -0.54553123318E+03  0.75501976346E+03  0.00000000000E+00 0. -1.
          3    1    5    5  503    0 -0.19604384031E+02 -0.59461272662E+02  0.40008138775E+02  0.74300915123E+02  0.00000000000E+00 0. -1.
         -4    1    5    5    0  503 -0.77344215371E+02 -0.65970143310E+02 -0.21333096947E+02  0.10387149987E+03  0.00000000000E+00 0.  1.
         -3    1    6    6    0  502  0.44696376178E+03  0.16826518897E+03 -0.43240193203E+03  0.64425244197E+03  0.00000000000E+00 0.  1.
<mgrwt>
<rscale>  0 0.21179817E+04</rscale>
<asrwt>0</asrwt>
<pdfrwt beam="1">  1        1 0.32782593E+00 0.21179817E+04</pdfrwt>
<pdfrwt beam="2">  1       -1 0.80968184E-01 0.21179817E+04</pdfrwt>
<totfact> 0.33893900E+00</totfact>
</mgrwt>
</event>
<event>
12    1  0.1472088E-007  0.1610439E+04  0.7818608E-02  0.8814160E-01
          1   -1    0    0  501    0  0.00000000000E+00  0.00000000000E+00  0.17638173330E+04  0.17638173330E+04  0.00000000000E+00 0. -1.
         -1   -1    0    0    0  501 -0.00000000000E+00 -0.00000000000E+00 -0.36759956644E+03  0.36759956644E+03  0.00000000000E+00 0.  1.
         23    2    1    2    0    0  0.17771761718E+02  0.49992738449E+03  0.82087828100E+03  0.96561645660E+03  0.91273017725E+02 0.  0.
        254    2    1    2    0    0 -0.17771761718E+02 -0.49992738449E+03  0.57533948560E+03  0.11658004429E+04  0.88194780098E+03 0.  0.
        -24    2    4    4    0    0  0.30932599163E+03 -0.29618894230E+02 -0.37738538556E+02  0.32277485051E+03  0.78737277298E+02 0.  0.
         24    2    4    4    0    0 -0.32709775335E+03 -0.47030849026E+03  0.61307802415E+03  0.84302559237E+03  0.81513615041E+02 0.  0.
         13    1    3    3    0    0  0.53030223103E+00 -0.39989795491E+01  0.96138095311E+01  0.10425852080E+02  0.00000000000E+00 0. -1.
        -13    1    3    3    0    0  0.17241459487E+02  0.50392636404E+03  0.81126447147E+03  0.95519060452E+03  0.00000000000E+00 0.  1.
          2    1    6    6  502    0 -0.19369806469E+03 -0.30351494257E+03  0.32992599725E+03  0.48835583778E+03  0.00000000000E+00 0. -1.
          1    1    5    5  503    0  0.53563089576E+02  0.16918452956E+02  0.13593752478E+02  0.57792981596E+02  0.00000000000E+00 0. -1.
         -2    1    5    5    0  503  0.25576290205E+03 -0.46537347187E+02 -0.51332291034E+02  0.26498186891E+03  0.00000000000E+00 0.  1.
         -1    1    6    6    0  502 -0.13339968865E+03 -0.16679354768E+03  0.28315202690E+03  0.35466975459E+03  0.00000000000E+00 0.  1.
<mgrwt>
<rscale>  0 0.16104391E+04</rscale>
<asrwt>0</asrwt>
<pdfrwt beam="1">  1        1 0.27135651E+00 0.16104391E+04</pdfrwt>
<pdfrwt beam="2">  1       -1 0.56553781E-01 0.16104391E+04</pdfrwt>
<totfact> 0.13081682E+01</totfact>
</mgrwt>
</event>
<event>
12    1  0.1472088E-007  0.2872345E+04  0.7818608E-02  0.8281153E-01
          1   -1    0    0  501    0  0.00000000000E+00  0.00000000000E+00  0.16071239610E+04  0.16071239610E+04  0.00000000000E+00 0. -1.
         -1   -1    0    0    0  501 -0.00000000000E+00 -0.00000000000E+00 -0.12834054746E+04  0.12834054746E+04  0.00000000000E+00 0.  1.
         23    2    1    2    0    0 -0.84790381872E+03  0.52822481606E+03 -0.68149754495E+03  0.12134258988E+04  0.10000583024E+03 0.  0.
        254    2    1    2    0    0  0.84790381872E+03 -0.52822481606E+03  0.10052160314E+04  0.16771035368E+04  0.89680246505E+03 0.  0.
        -24    2    4    4    0    0  0.22295829042E+03 -0.51748896526E+03  0.85776293432E+03  0.10299562466E+04  0.86875716036E+02 0.  0.
         24    2    4    4    0    0  0.62494552830E+03 -0.10735850798E+02  0.14745309706E+03  0.64714729018E+03  0.79906367228E+02 0.  0.
         13    1    3    3    0    0 -0.19457416880E+03  0.74222488032E+02 -0.13329392749E+03  0.24725564908E+03  0.00000000000E+00 0. -1.
        -13    1    3    3    0    0 -0.65332964992E+03  0.45400232802E+03 -0.54820361746E+03  0.96617024976E+03  0.00000000000E+00 0.  1.
          2    1    6    6  502    0  0.18799128609E+03  0.29493451765E+02  0.61706042671E+02  0.20004555243E+03  0.00000000000E+00 0. -1.
          3    1    5    5  503    0  0.45073627117E+02 -0.12230057900E+03  0.13824344305E+03  0.19000082376E+03  0.00000000000E+00 0. -1.
         -4    1    5    5    0  503  0.17788466331E+03 -0.39518838626E+03  0.71951949127E+03  0.83995542286E+03  0.00000000000E+00 0.  1.
         -1    1    6    6    0  502  0.43695424221E+03 -0.40229302563E+02  0.85747054392E+02  0.44710173776E+03  0.00000000000E+00 0.  1.
<mgrwt>
<rscale>  0 0.28723452E+04</rscale>
<asrwt>0</asrwt>
<pdfrwt beam="1">  1        1 0.24724984E+00 0.28723452E+04</pdfrwt>
<pdfrwt beam="2">  1       -1 0.19744700E+00 0.28723452E+04</pdfrwt>
<totfact> 0.74419271E-01</totfact>
</mgrwt>
</event>
<event>
12    1  0.2365224E-007  0.3056896E+04  0.7818608E-02  0.8227668E-01
         -1   -1    0    0    0  501 -0.00000000000E+00  0.00000000000E+00  0.10835182739E+04  0.10835182739E+04  0.00000000000E+00 0.  1.
          1   -1    0    0  501    0  0.00000000000E+00 -0.00000000000E+00 -0.21560804900E+04  0.21560804900E+04  0.00000000000E+00 0. -1.
         23    2    1    2    0    0 -0.39314711432E+03  0.60271578556E+03  0.73825177961E+03  0.10350168215E+04  0.91723273932E+02 0.  0.
        254    2    1    2    0    0  0.39314711432E+03 -0.60271578556E+03 -0.18108139957E+04  0.22045819425E+04  0.10311659626E+04 0.  0.
        -24    2    4    4    0    0  0.41265945187E+03  0.18209738164E+03 -0.80593781685E+03  0.92698282499E+03  0.79461396830E+02 0.  0.
         24    2    4    4    0    0 -0.19512337550E+02 -0.78481316720E+03 -0.10048761789E+04  0.12775991175E+04  0.78555276538E+02 0.  0.
         13    1    3    3    0    0 -0.20192777130E+03  0.23794646706E+03  0.35137057669E+03  0.46995172962E+03  0.00000000000E+00 0. -1.
        -13    1    3    3    0    0 -0.19121934302E+03  0.36476931850E+03  0.38688120292E+03  0.56506509186E+03  0.00000000000E+00 0.  1.
          2    1    6    6  502    0 -0.25205446783E+02 -0.73464240613E+03 -0.90702486352E+03  0.11674882794E+04  0.00000000000E+00 0. -1.
          3    1    5    5  503    0  0.29824466630E+03  0.16825202713E+03 -0.61769219993E+03  0.70625935708E+03  0.00000000000E+00 0. -1.
         -4    1    5    5    0  503  0.11441478557E+03  0.13845354517E+02 -0.18824561692E+03  0.22072346791E+03  0.00000000000E+00 0.  1.
         -1    1    6    6    0  502  0.56931092335E+01 -0.50170761076E+02 -0.97851315358E+02  0.11011083815E+03  0.00000000000E+00 0.  1.
<mgrwt>
<rscale>  0 0.30568956E+04</rscale>
<asrwt>0</asrwt>
<pdfrwt beam="1">  1        1 0.33170468E+00 0.30568956E+04</pdfrwt>
<pdfrwt beam="2">  1       -1 0.16669512E+00 0.30568956E+04</pdfrwt>
<totfact> 0.51451774E-01</totfact>
</mgrwt>
</event>
<event>
12    1  0.1472088E-007  0.1883114E+04  0.7818608E-02  0.8663308E-01
          2   -1    0    0  501    0  0.00000000000E+00  0.00000000000E+00  0.15360651037E+04  0.15360651037E+04  0.00000000000E+00 0. -1.
         -2   -1    0    0    0  501 -0.00000000000E+00 -0.00000000000E+00 -0.57714319420E+03  0.57714319420E+03  0.00000000000E+00 0.  1.
         23    2    1    2    0    0 -0.69267985015E+03 -0.78344141076E+02  0.66491450266E+03  0.96792449736E+03  0.93932728556E+02 0.  0.
        254    2    1    2    0    0  0.69267985015E+03  0.78344141076E+02  0.29400740685E+03  0.11452838005E+04  0.85982059132E+03 0.  0.
        -24    2    4    4    0    0  0.43143352496E+03 -0.13806509232E+03 -0.23143161915E+03  0.51475718774E+03  0.78851200476E+02 0.  0.
         24    2    4    4    0    0  0.26124632519E+03  0.21640923340E+03  0.52543902600E+03  0.63052661280E+03  0.79968998265E+02 0.  0.
         11    1    3    3    0    0 -0.56828407396E+03 -0.84900829763E+02  0.50311409985E+03  0.76372687335E+03  0.00000000000E+00 0.  1.
        -11    1    3    3    0    0 -0.12439577619E+03  0.65566886873E+01  0.16180040282E+03  0.20419762401E+03  0.00000000000E+00 0. -1.
          2    1    6    6  502    0  0.23800575992E+03  0.16347121361E+03  0.41063614713E+03  0.50198767392E+03  0.00000000000E+00 0. -1.
          3    1    5    5  503    0  0.38182005962E+03 -0.13435172135E+03 -0.17932400662E+03  0.44271214385E+03  0.00000000000E+00 0. -1.
         -4    1    5    5    0  503  0.49613465333E+02 -0.37133709740E+01 -0.52107612529E+02  0.72045043895E+02  0.00000000000E+00 0.  1.
         -1    1    6    6    0  502  0.23240565270E+02  0.52938019790E+02  0.11480287887E+03  0.12853893888E+03  0.00000000000E+00 0.  1.
<mgrwt>
<rscale>  0 0.18831139E+04</rscale>
<asrwt>0</asrwt>
<pdfrwt beam="1">  1        2 0.23631771E+00 0.18831139E+04</pdfrwt>
<pdfrwt beam="2">  1       -2 0.88791261E-01 0.18831139E+04</pdfrwt>
<totfact> 0.12385739E+01</totfact>
</mgrwt>
</event>
<event>
12    1  0.1472088E-007  0.1919995E+04  0.7818608E-02  0.8644967E-01
          2   -1    0    0  501    0  0.00000000000E+00  0.00000000000E+00  0.15178765268E+04  0.15178765268E+04  0.00000000000E+00 0. -1.
         -2   -1    0    0    0  501 -0.00000000000E+00 -0.00000000000E+00 -0.60716056832E+03  0.60716056832E+03  0.00000000000E+00 0.  1.
         23    2    1    2    0    0  0.15684004591E+03  0.20043485591E+03  0.11348565069E+04  0.11667180524E+04  0.92513735463E+02 0.  0.
        254    2    1    2    0    0 -0.15684004591E+03 -0.20043485591E+03 -0.22414054841E+03  0.95831904265E+03  0.89630545608E+03 0.  0.
        -24    2    4    4    0    0 -0.29957770919E+03  0.25902863478E+03  0.35635651872E+02  0.40563309097E+03  0.80160260252E+02 0.  0.
         24    2    4    4    0    0  0.14273766328E+03 -0.45946349069E+03 -0.25977620028E+03  0.55268595169E+03  0.80606123602E+02 0.  0.
         11    1    3    3    0    0  0.16131534348E+03  0.19358128988E+03  0.11286727203E+04  0.11564594525E+04  0.00000000000E+00 0. -1.
        -11    1    3    3    0    0 -0.44752975719E+01  0.68535660297E+01  0.61837865909E+01  0.10258599918E+02  0.00000000000E+00 0.  1.
          4    1    6    6  502    0 -0.50084548903E+01 -0.13563675196E+02  0.25185835646E+01  0.14676551652E+02  0.00000000000E+00 0. -1.
          3    1    5    5  503    0 -0.83603445695E+02  0.10126606442E+03  0.42687894819E+02  0.13808188983E+03  0.00000000000E+00 0. -1.
         -4    1    5    5    0  503 -0.21597426349E+03  0.15776257036E+03 -0.70522429469E+01  0.26755120113E+03  0.00000000000E+00 0.  1.
         -3    1    6    6    0  502  0.14774611817E+03 -0.44589981549E+03 -0.26229478385E+03  0.53800940003E+03  0.00000000000E+00 0.  1.
<mgrwt>
<rscale>  0 0.19199946E+04</rscale>
<asrwt>0</asrwt>
<pdfrwt beam="1">  1        2 0.23351947E+00 0.19199946E+04</pdfrwt>
<pdfrwt beam="2">  1       -2 0.93409318E-01 0.19199946E+04</pdfrwt>
<totfact> 0.11243661E+01</totfact>
</mgrwt>
</event>
<event>
12    1  0.1472088E-007  0.2226560E+04  0.7818608E-02  0.8507454E-01
          1   -1    0    0  501    0  0.00000000000E+00  0.00000000000E+00  0.60362355232E+03  0.60362355232E+03  0.00000000000E+00 0. -1.
         -1   -1    0    0    0  501 -0.00000000000E+00 -0.00000000000E+00 -0.20532532329E+04  0.20532532329E+04  0.00000000000E+00 0.  1.
         23    2    1    2    0    0  0.88699365311E+03  0.19411309569E+03 -0.84782497823E+03  0.12457501870E+04  0.92998387286E+02 0.  0.
        254    2    1    2    0    0 -0.88699365311E+03 -0.19411309569E+03 -0.60180470232E+03  0.14111265982E+04  0.89703497252E+03 0.  0.
        -24    2    4    4    0    0 -0.16507867606E+03  0.88901273837E+02 -0.59690312893E+03  0.63164389440E+03  0.86754009889E+02 0.  0.
         24    2    4    4    0    0 -0.72191497705E+03 -0.28301436953E+03 -0.49015733908E+01  0.77948270382E+03  0.79441127219E+02 0.  0.
         11    1    3    3    0    0  0.81583865988E+03  0.18446973327E+03 -0.74356861150E+03  0.11191586489E+04  0.00000000000E+00 0.  1.
        -11    1    3    3    0    0  0.71154993226E+02  0.96433624224E+01 -0.10425636673E+03  0.12659153804E+03  0.00000000000E+00 0. -1.
          2    1    6    6  502    0 -0.15505914131E+03 -0.42099343036E+02 -0.28138347995E+02  0.16311792855E+03  0.00000000000E+00 0. -1.
          3    1    5    5  503    0 -0.12113624052E+03  0.32585758941E+02 -0.46520948886E+03  0.48182537187E+03  0.00000000000E+00 0. -1.
         -4    1    5    5    0  503 -0.43942435542E+02  0.56315514896E+02 -0.13169364007E+03  0.14981852254E+03  0.00000000000E+00 0.  1.
         -1    1    6    6    0  502 -0.56685583574E+03 -0.24091502649E+03  0.23236774604E+02  0.61636477527E+03  0.00000000000E+00 0.  1.
<mgrwt>
<rscale>  0 0.22265597E+04</rscale>
<asrwt>0</asrwt>
<pdfrwt beam="1">  1        1 0.92865161E-01 0.22265597E+04</pdfrwt>
<pdfrwt beam="2">  1       -1 0.31588512E+00 0.22265597E+04</pdfrwt>
<totfact> 0.80443101E-01</totfact>
</mgrwt>
</event>
<event>
12    1  0.1472088E-007  0.1973952E+04  0.7818608E-02  0.8618897E-01
         -2   -1    0    0    0  501 -0.00000000000E+00  0.00000000000E+00  0.39388270862E+03  0.39388270862E+03  0.00000000000E+00 0.  1.
          2   -1    0    0  501    0  0.00000000000E+00 -0.00000000000E+00 -0.24731252781E+04  0.24731252781E+04  0.00000000000E+00 0. -1.
         23    2    1    2    0    0 -0.32673705136E+03 -0.21056792871E+03  0.15296852689E+03  0.42760935620E+03  0.91402614623E+02 0.  0.
        254    2    1    2    0    0  0.32673705136E+03  0.21056792871E+03 -0.22322110963E+04  0.24393986305E+04  0.90377173360E+03 0.  0.
        -24    2    4    4    0    0 -0.20547781270E+03  0.24261639293E+03 -0.34178382126E+03  0.47359473424E+03  0.79949647837E+02 0.  0.
         24    2    4    4    0    0  0.53221486406E+03 -0.32048464221E+02 -0.18904272751E+04  0.19658038962E+04  0.79936916096E+02 0.  0.
         11    1    3    3    0    0 -0.28284015501E+03 -0.14084924550E+03  0.13310531062E+03  0.34286161488E+03  0.00000000000E+00 0.  1.
        -11    1    3    3    0    0 -0.43896896347E+02 -0.69718683217E+02  0.19863216271E+02  0.84747741321E+02  0.00000000000E+00 0. -1.
          2    1    6    6  502    0  0.56098111320E+02 -0.26697067448E+02 -0.25615522889E+03  0.26358154866E+03  0.00000000000E+00 0. -1.
          1    1    5    5  503    0 -0.87850146651E+02  0.16479664778E+03 -0.19861461440E+03  0.27262308860E+03  0.00000000000E+00 0. -1.
         -2    1    5    5    0  503 -0.11762766605E+03  0.77819745158E+02 -0.14316920686E+03  0.20097164564E+03  0.00000000000E+00 0.  1.
         -1    1    6    6    0  502  0.47611675274E+03 -0.53513967721E+01 -0.16342720462E+04  0.17022223476E+04  0.00000000000E+00 0.  1.
<mgrwt>
<rscale>  0 0.19739517E+04</rscale>
<asrwt>0</asrwt>
<pdfrwt beam="1">  1        2 0.38048080E+00 0.19739517E+04</pdfrwt>
<pdfrwt beam="2">  1       -2 0.60597341E-01 0.19739517E+04</pdfrwt>
<totfact> 0.85241974E+00</totfact>
</mgrwt>
</event>
<event>
12    1  0.1472088E-007  0.1834330E+04  0.7818608E-02  0.8688253E-01
          2   -1    0    0  501    0  0.00000000000E+00  0.00000000000E+00  0.83392243496E+03  0.83392243496E+03  0.00000000000E+00 0.  1.
         -2   -1    0    0    0  501 -0.00000000000E+00 -0.00000000000E+00 -0.10087174288E+04  0.10087174288E+04  0.00000000000E+00 0. -1.
         23    2    1    2    0    0  0.25381497994E+03 -0.74288913316E+02  0.57811524775E+03  0.64243454348E+03  0.92541970478E+02 0.  0.
        254    2    1    2    0    0 -0.25381497994E+03  0.74288913316E+02 -0.75291024158E+03  0.12002053203E+04  0.89648094917E+03 0.  0.
        -24    2    4    4    0    0 -0.12588857292E+03  0.23988465751E+02 -0.94104783259E+03  0.95259258070E+03  0.73744303482E+02 0.  0.
         24    2    4    4    0    0 -0.12792640703E+03  0.50300447565E+02  0.18813759101E+03  0.24761273957E+03  0.83791497218E+02 0.  0.
         13    1    3    3    0    0  0.21748984457E+03 -0.95787222645E+02  0.47931011630E+03  0.53499085235E+03  0.00000000000E+00 0. -1.
        -13    1    3    3    0    0  0.36325135372E+02  0.21498309329E+02  0.98805131452E+02  0.10744369114E+03  0.00000000000E+00 0.  1.
          2    1    6    6  502    0  0.94415556515E+00  0.37242957273E+01  0.59628954432E+02  0.59752606763E+02  0.00000000000E+00 0. -1.
          1    1    5    5  503    0 -0.54866017598E+02  0.17215669367E+01 -0.18728670352E+03  0.19516545031E+03  0.00000000000E+00 0. -1.
         -2    1    5    5    0  503 -0.71022555317E+02  0.22266898814E+02 -0.75376112907E+03  0.75742713039E+03  0.00000000000E+00 0.  1.
         -1    1    6    6    0  502 -0.12887056259E+03  0.46576151838E+02  0.12850863658E+03  0.18786013281E+03  0.00000000000E+00 0.  1.
<mgrwt>
<rscale>  0 0.18343305E+04</rscale>
<asrwt>0</asrwt>
<pdfrwt beam="1">  1        2 0.12829576E+00 0.18343305E+04</pdfrwt>
<pdfrwt beam="2">  1       -2 0.15518730E+00 0.18343305E+04</pdfrwt>
<totfact> 0.83889989E+00</totfact>
</mgrwt>
</event>
<event>
12    1  0.1472088E-007  0.1914607E+04  0.7818608E-02  0.8647619E-01
         -2   -1    0    0    0  501 -0.00000000000E+00  0.00000000000E+00  0.72099066621E+03  0.72099066621E+03  0.00000000000E+00 0.  1.
          2   -1    0    0  501    0  0.00000000000E+00 -0.00000000000E+00 -0.12710711105E+04  0.12710711105E+04  0.00000000000E+00 0. -1.
         23    2    1    2    0    0 -0.50058102633E+01  0.75357001245E+03 -0.14229627336E+03  0.77493423144E+03  0.11127448877E+03 0.  0.
        254    2    1    2    0    0  0.50058102633E+01 -0.75357001245E+03 -0.40778417094E+03  0.12171275453E+04  0.86441813356E+03 0.  0.
        -24    2    4    4    0    0 -0.11686548769E+03 -0.18935271855E+03 -0.56626342448E+03  0.61360646086E+03  0.79665730829E+02 0.  0.
         24    2    4    4    0    0  0.12187129795E+03 -0.56421729390E+03  0.15847925354E+03  0.60352108443E+03  0.76995178740E+02 0.  0.
         11    1    3    3    0    0  0.35860275451E+02  0.57877697885E+03 -0.13437777274E+03  0.59525300202E+03  0.00000000000E+00 0.  1.
        -11    1    3    3    0    0 -0.40866085714E+02  0.17479303359E+03 -0.79185006194E+01  0.17968122942E+03  0.00000000000E+00 0. -1.
          4    1    6    6  502    0  0.11365751546E+03 -0.38416959321E+03  0.89272041755E+02  0.41045560614E+03  0.00000000000E+00 0. -1.
          3    1    5    5  503    0 -0.99282038367E+02 -0.11513217723E+03 -0.44595781296E+03  0.47115890346E+03  0.00000000000E+00 0. -1.
         -4    1    5    5    0  503 -0.17583449321E+02 -0.74220541319E+02 -0.12030561152E+03  0.14244755739E+03  0.00000000000E+00 0.  1.
         -3    1    6    6    0  502  0.82137824875E+01 -0.18004770068E+03  0.69207211780E+02  0.19306547829E+03  0.00000000000E+00 0.  1.
<mgrwt>
<rscale>  0 0.19146074E+04</rscale>
<asrwt>0</asrwt>
<pdfrwt beam="1">  1        2 0.19554940E+00 0.19146074E+04</pdfrwt>
<pdfrwt beam="2">  1       -2 0.11092164E+00 0.19146074E+04</pdfrwt>
<totfact> 0.10355023E+01</totfact>
</mgrwt>
</event>
<event>
12    1  0.1472088E-007  0.1888330E+04  0.7818608E-02  0.8660687E-01
          3   -1    0    0  501    0  0.00000000000E+00  0.00000000000E+00  0.12465705902E+04  0.12465705902E+04  0.00000000000E+00 0. -1.
         -3   -1    0    0    0  501 -0.00000000000E+00 -0.00000000000E+00 -0.71512013887E+03  0.71512013887E+03  0.00000000000E+00 0.  1.
         23    2    1    2    0    0 -0.37369949691E+02  0.71505118719E+03  0.55853111495E+02  0.72367383562E+03  0.88823064890E+02 0.  0.
        254    2    1    2    0    0  0.37369949691E+02 -0.71505118719E+03  0.47559733983E+03  0.12380168934E+04  0.89095358204E+03 0.  0.
        -24    2    4    4    0    0 -0.11762219117E+03 -0.68327744583E+03  0.67521936575E+03  0.97107208536E+03  0.79729262168E+02 0.  0.
         24    2    4    4    0    0  0.15499214086E+03 -0.31773741365E+02 -0.19962202592E+03  0.26694480809E+03  0.79865154881E+02 0.  0.
         11    1    3    3    0    0 -0.60115315935E+01  0.53563575624E+03  0.95918264120E+01  0.53575535930E+03  0.00000000000E+00 0.  1.
        -11    1    3    3    0    0 -0.31358418097E+02  0.17941543095E+03  0.46261285083E+02  0.18791847633E+03  0.00000000000E+00 0. -1.
          2    1    6    6  502    0  0.80638798627E+02  0.23843473206E+02 -0.10247036047E+03  0.13255678720E+03  0.00000000000E+00 0. -1.
          1    1    5    5  503    0 -0.60296096725E+02 -0.42014446709E+03  0.36071363034E+03  0.55702003162E+03  0.00000000000E+00 0. -1.
         -2    1    5    5    0  503 -0.57326094446E+02 -0.26313297873E+03  0.31450573541E+03  0.41405205374E+03  0.00000000000E+00 0.  1.
         -1    1    6    6    0  502  0.74353342235E+02 -0.55617214572E+02 -0.97151665447E+02  0.13438802089E+03  0.00000000000E+00 0.  1.
<mgrwt>
<rscale>  0 0.18883302E+04</rscale>
<asrwt>0</asrwt>
<pdfrwt beam="1">  1        3 0.19178009E+00 0.18883302E+04</pdfrwt>
<pdfrwt beam="2">  1       -3 0.11001848E+00 0.18883302E+04</pdfrwt>
<totfact> 0.28395516E-01</totfact>
</mgrwt>
</event>
<event>
12    1  0.1472088E-007  0.1795490E+04  0.7818608E-02  0.8708701E-01
         -1   -1    0    0    0  501 -0.00000000000E+00  0.00000000000E+00  0.65489943227E+03  0.65489943227E+03  0.00000000000E+00 0.  1.
          1   -1    0    0  501    0  0.00000000000E+00 -0.00000000000E+00 -0.12306415296E+04  0.12306415296E+04  0.00000000000E+00 0. -1.
         23    2    1    2    0    0  0.15195567336E+03  0.55941304318E+03 -0.57885518304E+03  0.82413233483E+03  0.89929432548E+02 0.  0.
        254    2    1    2    0    0 -0.15195567336E+03 -0.55941304318E+03  0.31130857179E+01  0.10614086270E+04  0.88912603306E+03 0.  0.
        -24    2    4    4    0    0 -0.22527243002E+03 -0.72789951895E+03  0.18820410726E+03  0.78886751633E+03  0.79409035533E+02 0.  0.
         24    2    4    4    0    0  0.73316756656E+02  0.16848647577E+03 -0.18509102155E+03  0.27254111069E+03  0.79100767590E+02 0.  0.
         11    1    3    3    0    0  0.12891360314E+03  0.34690484296E+03 -0.40481933436E+03  0.54848918003E+03  0.00000000000E+00 0. -1.
        -11    1    3    3    0    0  0.23042070221E+02  0.21250820022E+03 -0.17403584867E+03  0.27564315479E+03  0.00000000000E+00 0.  1.
          4    1    6    6  502    0  0.22528353889E+02  0.10512001605E+03 -0.14884812773E+03  0.18361238965E+03  0.00000000000E+00 0. -1.
          1    1    5    5  503    0 -0.16380340239E+03 -0.60896315922E+03  0.17437274805E+03  0.65427329090E+03  0.00000000000E+00 0. -1.
         -2    1    5    5    0  503 -0.61469027624E+02 -0.11893635972E+03  0.13831359218E+02  0.13459422543E+03  0.00000000000E+00 0.  1.
         -3    1    6    6    0  502  0.50788402767E+02  0.63366459726E+02 -0.36242893812E+02  0.88928721039E+02  0.00000000000E+00 0.  1.
<mgrwt>
<rscale>  0 0.17954904E+04</rscale>
<asrwt>0</asrwt>
<pdfrwt beam="1">  1        1 0.18932947E+00 0.17954904E+04</pdfrwt>
<pdfrwt beam="2">  1       -1 0.10075376E+00 0.17954904E+04</pdfrwt>
<totfact> 0.89764319E+00</totfact>
</mgrwt>
</event>
<event>
12    1  0.1472088E-007  0.1854005E+04  0.7818608E-02  0.8678096E-01
         -2   -1    0    0    0  501 -0.00000000000E+00  0.00000000000E+00  0.47301965316E+03  0.47301965316E+03  0.00000000000E+00 0.  1.
          2   -1    0    0  501    0  0.00000000000E+00 -0.00000000000E+00 -0.18166975972E+04  0.18166975972E+04  0.00000000000E+00 0. -1.
         23    2    1    2    0    0 -0.23672880619E+03  0.20735571743E+03 -0.12849620798E+04  0.13263222895E+04  0.94690801238E+02 0.  0.
        254    2    1    2    0    0  0.23672880619E+03 -0.20735571743E+03 -0.58715864216E+02  0.96339496085E+03  0.90865030493E+03 0.  0.
        -24    2    4    4    0    0  0.53591536876E+03 -0.16104777108E+03 -0.22563882398E+03  0.60897062555E+03  0.82405563179E+02 0.  0.
         24    2    4    4    0    0 -0.29918656258E+03 -0.46307946351E+02  0.16692295977E+03  0.35442433530E+03  0.78078869313E+02 0.  0.
         11    1    3    3    0    0 -0.24149561487E+03  0.20154818992E+03 -0.11836587574E+04  0.12247407313E+04  0.00000000000E+00 0. -1.
        -11    1    3    3    0    0  0.47668086866E+01  0.58075275186E+01 -0.10130332240E+03  0.10158155822E+03  0.00000000000E+00 0.  1.
          4    1    6    6  502    0 -0.16832975044E+02 -0.18199706655E+01  0.36505250371E+02  0.40240460319E+02  0.00000000000E+00 0. -1.
          1    1    5    5  503    0  0.21020167045E+03 -0.73066125293E+02 -0.13236149884E+03  0.25892656739E+03  0.00000000000E+00 0. -1.
         -2    1    5    5    0  503  0.32571369831E+03 -0.87981645791E+02 -0.93277325141E+02  0.35004405815E+03  0.00000000000E+00 0.  1.
         -3    1    6    6    0  502 -0.28235358753E+03 -0.44487975685E+02  0.13041770940E+03  0.31418387498E+03  0.00000000000E+00 0.  1.
<mgrwt>
<rscale>  0 0.18540050E+04</rscale>
<asrwt>0</asrwt>
<pdfrwt beam="1">  1        2 0.27949193E+00 0.18540050E+04</pdfrwt>
<pdfrwt beam="2">  1       -2 0.72772257E-01 0.18540050E+04</pdfrwt>
<totfact> 0.13551522E+01</totfact>
</mgrwt>
</event>
<event>
12    1  0.1472088E-007  0.1617148E+04  0.7818608E-02  0.8810082E-01
          2   -1    0    0  501    0  0.00000000000E+00  0.00000000000E+00  0.20357368514E+04  0.20357368514E+04  0.00000000000E+00 0. -1.
         -2   -1    0    0    0  501 -0.00000000000E+00 -0.00000000000E+00 -0.32115723112E+03  0.32115723112E+03  0.00000000000E+00 0.  1.
         23    2    1    2    0    0 -0.11783990702E+03 -0.46370890691E+03  0.17161930700E+03  0.51374172320E+03  0.74600117910E+02 0.  0.
        254    2    1    2    0    0  0.11783990702E+03  0.46370890691E+03  0.15429603133E+04  0.18431523593E+04  0.88745247605E+03 0.  0.
        -24    2    4    4    0    0  0.29031181823E+03  0.65145019097E+03  0.12851129304E+04  0.14718809328E+04  0.79056519146E+02 0.  0.
         24    2    4    4    0    0 -0.17247191121E+03 -0.18774128407E+03  0.25784738292E+03  0.37127142659E+03  0.79773738920E+02 0.  0.
         11    1    3    3    0    0 -0.29432006744E+01 -0.28850492251E+02  0.31095390097E+02  0.42519837942E+02  0.00000000000E+00 0. -1.
        -11    1    3    3    0    0 -0.11489670635E+03 -0.43485841466E+03  0.14052391690E+03  0.47122188526E+03  0.00000000000E+00 0.  1.
          2    1    6    6  502    0  0.65984587206E+00 -0.23651248432E+02  0.48221104997E+02  0.53713051636E+02  0.00000000000E+00 0. -1.
          1    1    5    5  503    0  0.55033588710E+02  0.86742987756E+02  0.23679382686E+03  0.25811694684E+03  0.00000000000E+00 0. -1.
         -2    1    5    5    0  503  0.23527822952E+03  0.56470720322E+03  0.10483191035E+04  0.12137639859E+04  0.00000000000E+00 0.  1.
         -1    1    6    6    0  502 -0.17313175708E+03 -0.16409003563E+03  0.20962627792E+03  0.31755837495E+03  0.00000000000E+00 0.  1.
<mgrwt>
<rscale>  0 0.16171476E+04</rscale>
<asrwt>0</asrwt>
<pdfrwt beam="1">  1        2 0.31319028E+00 0.16171476E+04</pdfrwt>
<pdfrwt beam="2">  1       -2 0.49408806E-01 0.16171476E+04</pdfrwt>
<totfact> 0.23703403E+01</totfact>
</mgrwt>
</event>
<event>
12    1  0.1472088E-007  0.1832997E+04  0.7818608E-02  0.8688946E-01
          2   -1    0    0  501    0  0.00000000000E+00  0.00000000000E+00  0.16024987216E+04  0.16024987216E+04  0.00000000000E+00 0. -1.
         -2   -1    0    0    0  501 -0.00000000000E+00 -0.00000000000E+00 -0.52416236633E+03  0.52416236633E+03  0.00000000000E+00 0.  1.
         23    2    1    2    0    0  0.29180892498E+03  0.61081879182E+03  0.57785211664E+03  0.89464805882E+03  0.90719542074E+02 0.  0.
        254    2    1    2    0    0 -0.29180892498E+03 -0.61081879182E+03  0.50048423866E+03  0.12320130291E+04  0.89951074795E+03 0.  0.
        -24    2    4    4    0    0 -0.54040525631E+03 -0.63691109212E+03  0.48514819551E+03  0.96918874108E+03  0.79148366482E+02 0.  0.
         24    2    4    4    0    0  0.24859633134E+03  0.26092300299E+02  0.15336043150E+02  0.26282428805E+03  0.79752542802E+02 0.  0.
         11    1    3    3    0    0  0.41697447524E+02  0.11230137973E+03  0.61822344960E+02  0.13480459694E+03  0.00000000000E+00 0.  1.
        -11    1    3    3    0    0  0.25011147745E+03  0.49851741209E+03  0.51602977168E+03  0.75984346189E+03  0.00000000000E+00 0. -1.
          2    1    6    6  502    0  0.18168016390E+03 -0.15702813878E+01  0.40539603877E+02  0.18615479371E+03  0.00000000000E+00 0. -1.
          1    1    5    5  503    0 -0.44301651713E+03 -0.50681088308E+03  0.35520409506E+03  0.76111159156E+03  0.00000000000E+00 0. -1.
         -2    1    5    5    0  503 -0.97388739187E+02 -0.13010020904E+03  0.12994410045E+03  0.20807714952E+03  0.00000000000E+00 0.  1.
         -1    1    6    6    0  502  0.66916167435E+02  0.27662581687E+02 -0.25203560727E+02  0.76669494345E+02  0.00000000000E+00 0.  1.
<mgrwt>
<rscale>  0 0.18329970E+04</rscale>
<asrwt>0</asrwt>
<pdfrwt beam="1">  1        2 0.24653826E+00 0.18329970E+04</pdfrwt>
<pdfrwt beam="2">  1       -2 0.80640365E-01 0.18329970E+04</pdfrwt>
<totfact> 0.14209886E+01</totfact>
</mgrwt>
</event>
<event>
12    1  0.1472088E-007  0.2678301E+04  0.7818608E-02  0.8342080E-01
         -1   -1    0    0    0  501 -0.00000000000E+00  0.00000000000E+00  0.86250699402E+03  0.86250699402E+03  0.00000000000E+00 0.  1.
          1   -1    0    0  501    0  0.00000000000E+00 -0.00000000000E+00 -0.20791997261E+04  0.20791997261E+04  0.00000000000E+00 0. -1.
         23    2    1    2    0    0 -0.13066087343E+03 -0.78105879882E+03 -0.15048415717E+04  0.17032033292E+04  0.96064112120E+02 0.  0.
        254    2    1    2    0    0  0.13066087343E+03  0.78105879882E+03  0.28814883965E+03  0.12385033909E+04  0.90759891163E+03 0.  0.
        -24    2    4    4    0    0  0.13626916583E+03  0.95132140720E+03  0.94608888855E+02  0.96874549535E+03  0.77040817514E+02 0.  0.
         24    2    4    4    0    0 -0.56082923954E+01 -0.17026260838E+03  0.19353995080E+03  0.26975789554E+03  0.79314569237E+02 0.  0.
         13    1    3    3    0    0 -0.75772549981E+02 -0.61317490519E+03 -0.11029046022E+04  0.12641690967E+04  0.00000000000E+00 0. -1.
        -13    1    3    3    0    0 -0.54888323451E+02 -0.16788389362E+03 -0.40193696958E+03  0.43903423250E+03  0.00000000000E+00 0.  1.
          2    1    6    6  502    0  0.20640422739E+02 -0.10627460152E+03  0.15924394497E+03  0.19255895718E+03  0.00000000000E+00 0. -1.
          1    1    5    5  503    0  0.58403821160E+02  0.59780558099E+03  0.33062046188E+02  0.60156098434E+03  0.00000000000E+00 0. -1.
         -2    1    5    5    0  503  0.77865344666E+02  0.35351582621E+03  0.61546842668E+02  0.36718451101E+03  0.00000000000E+00 0.  1.
         -1    1    6    6    0  502 -0.26248715134E+02 -0.63988006857E+02  0.34296005825E+02  0.77198938356E+02  0.00000000000E+00 0.  1.
<mgrwt>
<rscale>  0 0.26783012E+04</rscale>
<asrwt>0</asrwt>
<pdfrwt beam="1">  1        1 0.31987687E+00 0.26783012E+04</pdfrwt>
<pdfrwt beam="2">  1       -1 0.13269339E+00 0.26783012E+04</pdfrwt>
<totfact> 0.11085330E+00</totfact>
</mgrwt>
</event>
<event>
12    1  0.1472088E-007  0.1614587E+04  0.7818608E-02  0.8811637E-01
          1   -1    0    0  501    0  0.00000000000E+00  0.00000000000E+00  0.13128499459E+04  0.13128499459E+04  0.00000000000E+00 0. -1.
         -1   -1    0    0    0  501 -0.00000000000E+00 -0.00000000000E+00 -0.49641811938E+03  0.49641811938E+03  0.00000000000E+00 0.  1.
         23    2    1    2    0    0 -0.45194266670E+03 -0.27158305902E+03  0.10759414616E+03  0.54549983856E+03  0.89353464661E+02 0.  0.
        254    2    1    2    0    0  0.45194266670E+03  0.27158305902E+03  0.70883768038E+03  0.12637682267E+04  0.90368674986E+03 0.  0.
        -24    2    4    4    0    0  0.46884110909E+03 -0.19318959500E+03  0.58121176960E+03  0.77541239447E+03  0.79517640741E+02 0.  0.
         24    2    4    4    0    0 -0.16898442389E+02  0.46477265402E+03  0.12762591078E+03  0.48835583228E+03  0.76836635377E+02 0.  0.
         13    1    3    3    0    0 -0.13455340054E+03 -0.57338851116E+02  0.65512422149E+02  0.16026303036E+03  0.00000000000E+00 0.  1.
        -13    1    3    3    0    0 -0.31738926616E+03 -0.21424420791E+03  0.42081724009E+02  0.38523680820E+03  0.00000000000E+00 0. -1.
          4    1    6    6  502    0 -0.40916341024E+02  0.37180988011E+03  0.11606198138E+03  0.39164667423E+03  0.00000000000E+00 0. -1.
          3    1    5    5  503    0  0.11467211501E+03 -0.46570465364E+02  0.19723869464E+03  0.23285533034E+03  0.00000000000E+00 0. -1.
         -4    1    5    5    0  503  0.35416899408E+03 -0.14661912963E+03  0.38397307496E+03  0.54255706413E+03  0.00000000000E+00 0.  1.
         -3    1    6    6    0  502  0.24017898635E+02  0.92962773908E+02  0.11563929404E+02  0.96709158050E+02  0.00000000000E+00 0.  1.
<mgrwt>
<rscale>  0 0.16145866E+04</rscale>
<asrwt>0</asrwt>
<pdfrwt beam="1">  1        1 0.20197691E+00 0.16145866E+04</pdfrwt>
<pdfrwt beam="2">  1       -1 0.76372019E-01 0.16145866E+04</pdfrwt>
<totfact> 0.14608701E+01</totfact>
</mgrwt>
</event>
<event>
12    1  0.1472088E-007  0.1375213E+04  0.7818608E-02  0.8971959E-01
          2   -1    0    0  501    0  0.00000000000E+00  0.00000000000E+00  0.72716612142E+03  0.72716612142E+03  0.00000000000E+00 0.  1.
         -2   -1    0    0    0  501 -0.00000000000E+00 -0.00000000000E+00 -0.65019901746E+03  0.65019901746E+03  0.00000000000E+00 0. -1.
         23    2    1    2    0    0  0.21631086683E+03  0.22120514020E+03  0.23503516353E+03  0.39840325429E+03  0.88099487910E+02 0.  0.
        254    2    1    2    0    0 -0.21631086683E+03 -0.22120514020E+03 -0.15806805956E+03  0.97896188459E+03  0.91523699383E+03 0.  0.
        -24    2    4    4    0    0  0.18380529718E+03 -0.39833997725E+03  0.11008031236E+03  0.45932144205E+03  0.79996169987E+02 0.  0.
         24    2    4    4    0    0 -0.40011616402E+03  0.17713483705E+03 -0.26814837192E+03  0.51964044254E+03  0.81565586821E+02 0.  0.
         11    1    3    3    0    0  0.10551557038E+03  0.66148621582E+02  0.54657151427E+02  0.13600213209E+03  0.00000000000E+00 0.  1.
        -11    1    3    3    0    0  0.11079529645E+03  0.15505651862E+03  0.18037801210E+03  0.26240112220E+03  0.00000000000E+00 0. -1.
          2    1    6    6  502    0 -0.16381445161E+03  0.33522044466E+02 -0.81426574993E+02  0.18598169033E+03  0.00000000000E+00 0. -1.
          1    1    5    5  503    0  0.19655225851E+02 -0.24897790523E+02 -0.11372754353E+02  0.33698181223E+02  0.00000000000E+00 0. -1.
         -2    1    5    5    0  503  0.16415007133E+03 -0.37344218672E+03  0.12145306671E+03  0.42562326083E+03  0.00000000000E+00 0.  1.
         -1    1    6    6    0  502 -0.23630171241E+03  0.14361279258E+03 -0.18672179693E+03  0.33365875221E+03  0.00000000000E+00 0.  1.
<mgrwt>
<rscale>  0 0.13752130E+04</rscale>
<asrwt>0</asrwt>
<pdfrwt beam="1">  1        2 0.11187171E+00 0.13752130E+04</pdfrwt>
<pdfrwt beam="2">  1       -2 0.10003062E+00 0.13752130E+04</pdfrwt>
<totfact> 0.31417990E+01</totfact>
</mgrwt>
</event>
<event>
12    1  0.1472088E-007  0.1419828E+04  0.7818608E-02  0.8939590E-01
          2   -1    0    0  501    0  0.00000000000E+00  0.00000000000E+00  0.10157465789E+04  0.10157465789E+04  0.00000000000E+00 0. -1.
         -2   -1    0    0    0  501 -0.00000000000E+00 -0.00000000000E+00 -0.49616476794E+03  0.49616476794E+03  0.00000000000E+00 0.  1.
         23    2    1    2    0    0 -0.10546384754E+03 -0.33780354941E+03 -0.75873503455E+02  0.37336835197E+03  0.91723915058E+02 0.  0.
        254    2    1    2    0    0  0.10546384754E+03  0.33780354941E+03  0.59545531446E+03  0.11385429949E+04  0.90359241842E+03 0.  0.
        -24    2    4    4    0    0 -0.29154439239E+03  0.33233341035E+03  0.39882927270E+02  0.45099247228E+03  0.79749193048E+02 0.  0.
         24    2    4    4    0    0  0.39700823993E+03  0.54701390588E+01  0.55557238719E+03  0.68755052264E+03  0.80122273939E+02 0.  0.
         13    1    3    3    0    0  0.66655557430E+01 -0.65588036695E+02  0.10034889901E+02  0.66685224797E+02  0.00000000000E+00 0. -1.
        -13    1    3    3    0    0 -0.11212940328E+03 -0.27221551272E+03 -0.85908393357E+02  0.30668312717E+03  0.00000000000E+00 0.  1.
          4    1    6    6  502    0  0.76998097877E+02  0.27808934031E+02  0.14503994055E+03  0.16654917665E+03  0.00000000000E+00 0. -1.
          1    1    5    5  503    0 -0.22041591817E+03  0.20236550373E+03  0.74023629349E+01  0.29931550087E+03  0.00000000000E+00 0. -1.
         -2    1    5    5    0  503 -0.71128474225E+02  0.12996790662E+03  0.32480564335E+02  0.15167697141E+03  0.00000000000E+00 0.  1.
         -3    1    6    6    0  502  0.32001014205E+03 -0.22338794972E+02  0.41053244664E+03  0.52100134599E+03  0.00000000000E+00 0.  1.
<mgrwt>
<rscale>  0 0.14198277E+04</rscale>
<asrwt>0</asrwt>
<pdfrwt beam="1">  1        2 0.15626870E+00 0.14198277E+04</pdfrwt>
<pdfrwt beam="2">  1       -2 0.76333041E-01 0.14198277E+04</pdfrwt>
<totfact> 0.36734531E+01</totfact>
</mgrwt>
</event>
<event>
12    1  0.1472088E-007  0.2845751E+04  0.7818608E-02  0.8289204E-01
         -2   -1    0    0    0  501 -0.00000000000E+00  0.00000000000E+00  0.14549171675E+04  0.14549171675E+04  0.00000000000E+00 0.  1.
          2   -1    0    0  501    0  0.00000000000E+00 -0.00000000000E+00 -0.13915391688E+04  0.13915391688E+04  0.00000000000E+00 0. -1.
         23    2    1    2    0    0 -0.10293109745E+04 -0.75220659176E+03 -0.66823576101E+02  0.12798702129E+04  0.91140180455E+02 0.  0.
        254    2    1    2    0    0  0.10293109745E+04  0.75220659176E+03  0.13020157479E+03  0.15665861235E+04  0.90107923805E+03 0.  0.
        -24    2    4    4    0    0  0.43717965425E+03 -0.15824884239E+03  0.25093743891E+02  0.47249212818E+03  0.80314189260E+02 0.  0.
         24    2    4    4    0    0  0.59213132029E+03  0.91045543415E+03  0.10510783090E+03  0.10940939953E+04  0.80283350979E+02 0.  0.
         13    1    3    3    0    0 -0.10131892987E+04 -0.72305794025E+03 -0.62801556438E+02  0.12463183283E+04  0.00000000000E+00 0. -1.
        -13    1    3    3    0    0 -0.16121675842E+02 -0.29148651512E+02 -0.40220196629E+01  0.33551884583E+02  0.00000000000E+00 0.  1.
          4    1    6    6  502    0  0.45514347155E+03  0.70853287497E+03  0.11470193805E+03  0.84990055254E+03  0.00000000000E+00 0. -1.
          3    1    5    5  503    0  0.72955318475E+02 -0.78354369770E+01 -0.19485823961E+02  0.75918178994E+02  0.00000000000E+00 0. -1.
         -4    1    5    5    0  503  0.36422433578E+03 -0.15041340541E+03  0.44579567851E+02  0.39657394918E+03  0.00000000000E+00 0.  1.
         -3    1    6    6    0  502  0.13698784874E+03  0.20192255918E+03 -0.95941071543E+01  0.24419344278E+03  0.00000000000E+00 0.  1.
<mgrwt>
<rscale>  0 0.28457507E+04</rscale>
<asrwt>0</asrwt>
<pdfrwt beam="1">  1        2 0.21408295E+00 0.28457507E+04</pdfrwt>
<pdfrwt beam="2">  1       -2 0.22383341E+00 0.28457507E+04</pdfrwt>
<totfact> 0.11858016E+00</totfact>
</mgrwt>
</event>
<event>
12    1  0.1472088E-007  0.1258488E+04  0.7818608E-02  0.9063148E-01
          2   -1    0    0  501    0  0.00000000000E+00  0.00000000000E+00  0.19905193602E+04  0.19905193602E+04  0.00000000000E+00 0. -1.
         -2   -1    0    0    0  501 -0.00000000000E+00 -0.00000000000E+00 -0.19891706410E+03  0.19891706410E+03  0.00000000000E+00 0.  1.
         23    2    1    2    0    0 -0.10610940553E+03  0.29417053359E+03  0.42406610116E+03  0.53464761618E+03  0.90667009179E+02 0.  0.
        254    2    1    2    0    0  0.10610940553E+03 -0.29417053359E+03  0.13675361949E+04  0.16547888081E+04  0.87771022909E+03 0.  0.
        -24    2    4    4    0    0 -0.57198750600E+02 -0.32133816026E+03  0.14240410182E+04  0.14631818670E+04  0.80488782036E+02 0.  0.
         24    2    4    4    0    0  0.16330815614E+03  0.27167626672E+02 -0.56504823271E+02  0.19160694113E+03  0.78184340102E+02 0.  0.
         13    1    3    3    0    0 -0.12536059431E+02 -0.35980541786E+01  0.22980185964E+02  0.26423242172E+02  0.00000000000E+00 0. -1.
        -13    1    3    3    0    0 -0.93573346104E+02  0.29776858777E+03  0.40108591520E+03  0.50822437401E+03  0.00000000000E+00 0.  1.
          2    1    6    6  502    0  0.13514719416E+03  0.40120225951E+02 -0.17916064018E+02  0.14211045693E+03  0.00000000000E+00 0. -1.
          1    1    5    5  503    0 -0.36151181957E+02 -0.25232822824E+03  0.12306256842E+04  0.12567481917E+04  0.00000000000E+00 0. -1.
         -2    1    5    5    0  503 -0.21047568643E+02 -0.69009932028E+02  0.19341533397E+03  0.20643367526E+03  0.00000000000E+00 0.  1.
         -1    1    6    6    0  502  0.28160961980E+02 -0.12952599279E+02 -0.38588759253E+02  0.49496484202E+02  0.00000000000E+00 0.  1.
<mgrwt>
<rscale>  0 0.12584884E+04</rscale>
<asrwt>0</asrwt>
<pdfrwt beam="1">  1        2 0.30623373E+00 0.12584884E+04</pdfrwt>
<pdfrwt beam="2">  1       -2 0.30602627E-01 0.12584884E+04</pdfrwt>
<totfact> 0.65741569E+01</totfact>
</mgrwt>
</event>
<event>
12    1  0.1472088E-007  0.9559544E+03  0.7818608E-02  0.9358218E-01
         -2   -1    0    0    0  501 -0.00000000000E+00  0.00000000000E+00  0.20042187410E+03  0.20042187410E+03  0.00000000000E+00 0.  1.
          2   -1    0    0  501    0  0.00000000000E+00 -0.00000000000E+00 -0.11399064912E+04  0.11399064912E+04  0.00000000000E+00 0. -1.
         23    2    1    2    0    0  0.12180596794E+02  0.48460292189E+02 -0.15581759616E+02  0.10290131397E+03  0.88595272598E+02 0.  0.
        254    2    1    2    0    0 -0.12180596794E+02 -0.48460292189E+02 -0.92390285744E+03  0.12374270513E+04  0.82166443907E+03 0.  0.
        -24    2    4    4    0    0 -0.19487345338E+03 -0.28416231969E+03 -0.84882245306E+03  0.91953240358E+03  0.79475767743E+02 0.  0.
         24    2    4    4    0    0  0.18269285659E+03  0.23570202750E+03 -0.75080404379E+02  0.31789464771E+03  0.80546969551E+02 0.  0.
         11    1    3    3    0    0 -0.26754623270E+02  0.40973461345E+02  0.16769869959E+02  0.51728743841E+02  0.00000000000E+00 0.  1.
        -11    1    3    3    0    0  0.38935220064E+02  0.74868308440E+01 -0.32351629575E+02  0.51172570129E+02  0.00000000000E+00 0. -1.
          4    1    6    6  502    0  0.17175616399E+03  0.23782638652E+03 -0.60484957734E+02  0.29953296998E+03  0.00000000000E+00 0. -1.
          3    1    5    5  503    0 -0.16537359822E+03 -0.27515422648E+03 -0.79700630374E+03  0.85923065794E+03  0.00000000000E+00 0. -1.
         -4    1    5    5    0  503 -0.29499855156E+02 -0.90080932060E+01 -0.51816149320E+02  0.60301745645E+02  0.00000000000E+00 0.  1.
         -3    1    6    6    0  502  0.10936692600E+02 -0.21243590186E+01 -0.14595446645E+02  0.18361677729E+02  0.00000000000E+00 0.  1.
<mgrwt>
<rscale>  0 0.95595438E+03</rscale>
<asrwt>0</asrwt>
<pdfrwt beam="1">  1        2 0.17537023E+00 0.95595438E+03</pdfrwt>
<pdfrwt beam="2">  1       -2 0.30834134E-01 0.95595438E+03</pdfrwt>
<totfact> 0.20036960E+02</totfact>
</mgrwt>
</event>
<event>
12    1  0.1472088E-007  0.2420019E+04  0.7818608E-02  0.8432047E-01
         -2   -1    0    0    0  501 -0.00000000000E+00  0.00000000000E+00  0.11906758716E+04  0.11906758716E+04  0.00000000000E+00 0.  1.
          2   -1    0    0  501    0  0.00000000000E+00 -0.00000000000E+00 -0.12296569332E+04  0.12296569332E+04  0.00000000000E+00 0. -1.
         23    2    1    2    0    0 -0.76696168815E+03 -0.28217458506E+03  0.63170411963E+03  0.10371246257E+04  0.93405925636E+02 0.  0.
        254    2    1    2    0    0  0.76696168815E+03  0.28217458506E+03 -0.67068518117E+03  0.13832081791E+04  0.89196049626E+03 0.  0.
        -24    2    4    4    0    0  0.16910648707E+03  0.52112452188E+03 -0.38882871381E+03  0.67583499688E+03  0.73467020144E+02 0.  0.
         24    2    4    4    0    0  0.59785520108E+03 -0.23894993682E+03 -0.28185646736E+03  0.70737318220E+03  0.80036472539E+02 0.  0.
         13    1    3    3    0    0 -0.48015867178E+03 -0.13703020112E+03  0.41725964984E+03  0.65071901884E+03  0.00000000000E+00 0.  1.
        -13    1    3    3    0    0 -0.28680301637E+03 -0.14514438394E+03  0.21444446979E+03  0.38640560686E+03  0.00000000000E+00 0. -1.
          2    1    6    6  502    0  0.54251288991E+03 -0.19772336967E+03 -0.26969707549E+03  0.63729999149E+03  0.00000000000E+00 0. -1.
          1    1    5    5  503    0  0.95103638044E+02  0.22543460696E+03 -0.13676505956E+03  0.28030366658E+03  0.00000000000E+00 0. -1.
         -2    1    5    5    0  503  0.74002849024E+02  0.29568991492E+03 -0.25206365426E+03  0.39553133030E+03  0.00000000000E+00 0.  1.
         -1    1    6    6    0  502  0.55342311174E+02 -0.41226567155E+02 -0.12159391872E+02  0.70073190709E+02  0.00000000000E+00 0.  1.
<mgrwt>
<rscale>  0 0.24200189E+04</rscale>
<asrwt>0</asrwt>
<pdfrwt beam="1">  1        2 0.18917799E+00 0.24200189E+04</pdfrwt>
<pdfrwt beam="2">  1       -2 0.18318090E+00 0.24200189E+04</pdfrwt>
<totfact> 0.28148745E+00</totfact>
</mgrwt>
</event>
<event>
12    1  0.1472088E-007  0.2016750E+04  0.7818608E-02  0.8598830E-01
          1   -1    0    0  501    0  0.00000000000E+00  0.00000000000E+00  0.16311096148E+04  0.16311096148E+04  0.00000000000E+00 0. -1.
         -1   -1    0    0    0  501 -0.00000000000E+00 -0.00000000000E+00 -0.62339139694E+03  0.62339139694E+03  0.00000000000E+00 0.  1.
         23    2    1    2    0    0  0.74867522751E+02 -0.23632609710E+03 -0.46356090433E+03  0.53382455137E+03  0.92869637051E+02 0.  0.
        254    2    1    2    0    0 -0.74867522751E+02  0.23632609710E+03  0.14712791222E+04  0.17206764604E+04  0.85709395971E+03 0.  0.
        -24    2    4    4    0    0  0.18194827061E+03  0.26200574644E+03  0.13163868027E+03  0.35416807260E+03  0.79712590968E+02 0.  0.
         24    2    4    4    0    0 -0.25681579336E+03 -0.25679649333E+02  0.13396404419E+04  0.13665083878E+04  0.78069610916E+02 0.  0.
         11    1    3    3    0    0 -0.19991833078E+02 -0.20750809787E+02 -0.42027572631E+02  0.50956710627E+02  0.00000000000E+00 0. -1.
        -11    1    3    3    0    0  0.94859355829E+02 -0.21557528732E+03 -0.42153333170E+03  0.48286784074E+03  0.00000000000E+00 0.  1.
          4    1    6    6  502    0 -0.11879795524E+02 -0.83779771214E+01  0.23306355648E+02  0.27468277265E+02  0.00000000000E+00 0. -1.
          3    1    5    5  503    0  0.73562281707E+02  0.69551338314E+02  0.92696351524E+01  0.10165984501E+03  0.00000000000E+00 0. -1.
         -4    1    5    5    0  503  0.10838598890E+03  0.19245440812E+03  0.12236904512E+03  0.25250822759E+03  0.00000000000E+00 0.  1.
         -1    1    6    6    0  502 -0.24493599784E+03 -0.17301672212E+02  0.13163340863E+04  0.13390401105E+04  0.00000000000E+00 0.  1.
<mgrwt>
<rscale>  0 0.20167496E+04</rscale>
<asrwt>0</asrwt>
<pdfrwt beam="1">  1        1 0.25093994E+00 0.20167496E+04</pdfrwt>
<pdfrwt beam="2">  1       -1 0.95906369E-01 0.20167496E+04</pdfrwt>
<totfact> 0.51571653E+00</totfact>
</mgrwt>
</event>
<event>
12    1  0.1472088E-007  0.1677370E+04  0.7818608E-02  0.8774377E-01
          1   -1    0    0  501    0  0.00000000000E+00  0.00000000000E+00  0.96331267050E+03  0.96331267050E+03  0.00000000000E+00 0. -1.
         -1   -1    0    0    0  501 -0.00000000000E+00 -0.00000000000E+00 -0.73018120710E+03  0.73018120710E+03  0.00000000000E+00 0.  1.
         23    2    1    2    0    0 -0.48560200494E+03  0.13144283267E+03 -0.23174898209E+03  0.56144253505E+03  0.91780193986E+02 0.  0.
        254    2    1    2    0    0  0.48560200494E+03 -0.13144283267E+03  0.46488044549E+03  0.11320513426E+04  0.90129900039E+03 0.  0.
        -24    2    4    4    0    0  0.52001589050E+03 -0.34298093891E+03  0.15918722733E+02  0.62819026656E+03  0.79480528705E+02 0.  0.
         24    2    4    4    0    0 -0.34413885565E+02  0.21153810623E+03  0.44896172276E+03  0.50386107599E+03  0.79854051145E+02 0.  0.
         11    1    3    3    0    0 -0.43784977272E+03  0.12963127454E+03 -0.17953533731E+03  0.49066243809E+03  0.00000000000E+00 0.  1.
        -11    1    3    3    0    0 -0.47752232216E+02  0.18115581279E+01 -0.52213644783E+02  0.70780096962E+02  0.00000000000E+00 0. -1.
          4    1    6    6  502    0  0.46318426576E+01  0.52277020320E+01  0.72223521872E+02  0.72560457183E+02  0.00000000000E+00 0. -1.
          1    1    5    5  503    0  0.35264456185E+03 -0.18899916571E+03  0.21725967649E+02  0.40068801992E+03  0.00000000000E+00 0. -1.
         -2    1    5    5    0  503  0.16737132866E+03 -0.15398177320E+03 -0.58072449168E+01  0.22750224664E+03  0.00000000000E+00 0.  1.
         -3    1    6    6    0  502 -0.39045728223E+02  0.20631040420E+03  0.37673820089E+03  0.43130061881E+03  0.00000000000E+00 0.  1.
<mgrwt>
<rscale>  0 0.16773703E+04</rscale>
<asrwt>0</asrwt>
<pdfrwt beam="1">  1        1 0.14820195E+00 0.16773703E+04</pdfrwt>
<pdfrwt beam="2">  1       -1 0.11233557E+00 0.16773703E+04</pdfrwt>
<totfact> 0.11198123E+01</totfact>
</mgrwt>
</event>
<event>
12    1  0.1472088E-007  0.2210775E+04  0.7818608E-02  0.8513957E-01
          2   -1    0    0  501    0  0.00000000000E+00  0.00000000000E+00  0.32168988807E+04  0.32168988807E+04  0.00000000000E+00 0. -1.
         -2   -1    0    0    0  501 -0.00000000000E+00 -0.00000000000E+00 -0.37983215003E+03  0.37983215003E+03  0.00000000000E+00 0.  1.
         23    2    1    2    0    0  0.37102248018E+03 -0.83711594095E+03  0.10082011757E+04  0.13649370837E+04  0.90348505681E+02 0.  0.
        254    2    1    2    0    0 -0.37102248018E+03  0.83711594095E+03  0.18288655549E+04  0.22317939469E+04  0.89315968575E+03 0.  0.
        -24    2    4    4    0    0 -0.23195321483E+03  0.89357737616E+03  0.91475525109E+03  0.13020205144E+04  0.78723753684E+02 0.  0.
         24    2    4    4    0    0 -0.13906926535E+03 -0.56461435211E+02  0.91411030383E+03  0.92977343257E+03  0.79704668096E+02 0.  0.
         13    1    3    3    0    0  0.19702575848E+03 -0.39298345969E+03  0.42433601612E+03  0.61099607500E+03  0.00000000000E+00 0.  1.
        -13    1    3    3    0    0  0.17399672170E+03 -0.44413248126E+03  0.58386515959E+03  0.75394100874E+03  0.00000000000E+00 0. -1.
          2    1    6    6  502    0  0.58049976148E+01 -0.19567567451E+02  0.11612460302E+03  0.11790466963E+03  0.00000000000E+00 0. -1.
          1    1    5    5  503    0 -0.16477741521E+02  0.58355034331E+02  0.35292034264E+02  0.70159487454E+02  0.00000000000E+00 0. -1.
         -2    1    5    5    0  503 -0.21547547331E+03  0.83522234183E+03  0.87946321683E+03  0.12318610269E+04  0.00000000000E+00 0.  1.
         -1    1    6    6    0  502 -0.14487426296E+03 -0.36893867760E+02  0.79798570080E+03  0.81186876294E+03  0.00000000000E+00 0.  1.
<mgrwt>
<rscale>  0 0.22107751E+04</rscale>
<asrwt>0</asrwt>
<pdfrwt beam="1">  1        2 0.49490750E+00 0.22107751E+04</pdfrwt>
<pdfrwt beam="2">  1       -2 0.58435718E-01 0.22107751E+04</pdfrwt>
<totfact> 0.31678729E+00</totfact>
</mgrwt>
</event>
<event>
12    1  0.1472088E-007  0.2769197E+04  0.7818608E-02  0.8312896E-01
         -2   -1    0    0    0  501 -0.00000000000E+00  0.00000000000E+00  0.48544871234E+03  0.48544871234E+03  0.00000000000E+00 0.  1.
          2   -1    0    0  501    0  0.00000000000E+00 -0.00000000000E+00 -0.39491574709E+04  0.39491574709E+04  0.00000000000E+00 0. -1.
         23    2    1    2    0    0 -0.38350902383E+03 -0.36507425706E+03 -0.33475877955E+04  0.33904860540E+04  0.93237593414E+02 0.  0.
        254    2    1    2    0    0  0.38350902383E+03  0.36507425706E+03 -0.11612096306E+03  0.10441201293E+04  0.89238129846E+03 0.  0.
        -24    2    4    4    0    0 -0.24590076658E+03 -0.31720170937E+02 -0.13987467368E+03  0.29567957978E+03  0.79925798800E+02 0.  0.
         24    2    4    4    0    0  0.62940979041E+03  0.39679442799E+03  0.23753710624E+02  0.74844054952E+03  0.77437168411E+02 0.  0.
         13    1    3    3    0    0 -0.21289228321E+03 -0.24171653488E+03 -0.17924174165E+04  0.18211288264E+04  0.00000000000E+00 0.  1.
        -13    1    3    3    0    0 -0.17061674062E+03 -0.12335772217E+03 -0.15551703791E+04  0.15693572276E+04  0.00000000000E+00 0. -1.
          2    1    6    6  502    0  0.58834524514E+03  0.35718244086E+03  0.47293875669E+01  0.68829629567E+03  0.00000000000E+00 0. -1.
          3    1    5    5  503    0 -0.16537518761E+03 -0.12211673532E+01 -0.53755759648E+02  0.17389688215E+03  0.00000000000E+00 0. -1.
         -4    1    5    5    0  503 -0.80525578976E+02 -0.30499003584E+02 -0.86118914037E+02  0.12178269764E+03  0.00000000000E+00 0.  1.
         -1    1    6    6    0  502  0.41064545274E+02  0.39611987132E+02  0.19024323057E+02  0.60144253848E+02  0.00000000000E+00 0.  1.
<mgrwt>
<rscale>  0 0.27691973E+04</rscale>
<asrwt>0</asrwt>
<pdfrwt beam="1">  1        2 0.60756267E+00 0.27691973E+04</pdfrwt>
<pdfrwt beam="2">  1       -2 0.74684420E-01 0.27691973E+04</pdfrwt>
<totfact> 0.52893107E-01</totfact>
</mgrwt>
</event>
<event>
12    1  0.1472088E-007  0.1347581E+04  0.7818608E-02  0.8992662E-01
          2   -1    0    0  501    0  0.00000000000E+00  0.00000000000E+00  0.67414105147E+03  0.67414105147E+03  0.00000000000E+00 0. -1.
         -2   -1    0    0    0  501 -0.00000000000E+00 -0.00000000000E+00 -0.67343968361E+03  0.67343968361E+03  0.00000000000E+00 0.  1.
         23    2    1    2    0    0  0.21168487178E+03  0.27698868641E+03 -0.11798876000E+03  0.37836667055E+03  0.87788225652E+02 0.  0.
        254    2    1    2    0    0 -0.21168487178E+03 -0.27698868641E+03  0.11869012786E+03  0.96921406453E+03  0.89652403152E+03 0.  0.
        -24    2    4    4    0    0  0.24050689168E+03  0.18031608543E+03  0.67662122067E+02  0.31838696107E+03  0.80216199132E+02 0.  0.
         24    2    4    4    0    0 -0.45219176346E+03 -0.45730477184E+03  0.51028005797E+02  0.65082710347E+03  0.85831322651E+02 0.  0.
         11    1    3    3    0    0  0.62536480984E+02  0.10896096954E+03 -0.22913615599E+01  0.12565251560E+03  0.00000000000E+00 0.  1.
        -11    1    3    3    0    0  0.14914839079E+03  0.16802771686E+03 -0.11569739844E+03  0.25271415496E+03  0.00000000000E+00 0. -1.
          4    1    6    6  502    0 -0.87949290363E+02 -0.60755814557E+02 -0.16512781188E+02  0.10816200174E+03  0.00000000000E+00 0. -1.
          3    1    5    5  503    0 -0.61033016963E+01  0.83914544186E+01  0.72760265349E+00  0.10401740454E+02  0.00000000000E+00 0. -1.
         -4    1    5    5    0  503  0.24661019338E+03  0.17192463101E+03  0.66934519413E+02  0.30798522061E+03  0.00000000000E+00 0.  1.
         -3    1    6    6    0  502 -0.36424247309E+03 -0.39654895728E+03  0.67540786985E+02  0.54266510173E+03  0.00000000000E+00 0.  1.
<mgrwt>
<rscale>  0 0.13475806E+04</rscale>
<asrwt>0</asrwt>
<pdfrwt beam="1">  1        2 0.10371401E+00 0.13475806E+04</pdfrwt>
<pdfrwt beam="2">  1       -2 0.10360611E+00 0.13475806E+04</pdfrwt>
<totfact> 0.31865345E+01</totfact>
</mgrwt>
</event>
<event>
12    1  0.1720047E-007  0.1671507E+04  0.7818608E-02  0.8777784E-01
          1   -1    0    0  501    0  0.00000000000E+00  0.00000000000E+00  0.36216021239E+04  0.36216021239E+04  0.00000000000E+00 0. -1.
         -1   -1    0    0    0  501 -0.00000000000E+00 -0.00000000000E+00 -0.19286600690E+03  0.19286600690E+03  0.00000000000E+00 0.  1.
         23    2    1    2    0    0 -0.19828884762E+02  0.29097324855E+03  0.12165978848E+03  0.32929443441E+03  0.92601859372E+02 0.  0.
        254    2    1    2    0    0  0.19828884762E+02 -0.29097324855E+03  0.33070763285E+04  0.34851736964E+04  0.10604825483E+04 0.  0.
        -24    2    4    4    0    0  0.47826910998E+03  0.19376845440E+02  0.10037597176E+04  0.11149124453E+04  0.79871060448E+02 0.  0.
         24    2    4    4    0    0 -0.45844022521E+03 -0.31035009399E+03  0.23033166109E+04  0.23702612511E+04  0.79914750276E+02 0.  0.
         11    1    3    3    0    0 -0.14480642051E+02  0.29732806165E+03  0.11792226558E+03  0.32018639252E+03  0.00000000000E+00 0.  1.
        -11    1    3    3    0    0 -0.53482427111E+01 -0.63548130987E+01  0.37375228932E+01  0.91080418858E+01  0.00000000000E+00 0. -1.
          2    1    6    6  502    0 -0.43099634876E+03 -0.28813004589E+03  0.20521135926E+04  0.21165885224E+04  0.00000000000E+00 0. -1.
          1    1    5    5  503    0  0.45515681723E+03  0.36398287276E+01  0.96659477365E+03  0.10684036845E+04  0.00000000000E+00 0. -1.
         -2    1    5    5    0  503  0.23112292741E+02  0.15737016712E+02  0.37164943951E+02  0.46508760784E+02  0.00000000000E+00 0.  1.
         -1    1    6    6    0  502 -0.27443876449E+02 -0.22220048102E+02  0.25120301829E+03  0.25367272871E+03  0.00000000000E+00 0.  1.
<mgrwt>
<rscale>  0 0.16715070E+04</rscale>
<asrwt>0</asrwt>
<pdfrwt beam="1">  1        1 0.55716951E+00 0.16715070E+04</pdfrwt>
<pdfrwt beam="2">  1       -1 0.29671696E-01 0.16715070E+04</pdfrwt>
<totfact> 0.20025473E+00</totfact>
</mgrwt>
</event>
<event>
12    1  0.1472088E-007  0.1423911E+04  0.7818608E-02  0.8936690E-01
         -1   -1    0    0    0  501 -0.00000000000E+00  0.00000000000E+00  0.38498475280E+03  0.38498475280E+03  0.00000000000E+00 0.  1.
          1   -1    0    0  501    0  0.00000000000E+00 -0.00000000000E+00 -0.13166259084E+04  0.13166259084E+04  0.00000000000E+00 0. -1.
         23    2    1    2    0    0 -0.33575512641E+03 -0.70817306286E+02 -0.57175979690E+03  0.67287649823E+03  0.90038440342E+02 0.  0.
        254    2    1    2    0    0  0.33575512641E+03  0.70817306286E+02 -0.35988135875E+03  0.10287341630E+04  0.90057358944E+03 0.  0.
        -24    2    4    4    0    0 -0.19720973774E+03 -0.25682712928E+03 -0.13664507477E+03  0.35974100561E+03  0.76745421160E+02 0.  0.
         24    2    4    4    0    0  0.53296486415E+03  0.32764443557E+03 -0.22323628398E+03  0.66899315740E+03  0.79466870976E+02 0.  0.
         11    1    3    3    0    0 -0.30788330928E+03 -0.88538557034E+02 -0.53384940547E+03  0.62259649529E+03  0.00000000000E+00 0. -1.
        -11    1    3    3    0    0 -0.27871817128E+02  0.17721250748E+02 -0.37910391425E+02  0.50280002944E+02  0.00000000000E+00 0.  1.
          2    1    6    6  502    0  0.39006085056E+03  0.27238412682E+03 -0.18951465662E+03  0.51210973898E+03  0.00000000000E+00 0. -1.
          1    1    5    5  503    0 -0.17684506895E+03 -0.22852966595E+03 -0.92330264889E+02  0.30335600282E+03  0.00000000000E+00 0. -1.
         -4    1    5    5    0  503 -0.20364668787E+02 -0.28297463328E+02 -0.44314809876E+02  0.56385002793E+02  0.00000000000E+00 0.  1.
         -1    1    6    6    0  502  0.14290401359E+03  0.55260308745E+02 -0.33721627361E+02  0.15688341842E+03  0.00000000000E+00 0.  1.
<mgrwt>
<rscale>  0 0.14239114E+04</rscale>
<asrwt>0</asrwt>
<pdfrwt beam="1">  1        1 0.20255783E+00 0.14239114E+04</pdfrwt>
<pdfrwt beam="2">  1       -1 0.59228425E-01 0.14239114E+04</pdfrwt>
<totfact> 0.24750939E+01</totfact>
</mgrwt>
</event>
<event>
12    1  0.1472088E-007  0.1473479E+04  0.7818608E-02  0.8902283E-01
         -1   -1    0    0    0  501 -0.00000000000E+00  0.00000000000E+00  0.45567980059E+03  0.45567980059E+03  0.00000000000E+00 0.  1.
          1   -1    0    0  501    0  0.00000000000E+00 -0.00000000000E+00 -0.11911553565E+04  0.11911553565E+04  0.00000000000E+00 0. -1.
         23    2    1    2    0    0  0.37658094869E+03  0.40646495221E+02 -0.48957866927E+03  0.62574965429E+03  0.91706095477E+02 0.  0.
        254    2    1    2    0    0 -0.37658094869E+03 -0.40646495221E+02 -0.24589688666E+03  0.10210855028E+04  0.91579745397E+03 0.  0.
        -24    2    4    4    0    0 -0.51156054954E+03 -0.21037437823E+03  0.13620467173E+03  0.57438018354E+03  0.73547996407E+02 0.  0.
         24    2    4    4    0    0  0.13497960085E+03  0.16972788301E+03 -0.38210155839E+03  0.44670531928E+03  0.80727903661E+02 0.  0.
         13    1    3    3    0    0  0.23389338023E+03 -0.14691246637E+02 -0.26225713279E+03  0.35171117375E+03  0.00000000000E+00 0.  1.
        -13    1    3    3    0    0  0.14268756846E+03  0.55337741858E+02 -0.22732153648E+03  0.27403848054E+03  0.00000000000E+00 0. -1.
          4    1    6    6  502    0  0.10776395856E+03  0.83096400367E+02 -0.18467504961E+03  0.22939694084E+03  0.00000000000E+00 0. -1.
          1    1    5    5  503    0 -0.31981741499E+03 -0.10615215803E+03  0.54517713985E+02  0.34135559278E+03  0.00000000000E+00 0. -1.
         -2    1    5    5    0  503 -0.19174313455E+03 -0.10422222020E+03  0.81686957746E+02  0.23302459076E+03  0.00000000000E+00 0.  1.
         -3    1    6    6    0  502  0.27215642295E+02  0.86631482643E+02 -0.19742650878E+03  0.21730837843E+03  0.00000000000E+00 0.  1.
<mgrwt>
<rscale>  0 0.14734795E+04</rscale>
<asrwt>0</asrwt>
<pdfrwt beam="1">  1        1 0.18325467E+00 0.14734795E+04</pdfrwt>
<pdfrwt beam="2">  1       -1 0.70104584E-01 0.14734795E+04</pdfrwt>
<totfact> 0.21628898E+01</totfact>
</mgrwt>
</event>
<event>
12    1  0.1472088E-007  0.1261606E+04  0.7818608E-02  0.9060578E-01
          2   -1    0    0  501    0  0.00000000000E+00  0.00000000000E+00  0.62234673886E+03  0.62234673886E+03  0.00000000000E+00 0. -1.
         -2   -1    0    0    0  501 -0.00000000000E+00 -0.00000000000E+00 -0.63937430930E+03  0.63937430930E+03  0.00000000000E+00 0.  1.
         23    2    1    2    0    0  0.26153233588E+03 -0.11118379512E+03 -0.11540222424E+03  0.31972097841E+03  0.90237639972E+02 0.  0.
        254    2    1    2    0    0 -0.26153233588E+03  0.11118379512E+03  0.98374653800E+02  0.94200006976E+03  0.89270687233E+03 0.  0.
        -24    2    4    4    0    0 -0.45078714047E+03 -0.48331196853E+02  0.35238880566E+03  0.57937377225E+03  0.77143677757E+02 0.  0.
         24    2    4    4    0    0  0.18925480459E+03  0.15951499197E+03 -0.25401415186E+03  0.36262629750E+03  0.75579286633E+02 0.  0.
         13    1    3    3    0    0  0.43047292027E+02 -0.53809855999E+02 -0.48025704300E+02  0.83994274966E+02  0.00000000000E+00 0.  1.
        -13    1    3    3    0    0  0.21848504385E+03 -0.57373939123E+02 -0.67376519937E+02  0.23572670344E+03  0.00000000000E+00 0. -1.
          2    1    6    6  502    0  0.19420068828E+03  0.14398849430E+03 -0.23060255522E+03  0.33410197888E+03  0.00000000000E+00 0. -1.
          3    1    5    5  503    0 -0.41372738703E+03 -0.57171573363E+02  0.34217630168E+03  0.53992921852E+03  0.00000000000E+00 0. -1.
         -4    1    5    5    0  503 -0.37059753437E+02  0.88403765100E+01  0.10212503984E+02  0.39444553734E+02  0.00000000000E+00 0.  1.
         -1    1    6    6    0  502 -0.49458836850E+01  0.15526497673E+02 -0.23411596645E+02  0.28524318623E+02  0.00000000000E+00 0.  1.
<mgrwt>
<rscale>  0 0.12616061E+04</rscale>
<asrwt>0</asrwt>
<pdfrwt beam="1">  1        2 0.95745653E-01 0.12616061E+04</pdfrwt>
<pdfrwt beam="2">  1       -2 0.98365278E-01 0.12616061E+04</pdfrwt>
<totfact> 0.40046896E+01</totfact>
</mgrwt>
</event>
<event>
12    1  0.1472088E-007  0.1908318E+04  0.7818608E-02  0.8650727E-01
         -2   -1    0    0    0  501 -0.00000000000E+00  0.00000000000E+00  0.59391452393E+03  0.59391452393E+03  0.00000000000E+00 0.  1.
          2   -1    0    0  501    0  0.00000000000E+00 -0.00000000000E+00 -0.15329127492E+04  0.15329127492E+04  0.00000000000E+00 0. -1.
         23    2    1    2    0    0  0.41815719441E+03  0.41279945902E+03  0.13822307406E+03  0.60787104990E+03  0.71713056726E+02 0.  0.
        254    2    1    2    0    0 -0.41815719441E+03 -0.41279945902E+03 -0.10772212993E+04  0.15189562232E+04  0.89530075825E+03 0.  0.
        -24    2    4    4    0    0  0.51310043344E+02  0.19386708310E+03 -0.53217011020E+03  0.57415712793E+03  0.78957044707E+02 0.  0.
         24    2    4    4    0    0 -0.46946723775E+03 -0.60666654212E+03 -0.54505118910E+03  0.94479909526E+03  0.84384542575E+02 0.  0.
         11    1    3    3    0    0  0.41991692888E+03  0.40410149360E+03  0.13372471639E+03  0.59792185448E+03  0.00000000000E+00 0.  1.
        -11    1    3    3    0    0 -0.17597344728E+01  0.86979654169E+01  0.44983576692E+01  0.99491954212E+01  0.00000000000E+00 0. -1.
          4    1    6    6  502    0 -0.21333329172E+03 -0.34360698409E+03 -0.29415008955E+03  0.50010111783E+03  0.00000000000E+00 0. -1.
          1    1    5    5  503    0  0.21333587688E+02  0.27512212578E+02 -0.36426429546E+02  0.50387781992E+02  0.00000000000E+00 0. -1.
         -2    1    5    5    0  503  0.29976455656E+02  0.16635487052E+03 -0.49574368065E+03  0.52376934594E+03  0.00000000000E+00 0.  1.
         -3    1    6    6    0  502 -0.25613394603E+03 -0.26305955803E+03 -0.25090109955E+03  0.44469797744E+03  0.00000000000E+00 0.  1.
<mgrwt>
<rscale>  0 0.19083177E+04</rscale>
<asrwt>0</asrwt>
<pdfrwt beam="1">  1        2 0.23583273E+00 0.19083177E+04</pdfrwt>
<pdfrwt beam="2">  1       -2 0.91371465E-01 0.19083177E+04</pdfrwt>
<totfact> 0.11616938E+01</totfact>
</mgrwt>
</event>
<event>
12    1  0.1472088E-007  0.1873015E+04  0.7818608E-02  0.8668407E-01
          2   -1    0    0  501    0  0.00000000000E+00  0.00000000000E+00  0.37020602314E+04  0.37020602314E+04  0.00000000000E+00 0. -1.
         -2   -1    0    0    0  501 -0.00000000000E+00 -0.00000000000E+00 -0.23690750338E+03  0.23690750338E+03  0.00000000000E+00 0.  1.
         23    2    1    2    0    0  0.23083669422E+03  0.29820283026E+03  0.59078063477E+02  0.39263438740E+03  0.91983896455E+02 0.  0.
        254    2    1    2    0    0 -0.23083669422E+03 -0.29820283026E+03  0.34060746646E+04  0.35463333474E+04  0.91264729384E+03 0.  0.
        -24    2    4    4    0    0 -0.36329626795E+03 -0.40357291757E+03  0.10679289677E+04  0.12007045492E+04  0.79773781549E+02 0.  0.
         24    2    4    4    0    0  0.13245957373E+03  0.10537008730E+03  0.23381456968E+04  0.23456287982E+04  0.80004783839E+02 0.  0.
         13    1    3    3    0    0  0.47613581476E+02  0.83923450878E+02 -0.22614559653E+02  0.99104071846E+02  0.00000000000E+00 0. -1.
        -13    1    3    3    0    0  0.18322311274E+03  0.21427937939E+03  0.81692623131E+02  0.29353031555E+03  0.00000000000E+00 0.  1.
          2    1    6    6  502    0  0.81768024916E+00 -0.27676207827E+01  0.26196671535E+01  0.38975610043E+01  0.00000000000E+00 0. -1.
          1    1    5    5  503    0 -0.74069902751E+02 -0.12960317067E+03  0.32706928134E+03  0.35952419549E+03  0.00000000000E+00 0. -1.
         -2    1    5    5    0  503 -0.28922636520E+03 -0.27396974690E+03  0.74085968640E+03  0.84118035372E+03  0.00000000000E+00 0.  1.
         -1    1    6    6    0  502  0.13164189348E+03  0.10813770809E+03  0.23355260297E+04  0.23417312372E+04  0.00000000000E+00 0.  1.
<mgrwt>
<rscale>  0 0.18730145E+04</rscale>
<asrwt>0</asrwt>
<pdfrwt beam="1">  1        2 0.56954769E+00 0.18730145E+04</pdfrwt>
<pdfrwt beam="2">  1       -2 0.36447311E-01 0.18730145E+04</pdfrwt>
<totfact> 0.39050287E+00</totfact>
</mgrwt>
</event>
<event>
12    1  0.1472088E-007  0.1578674E+04  0.7818608E-02  0.8833758E-01
          1   -1    0    0  501    0  0.00000000000E+00  0.00000000000E+00  0.45493165386E+03  0.45493165386E+03  0.00000000000E+00 0. -1.
         -1   -1    0    0    0  501 -0.00000000000E+00 -0.00000000000E+00 -0.13695525599E+04  0.13695525599E+04  0.00000000000E+00 0.  1.
         23    2    1    2    0    0 -0.46415698763E+03 -0.13846282759E+03 -0.53389513032E+03  0.72927993876E+03  0.11041537532E+03 0.  0.
        254    2    1    2    0    0  0.46415698763E+03  0.13846282759E+03 -0.38072577572E+03  0.10952042750E+04  0.90548695402E+03 0.  0.
        -24    2    4    4    0    0  0.24987744656E+03  0.51558472175E+03 -0.28228788898E+03  0.64353298005E+03  0.78625063086E+02 0.  0.
         24    2    4    4    0    0  0.21427954108E+03 -0.37712189417E+03 -0.98437886747E+02  0.45167129495E+03  0.78614860892E+02 0.  0.
         13    1    3    3    0    0 -0.46190838894E+03 -0.12290763191E+03 -0.49889967050E+03  0.69091716362E+03  0.00000000000E+00 0.  1.
        -13    1    3    3    0    0 -0.22485986905E+01 -0.15555195674E+02 -0.34995459820E+02  0.38362775141E+02  0.00000000000E+00 0. -1.
          4    1    6    6  502    0  0.21504513472E+03 -0.34968716840E+03 -0.79028632800E+02  0.41805627673E+03  0.00000000000E+00 0. -1.
          3    1    5    5  503    0  0.13134665087E+03  0.35275504250E+03 -0.19653928884E+03  0.42463602622E+03  0.00000000000E+00 0. -1.
         -4    1    5    5    0  503  0.11853079568E+03  0.16282967926E+03 -0.85748600135E+02  0.21889695383E+03  0.00000000000E+00 0.  1.
         -3    1    6    6    0  502 -0.76559363983E+00 -0.27434725767E+02 -0.19409253947E+02  0.33615018225E+02  0.00000000000E+00 0.  1.
<mgrwt>
<rscale>  0 0.15786739E+04</rscale>
<asrwt>0</asrwt>
<pdfrwt beam="1">  1        1 0.69989486E-01 0.15786739E+04</pdfrwt>
<pdfrwt beam="2">  1       -1 0.21070039E+00 0.15786739E+04</pdfrwt>
<totfact> 0.61656011E+00</totfact>
</mgrwt>
</event>
<event>
12    1  0.1472088E-007  0.1895869E+04  0.7818608E-02  0.8656915E-01
         -1   -1    0    0    0  501 -0.00000000000E+00  0.00000000000E+00  0.56092630045E+03  0.56092630045E+03  0.00000000000E+00 0.  1.
          1   -1    0    0  501    0  0.00000000000E+00 -0.00000000000E+00 -0.16019575565E+04  0.16019575565E+04  0.00000000000E+00 0. -1.
         23    2    1    2    0    0  0.17908060060E+03 -0.58252931023E+03 -0.70706148597E+03  0.93784357294E+03  0.90577941973E+02 0.  0.
        254    2    1    2    0    0 -0.17908060060E+03  0.58252931023E+03 -0.33396977009E+03  0.12250402840E+04  0.10088496574E+04 0.  0.
        -24    2    4    4    0    0  0.95775411769E+02 -0.12808518270E+03  0.21506172413E+03  0.28239763468E+03  0.88983905079E+02 0.  0.
         24    2    4    4    0    0 -0.27485601237E+03  0.71061449293E+03 -0.54903149421E+03  0.94264264933E+03  0.81368283708E+02 0.  0.
         11    1    3    3    0    0  0.17348815803E+03 -0.43295527402E+03 -0.53919195044E+03  0.71293503890E+03  0.00000000000E+00 0. -1.
        -11    1    3    3    0    0  0.55924425685E+01 -0.14957403622E+03 -0.16786953554E+03  0.22490853404E+03  0.00000000000E+00 0.  1.
          2    1    6    6  502    0 -0.15358710216E+03  0.45305925596E+03 -0.30206292720E+03  0.56576823819E+03  0.00000000000E+00 0. -1.
          1    1    5    5  503    0  0.33276950110E+02 -0.11232568408E+03  0.12146745210E+03  0.16875650100E+03  0.00000000000E+00 0. -1.
         -2    1    5    5    0  503  0.62498461659E+02 -0.15759498618E+02  0.93594272032E+02  0.11364113368E+03  0.00000000000E+00 0.  1.
         -1    1    6    6    0  502 -0.12126891021E+03  0.25755523697E+03 -0.24696856701E+03  0.37687441113E+03  0.00000000000E+00 0.  1.
<mgrwt>
<rscale>  0 0.18958693E+04</rscale>
<asrwt>0</asrwt>
<pdfrwt beam="1">  1        1 0.24645500E+00 0.18958693E+04</pdfrwt>
<pdfrwt beam="2">  1       -1 0.86296356E-01 0.18958693E+04</pdfrwt>
<totfact> 0.68966528E+00</totfact>
</mgrwt>
</event>
<event>
12    1  0.1472088E-007  0.2168985E+04  0.7818608E-02  0.8531449E-01
         -2   -1    0    0    0  501 -0.00000000000E+00  0.00000000000E+00  0.82251452482E+03  0.82251452482E+03  0.00000000000E+00 0.  1.
          2   -1    0    0  501    0  0.00000000000E+00 -0.00000000000E+00 -0.14299129570E+04  0.14299129570E+04  0.00000000000E+00 0. -1.
         23    2    1    2    0    0 -0.45160202189E+03 -0.17502485925E+03 -0.10310443363E+04  0.11427205466E+04  0.90441897415E+02 0.  0.
        254    2    1    2    0    0  0.45160202189E+03  0.17502485925E+03  0.42364590410E+03  0.11097069352E+04  0.90409929897E+03 0.  0.
        -24    2    4    4    0    0  0.25609644214E+03 -0.26732987613E+03  0.48628584737E+03  0.61631903200E+03  0.79527187260E+02 0.  0.
         24    2    4    4    0    0  0.19550557975E+03  0.44235473537E+03 -0.62639943266E+02  0.49338790317E+03  0.74884690617E+02 0.  0.
         13    1    3    3    0    0 -0.31991677813E+03 -0.78555241132E+02 -0.69657990266E+03  0.77054606068E+03  0.00000000000E+00 0.  1.
        -13    1    3    3    0    0 -0.13168524376E+03 -0.96469618114E+02 -0.33446443361E+03  0.37217448595E+03  0.00000000000E+00 0. -1.
          2    1    6    6  502    0  0.12984865078E+03  0.32397224422E+03 -0.13211197103E+02  0.34927528235E+03  0.00000000000E+00 0. -1.
          3    1    5    5  503    0  0.14606381724E+03 -0.18461893466E+03  0.25404921577E+03  0.34635212397E+03  0.00000000000E+00 0. -1.
         -4    1    5    5    0  503  0.11003262490E+03 -0.82710941468E+02  0.23223663159E+03  0.26996690804E+03  0.00000000000E+00 0.  1.
         -1    1    6    6    0  502  0.65656928967E+02  0.11838249115E+03 -0.49428746163E+02  0.14411262082E+03  0.00000000000E+00 0.  1.
<mgrwt>
<rscale>  0 0.21689852E+04</rscale>
<asrwt>0</asrwt>
<pdfrwt beam="1">  1        2 0.21998661E+00 0.21689852E+04</pdfrwt>
<pdfrwt beam="2">  1       -2 0.12654070E+00 0.21689852E+04</pdfrwt>
<totfact> 0.59281913E+00</totfact>
</mgrwt>
</event>
<event>
12    1  0.1472088E-007  0.2499135E+04  0.7818608E-02  0.8403294E-01
         -1   -1    0    0    0  501 -0.00000000000E+00  0.00000000000E+00  0.11605132924E+04  0.11605132924E+04  0.00000000000E+00 0.  1.
          1   -1    0    0  501    0  0.00000000000E+00 -0.00000000000E+00 -0.13454558029E+04  0.13454558029E+04  0.00000000000E+00 0. -1.
         23    2    1    2    0    0 -0.99462875111E+03 -0.14720500853E+03 -0.49347413196E+03  0.11242908926E+04  0.97763107998E+02 0.  0.
        254    2    1    2    0    0  0.99462875111E+03  0.14720500853E+03  0.30853162149E+03  0.13816782026E+04  0.89603974635E+03 0.  0.
        -24    2    4    4    0    0  0.75558308540E+03 -0.30840037076E+03  0.25338016729E+03  0.85813772236E+03  0.78627309132E+02 0.  0.
         24    2    4    4    0    0  0.23904566572E+03  0.45560537929E+03  0.55151454199E+02  0.52354048025E+03  0.79585549113E+02 0.  0.
         13    1    3    3    0    0 -0.93800830831E+03 -0.11684438878E+03 -0.45153136063E+03  0.10475651614E+04  0.00000000000E+00 0. -1.
        -13    1    3    3    0    0 -0.56620442802E+02 -0.30360619754E+02 -0.41942771324E+02  0.76725731286E+02  0.00000000000E+00 0.  1.
          4    1    6    6  502    0  0.41172377020E+02  0.29453887351E+02  0.15965166550E+01  0.50648247502E+02  0.00000000000E+00 0. -1.
          3    1    5    5  503    0  0.19257029162E+03 -0.11556758607E+03  0.61638869875E+02  0.23289167964E+03  0.00000000000E+00 0. -1.
         -4    1    5    5    0  503  0.56301279378E+03 -0.19283278468E+03  0.19174129741E+03  0.62524604272E+03  0.00000000000E+00 0.  1.
         -3    1    6    6    0  502  0.19787328870E+03  0.42615149194E+03  0.53554937544E+02  0.47289223275E+03  0.00000000000E+00 0.  1.
<mgrwt>
<rscale>  0 0.24991353E+04</rscale>
<asrwt>0</asrwt>
<pdfrwt beam="1">  1        1 0.20699320E+00 0.24991353E+04</pdfrwt>
<pdfrwt beam="2">  1       -1 0.17854051E+00 0.24991353E+04</pdfrwt>
<totfact> 0.15904641E+00</totfact>
</mgrwt>
</event>
<event>
12    1  0.1472088E-007  0.1613479E+04  0.7818608E-02  0.8812310E-01
         -1   -1    0    0    0  501 -0.00000000000E+00  0.00000000000E+00  0.15394342068E+04  0.15394342068E+04  0.00000000000E+00 0.  1.
          1   -1    0    0  501    0  0.00000000000E+00 -0.00000000000E+00 -0.42277151270E+03  0.42277151270E+03  0.00000000000E+00 0. -1.
         23    2    1    2    0    0 -0.80721994722E+02  0.19890754042E+03 -0.23345664277E+03  0.32920523572E+03  0.88282688583E+02 0.  0.
        254    2    1    2    0    0  0.80721994722E+02 -0.19890754042E+03  0.13501193369E+04  0.16330004838E+04  0.89318984891E+03 0.  0.
        -24    2    4    4    0    0  0.26258515830E+03  0.25422748868E+03  0.85589427085E+03  0.93377194794E+03  0.76108255417E+02 0.  0.
         24    2    4    4    0    0 -0.18186316358E+03 -0.45313502909E+03  0.49422506604E+03  0.69922853585E+03  0.79098448726E+02 0.  0.
         11    1    3    3    0    0 -0.30195209170E+02  0.48924715038E+02 -0.14951519178E+02  0.59404766847E+02  0.00000000000E+00 0.  1.
        -11    1    3    3    0    0 -0.50526785553E+02  0.14998282538E+03 -0.21850512359E+03  0.26980046887E+03  0.00000000000E+00 0. -1.
          4    1    6    6  502    0 -0.13975982801E+03 -0.41468176995E+03  0.43563703289E+03  0.61747340370E+03  0.00000000000E+00 0. -1.
          3    1    5    5  503    0  0.79720138514E+02  0.12846919948E+03  0.33184174283E+03  0.36466227935E+03  0.00000000000E+00 0. -1.
         -4    1    5    5    0  503  0.18286501979E+03  0.12575828920E+03  0.52405252802E+03  0.56910966859E+03  0.00000000000E+00 0.  1.
         -3    1    6    6    0  502 -0.42103335568E+02 -0.38453259145E+02  0.58588033146E+02  0.81755132149E+02  0.00000000000E+00 0.  1.
<mgrwt>
<rscale>  0 0.16134794E+04</rscale>
<asrwt>0</asrwt>
<pdfrwt beam="1">  1        1 0.65041772E-01 0.16134794E+04</pdfrwt>
<pdfrwt beam="2">  1       -1 0.23683603E+00 0.16134794E+04</pdfrwt>
<totfact> 0.45421446E+00</totfact>
</mgrwt>
</event>
<event>
12    1  0.1472088E-007  0.3849520E+04  0.7818608E-02  0.8035611E-01
          2   -1    0    0  501    0  0.00000000000E+00  0.00000000000E+00  0.19971090315E+04  0.19971090315E+04  0.00000000000E+00 0. -1.
         -2   -1    0    0    0  501 -0.00000000000E+00 -0.00000000000E+00 -0.18550318063E+04  0.18550318063E+04  0.00000000000E+00 0.  1.
         23    2    1    2    0    0 -0.98365240369E+03  0.15307855719E+04  0.10265214062E+03  0.18246038116E+04  0.88119742454E+02 0.  0.
        254    2    1    2    0    0  0.98365240369E+03 -0.15307855719E+04  0.39425084646E+02  0.20275370262E+04  0.89357458389E+03 0.  0.
        -24    2    4    4    0    0  0.68625586058E+03 -0.12746604965E+04  0.38318158800E+03  0.14996214251E+04  0.79560052594E+02 0.  0.
         24    2    4    4    0    0  0.29739654312E+03 -0.25612507540E+03 -0.34375650335E+03  0.52791560104E+03  0.80508323299E+02 0.  0.
         13    1    3    3    0    0 -0.16326259910E+03  0.23076984733E+03  0.45413603540E+02  0.28630716737E+03  0.00000000000E+00 0. -1.
        -13    1    3    3    0    0 -0.82038980459E+03  0.13000157245E+04  0.57238537083E+02  0.15382966442E+04  0.00000000000E+00 0.  1.
          2    1    6    6  502    0  0.11981003910E+03 -0.68495624470E+02 -0.83998848992E+02  0.16156083273E+03  0.00000000000E+00 0. -1.
          3    1    5    5  503    0  0.36305835895E+03 -0.74637913106E+03  0.19917905398E+03  0.85356046935E+03  0.00000000000E+00 0. -1.
         -4    1    5    5    0  503  0.32319750162E+03 -0.52828136540E+03  0.18400253402E+03  0.64606095580E+03  0.00000000000E+00 0.  1.
         -1    1    6    6    0  502  0.17758650401E+03 -0.18762945093E+03 -0.25975765436E+03  0.36635476831E+03  0.00000000000E+00 0.  1.
<mgrwt>
<rscale>  0 0.38495199E+04</rscale>
<asrwt>0</asrwt>
<pdfrwt beam="1">  1        2 0.30724754E+00 0.38495199E+04</pdfrwt>
<pdfrwt beam="2">  1       -2 0.28538951E+00 0.38495199E+04</pdfrwt>
<totfact> 0.20908406E-01</totfact>
</mgrwt>
</event>
<event>
12    1  0.1472088E-007  0.2574885E+04  0.7818608E-02  0.8376783E-01
          1   -1    0    0  501    0  0.00000000000E+00  0.00000000000E+00  0.11050289507E+04  0.11050289507E+04  0.00000000000E+00 0. -1.
         -1   -1    0    0    0  501 -0.00000000000E+00 -0.00000000000E+00 -0.14999677518E+04  0.14999677518E+04  0.00000000000E+00 0.  1.
         23    2    1    2    0    0 -0.21344041128E+03 -0.94180538389E+03 -0.76810928472E+03  0.12374115525E+04  0.92958521472E+02 0.  0.
        254    2    1    2    0    0  0.21344041128E+03  0.94180538389E+03  0.37317048359E+03  0.13675851500E+04  0.89357637751E+03 0.  0.
        -24    2    4    4    0    0  0.55402141652E+03  0.57170729509E+03  0.16137186028E+03  0.81612711406E+03  0.78953326658E+02 0.  0.
         24    2    4    4    0    0 -0.34058100524E+03  0.37009808880E+03  0.21179862332E+03  0.55145803596E+03  0.79241984613E+02 0.  0.
         13    1    3    3    0    0 -0.19881080232E+03 -0.77826682639E+03 -0.67105428206E+03  0.10466799117E+04  0.00000000000E+00 0.  1.
        -13    1    3    3    0    0 -0.14629608968E+02 -0.16353855749E+03 -0.97055002664E+02  0.19073164076E+03  0.00000000000E+00 0. -1.
          2    1    6    6  502    0 -0.65950447345E+02  0.10885758616E+03  0.79152097733E+02  0.14988158708E+03  0.00000000000E+00 0. -1.
          1    1    5    5  503    0  0.17191143434E+03  0.22788837999E+03  0.43382320644E+02  0.28873635160E+03  0.00000000000E+00 0. -1.
         -2    1    5    5    0  503  0.38210998219E+03  0.34381891510E+03  0.11798953964E+03  0.52739076246E+03  0.00000000000E+00 0.  1.
         -1    1    6    6    0  502 -0.27463055789E+03  0.26124050264E+03  0.13264652558E+03  0.40157644888E+03  0.00000000000E+00 0.  1.
<mgrwt>
<rscale>  0 0.25748847E+04</rscale>
<asrwt>0</asrwt>
<pdfrwt beam="1">  1        1 0.17000445E+00 0.25748847E+04</pdfrwt>
<pdfrwt beam="2">  1       -1 0.23076427E+00 0.25748847E+04</pdfrwt>
<totfact> 0.10349840E+00</totfact>
</mgrwt>
</event>
<event>
12    1  0.1472088E-007  0.2627445E+04  0.7818608E-02  0.8358938E-01
          2   -1    0    0  501    0  0.00000000000E+00  0.00000000000E+00  0.22552008747E+04  0.22552008747E+04  0.00000000000E+00 0. -1.
         -2   -1    0    0    0  501 -0.00000000000E+00 -0.00000000000E+00 -0.76528320413E+03  0.76528320413E+03  0.00000000000E+00 0.  1.
         23    2    1    2    0    0 -0.33491916539E+03  0.22916288455E+02 -0.61396867094E+03  0.70530925648E+03  0.88360708264E+02 0.  0.
        254    2    1    2    0    0  0.33491916539E+03 -0.22916288455E+02  0.21038863415E+04  0.23151748224E+04  0.90609089855E+03 0.  0.
        -24    2    4    4    0    0 -0.11086971831E+03 -0.23975492179E+03  0.15212671498E+04  0.15460939974E+04  0.79864827109E+02 0.  0.
         24    2    4    4    0    0  0.44578888370E+03  0.21683863334E+03  0.58261919174E+03  0.76908082503E+03  0.79331400540E+02 0.  0.
         11    1    3    3    0    0 -0.25190359099E+03  0.49924060495E+02 -0.41496698526E+03  0.48800146498E+03  0.00000000000E+00 0.  1.
        -11    1    3    3    0    0 -0.83015574396E+02 -0.27007772039E+02 -0.19900168568E+03  0.21730779150E+03  0.00000000000E+00 0. -1.
          4    1    6    6  502    0  0.33037335614E+03  0.12875035047E+03  0.44546082670E+03  0.56934923845E+03  0.00000000000E+00 0. -1.
          3    1    5    5  503    0 -0.99721283644E+02 -0.24369075184E+03  0.14763905326E+04  0.14996861410E+04  0.00000000000E+00 0. -1.
         -2    1    5    5    0  503 -0.11148434664E+02  0.39358300491E+01  0.44876617252E+02  0.46407856335E+02  0.00000000000E+00 0.  1.
         -3    1    6    6    0  502  0.11541552755E+03  0.88088282866E+02  0.13715836503E+03  0.19973158658E+03  0.00000000000E+00 0.  1.
<mgrwt>
<rscale>  0 0.26274454E+04</rscale>
<asrwt>0</asrwt>
<pdfrwt beam="1">  1        2 0.34695398E+00 0.26274454E+04</pdfrwt>
<pdfrwt beam="2">  1       -2 0.11773588E+00 0.26274454E+04</pdfrwt>
<totfact> 0.23610175E+00</totfact>
</mgrwt>
</event>
<event>
12    1  0.1472088E-007  0.1112196E+04  0.7818608E-02  0.9193386E-01
          2   -1    0    0  501    0  0.00000000000E+00  0.00000000000E+00  0.77060095588E+03  0.77060095588E+03  0.00000000000E+00 0. -1.
         -2   -1    0    0    0  501 -0.00000000000E+00 -0.00000000000E+00 -0.40130374733E+03  0.40130374733E+03  0.00000000000E+00 0.  1.
         23    2    1    2    0    0 -0.13314173183E+03  0.68760268590E+02  0.16252870410E+03  0.23880212484E+03  0.90311571124E+02 0.  0.
        254    2    1    2    0    0  0.13314173183E+03 -0.68760268590E+02  0.20676850446E+03  0.93310257838E+03  0.89748120429E+03 0.  0.
        -24    2    4    4    0    0 -0.36799064743E+03  0.45515189702E+02  0.16024819408E+03  0.41070950987E+03  0.74256775457E+02 0.  0.
         24    2    4    4    0    0  0.50113237927E+03 -0.11427545829E+03  0.46520310377E+02  0.52239306851E+03  0.80856891036E+02 0.  0.
         13    1    3    3    0    0  0.63157619037E+01  0.93435729699E+01  0.46658415543E+02  0.48002072302E+02  0.00000000000E+00 0. -1.
        -13    1    3    3    0    0 -0.13945749374E+03  0.59416695620E+02  0.11587028855E+03  0.19080005253E+03  0.00000000000E+00 0.  1.
          2    1    6    6  502    0  0.11802975434E+03  0.44834169856E+01  0.24979745278E+02  0.12072742692E+03  0.00000000000E+00 0. -1.
          1    1    5    5  503    0 -0.42753532232E+02  0.29430641823E+02  0.30321082918E+02  0.60111523569E+02  0.00000000000E+00 0. -1.
         -2    1    5    5    0  503 -0.32523711520E+03  0.16084547879E+02  0.12992711116E+03  0.35059798630E+03  0.00000000000E+00 0.  1.
         -1    1    6    6    0  502  0.38310262493E+03 -0.11875887528E+03  0.21540565099E+02  0.40166564158E+03  0.00000000000E+00 0.  1.
<mgrwt>
<rscale>  0 0.11121961E+04</rscale>
<asrwt>0</asrwt>
<pdfrwt beam="1">  1        2 0.11855399E+00 0.11121961E+04</pdfrwt>
<pdfrwt beam="2">  1       -2 0.61739038E-01 0.11121961E+04</pdfrwt>
<totfact> 0.87569679E+01</totfact>
</mgrwt>
</event>
<event>
12    1  0.1472088E-007  0.3757125E+04  0.7818608E-02  0.8055419E-01
          2   -1    0    0  501    0  0.00000000000E+00  0.00000000000E+00  0.16772030704E+04  0.16772030704E+04  0.00000000000E+00 0. -1.
         -2   -1    0    0    0  501 -0.00000000000E+00 -0.00000000000E+00 -0.21040968377E+04  0.21040968377E+04  0.00000000000E+00 0.  1.
         23    2    1    2    0    0 -0.49502177384E+03  0.14095229274E+04  0.75256586362E+03  0.16759011432E+04  0.10241007433E+03 0.  0.
        254    2    1    2    0    0  0.49502177384E+03 -0.14095229274E+04 -0.11794596310E+04  0.21053987648E+04  0.89987637955E+03 0.  0.
        -24    2    4    4    0    0 -0.15287338550E+03 -0.88729888365E+03 -0.68253686756E+03  0.11328352724E+04  0.82399016029E+02 0.  0.
         24    2    4    4    0    0  0.64789515934E+03 -0.52222404375E+03 -0.49692276340E+03  0.97256349246E+03  0.80382987690E+02 0.  0.
         13    1    3    3    0    0 -0.15596157213E+03  0.42005441942E+03  0.27816657786E+03  0.52739584023E+03  0.00000000000E+00 0.  1.
        -13    1    3    3    0    0 -0.33906020171E+03  0.98946850798E+03  0.47439928577E+03  0.11485053030E+04  0.00000000000E+00 0. -1.
          2    1    6    6  502    0  0.19610565628E+03 -0.12821588442E+03 -0.17242518582E+03  0.29090752164E+03  0.00000000000E+00 0. -1.
          1    1    5    5  503    0 -0.24301893001E+02 -0.95092828864E+02 -0.10721356247E+03  0.14535465621E+03  0.00000000000E+00 0. -1.
         -2    1    5    5    0  503 -0.12857149250E+03 -0.79220605478E+03 -0.57532330509E+03  0.98748061616E+03  0.00000000000E+00 0.  1.
         -1    1    6    6    0  502  0.45178950306E+03 -0.39400815933E+03 -0.32449757758E+03  0.68165597082E+03  0.00000000000E+00 0.  1.
<mgrwt>
<rscale>  0 0.37571253E+04</rscale>
<asrwt>0</asrwt>
<pdfrwt beam="1">  1        2 0.25803124E+00 0.37571253E+04</pdfrwt>
<pdfrwt beam="2">  1       -2 0.32370721E+00 0.37571253E+04</pdfrwt>
<totfact> 0.18450614E-01</totfact>
</mgrwt>
</event>
<event>
12    1  0.1472088E-007  0.1494486E+04  0.7818608E-02  0.8888128E-01
          2   -1    0    0  501    0  0.00000000000E+00  0.00000000000E+00  0.19742704814E+04  0.19742704814E+04  0.00000000000E+00 0. -1.
         -2   -1    0    0    0  501 -0.00000000000E+00 -0.00000000000E+00 -0.28282460559E+03  0.28282460559E+03  0.00000000000E+00 0.  1.
         23    2    1    2    0    0  0.22509562576E+03  0.25223152631E+03  0.55812826712E+02  0.35497754436E+03  0.92764226781E+02 0.  0.
        254    2    1    2    0    0 -0.22509562576E+03 -0.25223152631E+03  0.16356330491E+04  0.19021175427E+04  0.91020156621E+03 0.  0.
        -24    2    4    4    0    0  0.22068224518E+03  0.72974631376E+01  0.11974923856E+04  0.12206563238E+04  0.85205287362E+02 0.  0.
         24    2    4    4    0    0 -0.44577787095E+03 -0.25952898945E+03  0.43814066351E+03  0.68146121884E+03  0.79680268401E+02 0.  0.
         11    1    3    3    0    0  0.97577863713E+02  0.70956671360E+02 -0.16663717258E+02  0.12179477891E+03  0.00000000000E+00 0.  1.
        -11    1    3    3    0    0  0.12751776205E+03  0.18127485495E+03  0.72476543969E+02  0.23318276544E+03  0.00000000000E+00 0. -1.
          4    1    6    6  502    0 -0.31116205641E+02 -0.24973206248E+01  0.45714744171E+02  0.55356053855E+02  0.00000000000E+00 0. -1.
          3    1    5    5  503    0  0.42959182416E+02 -0.20586316142E+02  0.13778201513E+03  0.14578467498E+03  0.00000000000E+00 0. -1.
         -4    1    5    5    0  503  0.17772306277E+03  0.27883779280E+02  0.10597103705E+04  0.10748716489E+04  0.00000000000E+00 0.  1.
         -3    1    6    6    0  502 -0.41466166530E+03 -0.25703166882E+03  0.39242591934E+03  0.62610516498E+03  0.00000000000E+00 0.  1.
<mgrwt>
<rscale>  0 0.14944862E+04</rscale>
<asrwt>0</asrwt>
<pdfrwt beam="1">  1        2 0.30373391E+00 0.14944862E+04</pdfrwt>
<pdfrwt beam="2">  1       -2 0.43511479E-01 0.14944862E+04</pdfrwt>
<totfact> 0.33439751E+01</totfact>
</mgrwt>
</event>
<event>
12    1  0.1472088E-007  0.1782142E+04  0.7818608E-02  0.8715854E-01
          1   -1    0    0  501    0  0.00000000000E+00  0.00000000000E+00  0.18788088866E+04  0.18788088866E+04  0.00000000000E+00 0. -1.
         -1   -1    0    0    0  501 -0.00000000000E+00 -0.00000000000E+00 -0.42261219292E+03  0.42261219292E+03  0.00000000000E+00 0.  1.
         23    2    1    2    0    0  0.33352717354E+02  0.30367790534E+02 -0.30551887472E+03  0.32244298619E+03  0.92698921632E+02 0.  0.
        254    2    1    2    0    0 -0.33352717354E+02 -0.30367790534E+02  0.17617155684E+04  0.19789780933E+04  0.90037655650E+03 0.  0.
        -24    2    4    4    0    0  0.56689984354E+02 -0.45095646436E+03  0.83264410867E+03  0.95198734956E+03  0.80051326993E+02 0.  0.
         24    2    4    4    0    0 -0.90042701708E+02  0.42058867382E+03  0.92907145970E+03  0.10269907437E+04  0.80831242869E+02 0.  0.
         11    1    3    3    0    0  0.72672803102E+01  0.22138227884E+02 -0.94995024394E+01  0.25162572276E+02  0.00000000000E+00 0. -1.
        -11    1    3    3    0    0  0.26085437044E+02  0.82295626499E+01 -0.29601937228E+03  0.29728041391E+03  0.00000000000E+00 0.  1.
          4    1    6    6  502    0 -0.29078175022E+02  0.99254901079E+02  0.15154582504E+03  0.18347537366E+03  0.00000000000E+00 0. -1.
          1    1    5    5  503    0 -0.76373753015E+01 -0.62415690804E+02  0.73195599958E+02  0.96496859085E+02  0.00000000000E+00 0. -1.
         -2    1    5    5    0  503  0.64327359656E+02 -0.38854077355E+03  0.75944850871E+03  0.85549049048E+03  0.00000000000E+00 0.  1.
         -3    1    6    6    0  502 -0.60964526686E+02  0.32133377274E+03  0.77752563466E+03  0.84351537009E+03  0.00000000000E+00 0.  1.
<mgrwt>
<rscale>  0 0.17821420E+04</rscale>
<asrwt>0</asrwt>
<pdfrwt beam="1">  1        1 0.28904752E+00 0.17821420E+04</pdfrwt>
<pdfrwt beam="2">  1       -1 0.65017261E-01 0.17821420E+04</pdfrwt>
<totfact> 0.81632084E+00</totfact>
</mgrwt>
</event>
<event>
12    1  0.1472088E-007  0.1453952E+04  0.7818608E-02  0.8915665E-01
          1   -1    0    0  501    0  0.00000000000E+00  0.00000000000E+00  0.73918755173E+03  0.73918755173E+03  0.00000000000E+00 0. -1.
         -1   -1    0    0    0  501 -0.00000000000E+00 -0.00000000000E+00 -0.71496585508E+03  0.71496585508E+03  0.00000000000E+00 0.  1.
         23    2    1    2    0    0  0.17681107260E+03 -0.20284811147E+03 -0.34668430066E+03  0.44803454415E+03  0.90196655764E+02 0.  0.
        254    2    1    2    0    0 -0.17681107260E+03  0.20284811147E+03  0.37090599731E+03  0.10061188627E+04  0.89570887862E+03 0.  0.
        -24    2    4    4    0    0 -0.92863454807E+02 -0.14409874115E+03  0.56246759816E+03  0.59347745531E+03  0.80359333867E+02 0.  0.
         24    2    4    4    0    0 -0.83947617788E+02  0.34694685261E+03 -0.19156160085E+03  0.41264140735E+03  0.78471415607E+02 0.  0.
         13    1    3    3    0    0  0.65658132407E+02 -0.10547122271E+03 -0.95881722195E+02  0.15693461639E+03  0.00000000000E+00 0. -1.
        -13    1    3    3    0    0  0.11115294019E+03 -0.97376888755E+02 -0.25080257846E+03  0.29109992776E+03  0.00000000000E+00 0.  1.
          2    1    6    6  502    0 -0.30976079690E+02  0.24338900343E+03 -0.15704463446E+03  0.29130867086E+03  0.00000000000E+00 0. -1.
          3    1    5    5  503    0 -0.95848108529E+02 -0.14523483063E+03  0.56378081670E+03  0.59002442764E+03  0.00000000000E+00 0. -1.
         -4    1    5    5    0  503  0.29846537214E+01  0.11360894832E+01 -0.13132185364E+01  0.34530276678E+01  0.00000000000E+00 0.  1.
         -1    1    6    6    0  502 -0.52971538098E+02  0.10355784918E+03 -0.34516966394E+02  0.12133273649E+03  0.00000000000E+00 0.  1.
<mgrwt>
<rscale>  0 0.14539517E+04</rscale>
<asrwt>0</asrwt>
<pdfrwt beam="1">  1        1 0.11372116E+00 0.14539517E+04</pdfrwt>
<pdfrwt beam="2">  1       -1 0.10999475E+00 0.14539517E+04</pdfrwt>
<totfact> 0.18573696E+01</totfact>
</mgrwt>
</event>
<event>
12    1  0.1472088E-007  0.1570759E+04  0.7818608E-02  0.8838716E-01
         -2   -1    0    0    0  501 -0.00000000000E+00  0.00000000000E+00  0.65099630827E+03  0.65099630827E+03  0.00000000000E+00 0.  1.
          2   -1    0    0  501    0  0.00000000000E+00 -0.00000000000E+00 -0.94750358139E+03  0.94750358139E+03  0.00000000000E+00 0. -1.
         23    2    1    2    0    0  0.36575106766E+03  0.24458568180E+02  0.28309740756E+03  0.47232864502E+03  0.92618257853E+02 0.  0.
        254    2    1    2    0    0 -0.36575106766E+03 -0.24458568180E+02 -0.57960468068E+03  0.11261712446E+04  0.89327936354E+03 0.  0.
        -24    2    4    4    0    0 -0.18521478065E+03 -0.16101544767E+03  0.18955756899E+03  0.32044614512E+03  0.80766147618E+02 0.  0.
         24    2    4    4    0    0 -0.18053628701E+03  0.13655687949E+03 -0.76916224966E+03  0.80572509952E+03  0.79631886938E+02 0.  0.
         13    1    3    3    0    0  0.18619634184E+03 -0.31475490528E+02  0.12315878739E+03  0.22545037398E+03  0.00000000000E+00 0. -1.
        -13    1    3    3    0    0  0.17955472583E+03  0.55934058708E+02  0.15993862017E+03  0.24687827104E+03  0.00000000000E+00 0.  1.
          2    1    6    6  502    0 -0.15830837131E+03  0.13953165691E+03 -0.62098725406E+03  0.65586263304E+03  0.00000000000E+00 0. -1.
          3    1    5    5  503    0 -0.17644009741E+03 -0.17052720403E+03  0.17868449987E+03  0.30354371313E+03  0.00000000000E+00 0. -1.
         -4    1    5    5    0  503 -0.87746832467E+01  0.95117563599E+01  0.10873069121E+02  0.16902431992E+02  0.00000000000E+00 0.  1.
         -1    1    6    6    0  502 -0.22227915696E+02 -0.29747774210E+01 -0.14817499560E+03  0.14986246648E+03  0.00000000000E+00 0.  1.
<mgrwt>
<rscale>  0 0.15707595E+04</rscale>
<asrwt>0</asrwt>
<pdfrwt beam="1">  1        2 0.14576978E+00 0.15707595E+04</pdfrwt>
<pdfrwt beam="2">  1       -2 0.10015328E+00 0.15707595E+04</pdfrwt>
<totfact> 0.21560699E+01</totfact>
</mgrwt>
</event>
<event>
12    1  0.1472088E-007  0.1744797E+04  0.7818608E-02  0.8736220E-01
         -1   -1    0    0    0  501 -0.00000000000E+00  0.00000000000E+00  0.23014465399E+03  0.23014465399E+03  0.00000000000E+00 0.  1.
          1   -1    0    0  501    0  0.00000000000E+00 -0.00000000000E+00 -0.33069592691E+04  0.33069592691E+04  0.00000000000E+00 0. -1.
         23    2    1    2    0    0  0.44581785852E+03 -0.14236874530E+03 -0.20021275626E+04  0.20581415208E+04  0.91702345414E+02 0.  0.
        254    2    1    2    0    0 -0.44581785852E+03  0.14236874530E+03 -0.10746870525E+04  0.14789624022E+04  0.90186202042E+03 0.  0.
        -24    2    4    4    0    0 -0.50214450921E+03  0.41668289451E+03 -0.96428692155E+03  0.11670255949E+04  0.79534453476E+02 0.  0.
         24    2    4    4    0    0  0.56326650688E+02 -0.27431414921E+03 -0.11040013093E+03  0.31193680738E+03  0.81825661337E+02 0.  0.
         13    1    3    3    0    0  0.23826352924E+03 -0.68437651098E+02 -0.12529106775E+04  0.12771994313E+04  0.00000000000E+00 0. -1.
        -13    1    3    3    0    0  0.20755432929E+03 -0.73931094200E+02 -0.74921688512E+03  0.78094208956E+03  0.00000000000E+00 0.  1.
          2    1    6    6  502    0  0.58723328770E+02 -0.27472496443E+03 -0.95319651886E+02  0.29666154361E+03  0.00000000000E+00 0. -1.
          3    1    5    5  503    0 -0.42267158264E+03  0.31515960019E+03 -0.80154074295E+03  0.95939793775E+03  0.00000000000E+00 0. -1.
         -4    1    5    5    0  503 -0.79472926575E+02  0.10152329432E+03 -0.16274617860E+03  0.20762765711E+03  0.00000000000E+00 0.  1.
         -1    1    6    6    0  502 -0.23966780822E+01  0.41081521739E+00 -0.15080479044E+02  0.15275263768E+02  0.00000000000E+00 0.  1.
<mgrwt>
<rscale>  0 0.17447968E+04</rscale>
<asrwt>0</asrwt>
<pdfrwt beam="1">  1        1 0.50876299E+00 0.17447968E+04</pdfrwt>
<pdfrwt beam="2">  1       -1 0.35406868E-01 0.17447968E+04</pdfrwt>
<totfact> 0.25565178E+00</totfact>
</mgrwt>
</event>
<event>
12    1  0.1472088E-007  0.2436330E+04  0.7818608E-02  0.8426026E-01
         -2   -1    0    0    0  501 -0.00000000000E+00  0.00000000000E+00  0.59061491613E+03  0.59061491613E+03  0.00000000000E+00 0.  1.
          2   -1    0    0  501    0  0.00000000000E+00 -0.00000000000E+00 -0.25125102222E+04  0.25125102222E+04  0.00000000000E+00 0. -1.
         23    2    1    2    0    0  0.18486659590E+03 -0.40117408136E+03 -0.19815542558E+04  0.20326790139E+04  0.10055050025E+03 0.  0.
        254    2    1    2    0    0 -0.18486659590E+03  0.40117408136E+03  0.59658949711E+02  0.10704461244E+04  0.97323142839E+03 0.  0.
        -24    2    4    4    0    0 -0.49273804805E+03  0.23534699536E+03  0.30968981238E+03  0.63284484715E+03  0.80036419569E+02 0.  0.
         24    2    4    4    0    0  0.30787145214E+03  0.16582708601E+03 -0.25003086266E+03  0.43760127729E+03  0.81829041918E+02 0.  0.
         11    1    3    3    0    0  0.11219683898E+02 -0.11608055733E+03 -0.42334207914E+03  0.43911170910E+03  0.00000000000E+00 0. -1.
        -11    1    3    3    0    0  0.17364691200E+03 -0.28509352403E+03 -0.15582121766E+04  0.15935673048E+04  0.00000000000E+00 0.  1.
          2    1    6    6  502    0  0.28436361315E+03  0.17272166503E+03 -0.22009943388E+03  0.39892254743E+03  0.00000000000E+00 0. -1.
          3    1    5    5  503    0 -0.44440983835E+03  0.23385912364E+03  0.29447640963E+03  0.58215680874E+03  0.00000000000E+00 0. -1.
         -4    1    5    5    0  503 -0.48328209693E+02  0.14878717137E+01  0.15213402744E+02  0.50688038405E+02  0.00000000000E+00 0.  1.
         -3    1    6    6    0  502  0.23507838990E+02 -0.68945790267E+01 -0.29931428788E+02  0.38678729856E+02  0.00000000000E+00 0.  1.
<mgrwt>
<rscale>  0 0.24363300E+04</rscale>
<asrwt>0</asrwt>
<pdfrwt beam="1">  1        2 0.38654003E+00 0.24363300E+04</pdfrwt>
<pdfrwt beam="2">  1       -2 0.90863835E-01 0.24363300E+04</pdfrwt>
<totfact> 0.31723454E+00</totfact>
</mgrwt>
</event>
<event>
12    1  0.1472088E-007  0.1839241E+04  0.7818608E-02  0.8685706E-01
          2   -1    0    0  501    0  0.00000000000E+00  0.00000000000E+00  0.21195184673E+04  0.21195184673E+04  0.00000000000E+00 0. -1.
         -2   -1    0    0    0  501 -0.00000000000E+00 -0.00000000000E+00 -0.39900650787E+03  0.39900650787E+03  0.00000000000E+00 0.  1.
         23    2    1    2    0    0 -0.62930756853E+03 -0.19033929457E+02  0.10462806005E+04  0.12241051111E+04  0.85673343553E+02 0.  0.
        254    2    1    2    0    0  0.62930756853E+03  0.19033929457E+02  0.67423135896E+03  0.12944198641E+04  0.90804435621E+03 0.  0.
        -24    2    4    4    0    0  0.79260078187E+02 -0.17489416159E+03 -0.16762774799E+03  0.26712744594E+03  0.79924231158E+02 0.  0.
         24    2    4    4    0    0  0.55004749034E+03  0.19392809104E+03  0.84185910695E+03  0.10272924181E+04  0.80265872410E+02 0.  0.
         13    1    3    3    0    0 -0.12359914507E+02  0.26916154344E+01  0.50367513655E+01  0.13615474453E+02  0.00000000000E+00 0.  1.
        -13    1    3    3    0    0 -0.61694765402E+03 -0.21725544892E+02  0.10412438491E+04  0.12104896367E+04  0.00000000000E+00 0. -1.
          2    1    6    6  502    0  0.84198551331E+02  0.54302101129E+02  0.11228187719E+03  0.15048366748E+03  0.00000000000E+00 0. -1.
          1    1    5    5  503    0  0.41446409912E+02 -0.13122228320E+03 -0.71756078173E+02  0.15519673727E+03  0.00000000000E+00 0. -1.
         -2    1    5    5    0  503  0.37813668274E+02 -0.43671878383E+02 -0.95871669821E+02  0.11193070867E+03  0.00000000000E+00 0.  1.
         -1    1    6    6    0  502  0.46584893901E+03  0.13962598992E+03  0.72957722976E+03  0.87680875066E+03  0.00000000000E+00 0.  1.
<mgrwt>
<rscale>  0 0.18392408E+04</rscale>
<asrwt>0</asrwt>
<pdfrwt beam="1">  1        2 0.32607976E+00 0.18392408E+04</pdfrwt>
<pdfrwt beam="2">  1       -2 0.61385618E-01 0.18392408E+04</pdfrwt>
<totfact> 0.13306959E+01</totfact>
</mgrwt>
</event>
<event>
12    1  0.1472088E-007  0.1176371E+04  0.7818608E-02  0.9133794E-01
          2   -1    0    0  501    0  0.00000000000E+00  0.00000000000E+00  0.20143886303E+04  0.20143886303E+04  0.00000000000E+00 0. -1.
         -2   -1    0    0    0  501 -0.00000000000E+00 -0.00000000000E+00 -0.17174549861E+03  0.17174549861E+03  0.00000000000E+00 0.  1.
         23    2    1    2    0    0 -0.12374714952E+03 -0.14583722979E+03  0.62891609396E+03  0.66474393311E+03  0.98829088603E+02 0.  0.
        254    2    1    2    0    0  0.12374714952E+03  0.14583722979E+03  0.12137270378E+04  0.15213901958E+04  0.89716941051E+03 0.  0.
        -24    2    4    4    0    0 -0.21015626258E+03  0.13064784012E+03  0.11414354317E+04  0.11700666291E+04  0.70331778776E+02 0.  0.
         24    2    4    4    0    0  0.33390341211E+03  0.15189389672E+02  0.72291606107E+02  0.35132356671E+03  0.80498236235E+02 0.  0.
         11    1    3    3    0    0 -0.76640410843E+02 -0.14423440070E+03  0.53926930699E+03  0.56346135660E+03  0.00000000000E+00 0. -1.
        -11    1    3    3    0    0 -0.47106738681E+02 -0.16028290913E+01  0.89646786970E+02  0.10128257651E+03  0.00000000000E+00 0.  1.
          2    1    6    6  502    0  0.32847015539E+03  0.13237887752E+02  0.83093414963E+02  0.33907580312E+03  0.00000000000E+00 0. -1.
          1    1    5    5  503    0 -0.91026266540E+02  0.72603234318E+02  0.68334031770E+03  0.69318900787E+03  0.00000000000E+00 0. -1.
         -4    1    5    5    0  503 -0.11912999604E+03  0.58044605801E+02  0.45809511397E+03  0.47687762126E+03  0.00000000000E+00 0.  1.
         -1    1    6    6    0  502  0.54332567191E+01  0.19515019209E+01 -0.10801808857E+02  0.12247763588E+02  0.00000000000E+00 0.  1.
<mgrwt>
<rscale>  0 0.11763710E+04</rscale>
<asrwt>0</asrwt>
<pdfrwt beam="1">  1        2 0.30990593E+00 0.11763710E+04</pdfrwt>
<pdfrwt beam="2">  1       -2 0.26422386E-01 0.11763710E+04</pdfrwt>
<totfact> 0.84203186E+01</totfact>
</mgrwt>
</event>
<event>
12    1  0.1967008E-007  0.1616207E+04  0.7818608E-02  0.8810653E-01
         -2   -1    0    0    0  501 -0.00000000000E+00  0.00000000000E+00  0.57831792408E+03  0.57831792408E+03  0.00000000000E+00 0.  1.
          2   -1    0    0  501    0  0.00000000000E+00 -0.00000000000E+00 -0.11291914062E+04  0.11291914062E+04  0.00000000000E+00 0. -1.
         23    2    1    2    0    0  0.52977654889E+03 -0.11877593694E+03 -0.30954690274E+03  0.63247483064E+03  0.97129868956E+02 0.  0.
        254    2    1    2    0    0 -0.52977654889E+03  0.11877593694E+03 -0.24132657941E+03  0.10750344997E+04  0.89592954110E+03 0.  0.
        -24    2    4    4    0    0 -0.64227967141E+03 -0.17454849885E+03 -0.31723746791E+03  0.74186090693E+03  0.82022188613E+02 0.  0.
         24    2    4    4    0    0  0.11250312251E+03  0.29332443579E+03  0.75910888501E+02  0.33317359275E+03  0.80907371138E+02 0.  0.
         11    1    3    3    0    0  0.10580605582E+02 -0.21360484975E+01  0.74123942368E+01  0.13094101954E+02  0.00000000000E+00 0. -1.
        -11    1    3    3    0    0  0.51919594331E+03 -0.11663988844E+03 -0.31695929698E+03  0.61938072869E+03  0.00000000000E+00 0.  1.
          4    1    6    6  502    0  0.11046418485E+03  0.20095866553E+03  0.73301490588E+02  0.24074847852E+03  0.00000000000E+00 0. -1.
          1    1    5    5  503    0 -0.59298241798E+03 -0.17050425747E+03 -0.31394904386E+03  0.69228885011E+03  0.00000000000E+00 0. -1.
         -2    1    5    5    0  503 -0.49297253427E+02 -0.40442413811E+01 -0.32884240444E+01  0.49572056811E+02  0.00000000000E+00 0.  1.
         -3    1    6    6    0  502  0.20389376589E+01  0.92365770262E+02  0.26093979127E+01  0.92425114229E+02  0.00000000000E+00 0.  1.
<mgrwt>
<rscale>  0 0.16162074E+04</rscale>
<asrwt>0</asrwt>
<pdfrwt beam="1">  1        2 0.17372175E+00 0.16162074E+04</pdfrwt>
<pdfrwt beam="2">  1       -2 0.88971989E-01 0.16162074E+04</pdfrwt>
<totfact> 0.21730363E+01</totfact>
</mgrwt>
</event>
<event>
12    1  0.1472088E-007  0.2749093E+04  0.7818608E-02  0.8319249E-01
         -2   -1    0    0    0  501 -0.00000000000E+00  0.00000000000E+00  0.22672099089E+04  0.22672099089E+04  0.00000000000E+00 0.  1.
          2   -1    0    0  501    0  0.00000000000E+00 -0.00000000000E+00 -0.83334946378E+03  0.83334946378E+03  0.00000000000E+00 0. -1.
         23    2    1    2    0    0 -0.11429634953E+04  0.51862464884E+02  0.90622005648E+03  0.14622809629E+04  0.89305972399E+02 0.  0.
        254    2    1    2    0    0  0.11429634953E+04 -0.51862464884E+02  0.52764038864E+03  0.16382784098E+04  0.10471372887E+04 0.  0.
        -24    2    4    4    0    0  0.12404114263E+04  0.12555061266E+03  0.23172083609E+03  0.12706516672E+04  0.80483853648E+02 0.  0.
         24    2    4    4    0    0 -0.97447930977E+02 -0.17741307754E+03  0.29591955255E+03  0.36762674255E+03  0.81299083166E+02 0.  0.
         11    1    3    3    0    0 -0.80589975474E+03  0.29656155516E+02  0.68878487855E+03  0.10605557558E+04  0.00000000000E+00 0.  1.
        -11    1    3    3    0    0 -0.33706374060E+03  0.22206309368E+02  0.21743517793E+03  0.40172520708E+03  0.00000000000E+00 0. -1.
          2    1    6    6  502    0 -0.63612804697E+02 -0.63125406092E+02  0.18142744843E+03  0.20235445352E+03  0.00000000000E+00 0. -1.
          1    1    5    5  503    0  0.11521603499E+02 -0.47263910822E+01  0.79627571241E+01  0.14781462068E+02  0.00000000000E+00 0. -1.
         -2    1    5    5    0  503  0.12288898228E+04  0.13027700374E+03  0.22375807897E+03  0.12558702052E+04  0.00000000000E+00 0.  1.
         -1    1    6    6    0  502 -0.33835126279E+02 -0.11428767145E+03  0.11449210412E+03  0.16527228903E+03  0.00000000000E+00 0.  1.
<mgrwt>
<rscale>  0 0.27490931E+04</rscale>
<asrwt>0</asrwt>
<pdfrwt beam="1">  1        2 0.12820761E+00 0.27490931E+04</pdfrwt>
<pdfrwt beam="2">  1       -2 0.34880152E+00 0.27490931E+04</pdfrwt>
<totfact> 0.45104679E-01</totfact>
</mgrwt>
</event>
<event>
12    1  0.1472088E-007  0.1344141E+04  0.7818608E-02  0.8995275E-01
          2   -1    0    0  501    0  0.00000000000E+00  0.00000000000E+00  0.84988448711E+03  0.84988448711E+03  0.00000000000E+00 0.  1.
         -2   -1    0    0    0  501 -0.00000000000E+00 -0.00000000000E+00 -0.53145913852E+03  0.53145913852E+03  0.00000000000E+00 0. -1.
         23    2    1    2    0    0 -0.14937231341E+03  0.12220415149E+03 -0.22880383798E+03  0.31264899626E+03  0.90289844024E+02 0.  0.
        254    2    1    2    0    0  0.14937231341E+03 -0.12220415149E+03  0.54722918657E+03  0.10686946294E+04  0.89744219066E+03 0.  0.
        -24    2    4    4    0    0  0.18720792451E+03 -0.12325995813E+03  0.78088448628E+03  0.81626729025E+03  0.79195226719E+02 0.  0.
         24    2    4    4    0    0 -0.37835611104E+02  0.10558066396E+01 -0.23365529971E+03  0.25242733913E+03  0.87704699215E+02 0.  0.
         13    1    3    3    0    0 -0.12943435649E+03  0.12370651410E+03 -0.23129925120E+03  0.29249939808E+03  0.00000000000E+00 0. -1.
        -13    1    3    3    0    0 -0.19937956918E+02 -0.15023626125E+01  0.24954132259E+01  0.20149598176E+02  0.00000000000E+00 0.  1.
          2    1    6    6  502    0 -0.54809857622E+02 -0.80317696372E+01 -0.22426585894E+03  0.23100607201E+03  0.00000000000E+00 0. -1.
          1    1    5    5  503    0  0.10540217721E+03 -0.31482930095E+02  0.45088105553E+03  0.46410615175E+03  0.00000000000E+00 0. -1.
         -2    1    5    5    0  503  0.81805747301E+02 -0.91777028034E+02  0.33000343074E+03  0.35216113850E+03  0.00000000000E+00 0.  1.
         -1    1    6    6    0  502  0.16974246518E+02  0.90875762768E+01 -0.93894407655E+01  0.21421267127E+02  0.00000000000E+00 0.  1.
<mgrwt>
<rscale>  0 0.13441412E+04</rscale>
<asrwt>0</asrwt>
<pdfrwt beam="1">  1        2 0.13075146E+00 0.13441412E+04</pdfrwt>
<pdfrwt beam="2">  1       -2 0.81762944E-01 0.13441412E+04</pdfrwt>
<totfact> 0.40836011E+01</totfact>
</mgrwt>
</event>
<event>
12    1  0.1472088E-007  0.1223441E+04  0.7818608E-02  0.9092583E-01
         -2   -1    0    0    0  501 -0.00000000000E+00  0.00000000000E+00  0.11745869044E+03  0.11745869044E+03  0.00000000000E+00 0.  1.
          2   -1    0    0  501    0  0.00000000000E+00 -0.00000000000E+00 -0.31858157541E+04  0.31858157541E+04  0.00000000000E+00 0. -1.
         23    2    1    2    0    0 -0.84941899916E+02 -0.41231265195E+02 -0.31785951211E+02  0.13606903382E+03  0.92678431571E+02 0.  0.
        254    2    1    2    0    0  0.84941899916E+02  0.41231265195E+02 -0.30365711125E+04  0.31672054107E+04  0.89527138297E+03 0.  0.
        -24    2    4    4    0    0 -0.10649000509E+03  0.39158771126E+03 -0.87822730620E+03  0.97078484336E+03  0.80367617547E+02 0.  0.
         24    2    4    4    0    0  0.19143190501E+03 -0.35035644607E+03 -0.21583438063E+04  0.21964205674E+04  0.80121839689E+02 0.  0.
         11    1    3    3    0    0 -0.53612915584E+02 -0.78550790035E+01  0.27823040948E+02  0.60911153257E+02  0.00000000000E+00 0.  1.
        -11    1    3    3    0    0 -0.31328984332E+02 -0.33376186192E+02 -0.59608992159E+02  0.75157880559E+02  0.00000000000E+00 0. -1.
          4    1    6    6  502    0  0.18889943971E+03 -0.34068084743E+03 -0.19893430530E+04  0.20271241256E+04  0.00000000000E+00 0. -1.
          3    1    5    5  503    0 -0.98225773128E+02  0.34197626592E+03 -0.69503153693E+03  0.78081041635E+03  0.00000000000E+00 0. -1.
         -4    1    5    5    0  503 -0.82642319655E+01  0.49611445344E+02 -0.18319576927E+03  0.18997442701E+03  0.00000000000E+00 0.  1.
         -3    1    6    6    0  502  0.25324653017E+01 -0.96755986416E+01 -0.16900075325E+03  0.16929644175E+03  0.00000000000E+00 0.  1.
<mgrwt>
<rscale>  0 0.12234406E+04</rscale>
<asrwt>0</asrwt>
<pdfrwt beam="1">  1        2 0.49012543E+00 0.12234406E+04</pdfrwt>
<pdfrwt beam="2">  1       -2 0.18070570E-01 0.12234406E+04</pdfrwt>
<totfact> 0.33888675E+01</totfact>
</mgrwt>
</event>
<event>
12    1  0.1472088E-007  0.2103129E+04  0.7818608E-02  0.8559866E-01
          1   -1    0    0  501    0  0.00000000000E+00  0.00000000000E+00  0.79452126872E+03  0.79452126872E+03  0.00000000000E+00 0. -1.
         -1   -1    0    0    0  501 -0.00000000000E+00 -0.00000000000E+00 -0.13917664349E+04  0.13917664349E+04  0.00000000000E+00 0.  1.
         23    2    1    2    0    0  0.69539254541E+02  0.12192935720E+03 -0.11256084107E+04  0.11377213393E+04  0.87824116865E+02 0.  0.
        254    2    1    2    0    0 -0.69539254541E+02 -0.12192935720E+03  0.52836324460E+03  0.10485663643E+04  0.89477439949E+03 0.  0.
        -24    2    4    4    0    0  0.30366592277E+03  0.15961994849E+03  0.44548160234E+03  0.56693366012E+03  0.72583719548E+02 0.  0.
         24    2    4    4    0    0 -0.37320517731E+03 -0.28154930568E+03  0.82881642258E+02  0.48163270416E+03  0.80923292033E+02 0.  0.
         13    1    3    3    0    0  0.19889077013E+02  0.49370349203E+02 -0.17147612223E+03  0.17954683862E+03  0.00000000000E+00 0. -1.
        -13    1    3    3    0    0  0.49650177527E+02  0.72559007994E+02 -0.95413228852E+03  0.95817450068E+03  0.00000000000E+00 0.  1.
          4    1    6    6  502    0 -0.88686389247E+02 -0.38175315786E+02 -0.62671438196E+01  0.96756950472E+02  0.00000000000E+00 0. -1.
          3    1    5    5  503    0  0.40982322409E+02  0.52196861676E+02  0.73023892440E+02  0.98673968128E+02  0.00000000000E+00 0. -1.
         -4    1    5    5    0  503  0.26268360036E+03  0.10742308681E+03  0.37245770990E+03  0.46825969199E+03  0.00000000000E+00 0.  1.
         -3    1    6    6    0  502 -0.28451878806E+03 -0.24337398990E+03  0.89148786077E+02  0.38487575369E+03  0.00000000000E+00 0.  1.
<mgrwt>
<rscale>  0 0.21031291E+04</rscale>
<asrwt>0</asrwt>
<pdfrwt beam="1">  1        1 0.12223404E+00 0.21031291E+04</pdfrwt>
<pdfrwt beam="2">  1       -1 0.21411791E+00 0.21031291E+04</pdfrwt>
<totfact> 0.24776063E+00</totfact>
</mgrwt>
</event>
<event>
12    1  0.1472088E-007  0.1709804E+04  0.7818608E-02  0.8755792E-01
          2   -1    0    0  501    0  0.00000000000E+00  0.00000000000E+00  0.53820892295E+03  0.53820892295E+03  0.00000000000E+00 0.  1.
         -2   -1    0    0    0  501 -0.00000000000E+00 -0.00000000000E+00 -0.13579438580E+04  0.13579438580E+04  0.00000000000E+00 0. -1.
         23    2    1    2    0    0  0.55761122797E+03  0.16634559223E+03 -0.50442547950E+03  0.77527767970E+03  0.89494573333E+02 0.  0.
        254    2    1    2    0    0 -0.55761122797E+03 -0.16634559223E+03 -0.31530945557E+03  0.11208751013E+04  0.90462135851E+03 0.  0.
        -24    2    4    4    0    0 -0.78974141808E+03 -0.19457002991E+03 -0.17163630435E+03  0.83488394575E+03  0.77609135608E+02 0.  0.
         24    2    4    4    0    0  0.23213019011E+03  0.28224437682E+02 -0.14367315122E+03  0.28599115552E+03  0.80423395896E+02 0.  0.
         13    1    3    3    0    0  0.30792088754E+00 -0.41490619489E+01  0.47514180749E+00  0.41875159780E+01  0.00000000000E+00 0.  1.
        -13    1    3    3    0    0  0.55730330708E+03  0.17049465418E+03 -0.50490062131E+03  0.77109016372E+03  0.00000000000E+00 0. -1.
          2    1    6    6  502    0  0.23926457179E+02  0.23999128864E+02 -0.42822240586E+02  0.54609319975E+02  0.00000000000E+00 0. -1.
          1    1    5    5  503    0 -0.10109692645E+03 -0.45661719475E+02 -0.41303700729E+02  0.11837050670E+03  0.00000000000E+00 0. -1.
         -4    1    5    5    0  503 -0.68864449164E+03 -0.14890831044E+03 -0.13033260362E+03  0.71651343905E+03  0.00000000000E+00 0.  1.
         -1    1    6    6    0  502  0.20820373294E+03  0.42253088177E+01 -0.10085091064E+03  0.23138183554E+03  0.00000000000E+00 0.  1.
<mgrwt>
<rscale>  0 0.17098041E+04</rscale>
<asrwt>0</asrwt>
<pdfrwt beam="1">  1        2 0.82801374E-01 0.17098041E+04</pdfrwt>
<pdfrwt beam="2">  1       -2 0.20891444E+00 0.17098041E+04</pdfrwt>
<totfact> 0.62442982E+00</totfact>
</mgrwt>
</event>
<event>
12    1  0.1472088E-007  0.1118850E+04  0.7818608E-02  0.9187012E-01
         -1   -1    0    0    0  501 -0.00000000000E+00  0.00000000000E+00  0.54431718600E+03  0.54431718600E+03  0.00000000000E+00 0.  1.
          1   -1    0    0  501    0  0.00000000000E+00 -0.00000000000E+00 -0.57495210974E+03  0.57495210974E+03  0.00000000000E+00 0. -1.
         23    2    1    2    0    0  0.21354421019E+02  0.12540992115E+03  0.12186719510E+03  0.19824604196E+03  0.90918756544E+02 0.  0.
        254    2    1    2    0    0 -0.21354421019E+02 -0.12540992115E+03 -0.15250211883E+03  0.92102325378E+03  0.89935714715E+03 0.  0.
        -24    2    4    4    0    0 -0.13575903503E+03  0.15197937868E+03  0.30073712446E+03  0.37172764571E+03  0.78805947843E+02 0.  0.
         24    2    4    4    0    0  0.11440461401E+03 -0.27738929983E+03 -0.45323924329E+03  0.54929560807E+03  0.79161948070E+02 0.  0.
         13    1    3    3    0    0  0.41805084596E+02  0.10754244828E+03  0.12591972315E+03  0.17078881684E+03  0.00000000000E+00 0.  1.
        -13    1    3    3    0    0 -0.20450663577E+02  0.17867472872E+02 -0.40525280525E+01  0.27457225118E+02  0.00000000000E+00 0. -1.
          4    1    6    6  502    0  0.12460822833E+03 -0.24135327365E+03 -0.38079809412E+03  0.46774544547E+03  0.00000000000E+00 0. -1.
          1    1    5    5  503    0 -0.55798021655E+02  0.10275426916E+03  0.11712884080E+03  0.16550233955E+03  0.00000000000E+00 0. -1.
         -2    1    5    5    0  503 -0.79961013374E+02  0.49225109521E+02  0.18360828367E+03  0.20622530615E+03  0.00000000000E+00 0.  1.
         -3    1    6    6    0  502 -0.10203614319E+02 -0.36036026180E+02 -0.72441149171E+02  0.81550162607E+02  0.00000000000E+00 0.  1.
<mgrwt>
<rscale>  0 0.11188500E+04</rscale>
<asrwt>0</asrwt>
<pdfrwt beam="1">  1        1 0.88454170E-01 0.11188500E+04</pdfrwt>
<pdfrwt beam="2">  1       -1 0.83741106E-01 0.11188500E+04</pdfrwt>
<totfact> 0.51281630E+01</totfact>
</mgrwt>
</event>
<event>
12    1  0.1472088E-007  0.1713453E+04  0.7818608E-02  0.8753729E-01
          2   -1    0    0  501    0  0.00000000000E+00  0.00000000000E+00  0.30230107352E+04  0.30230107352E+04  0.00000000000E+00 0. -1.
         -2   -1    0    0    0  501 -0.00000000000E+00 -0.00000000000E+00 -0.24279765506E+03  0.24279765506E+03  0.00000000000E+00 0.  1.
         23    2    1    2    0    0  0.21355393530E+03 -0.32175942184E+03  0.19571310096E+04  0.19970972810E+04  0.94346977099E+02 0.  0.
        254    2    1    2    0    0 -0.21355393530E+03  0.32175942184E+03  0.82308207060E+03  0.12687111094E+04  0.88488947063E+03 0.  0.
        -24    2    4    4    0    0  0.20688831634E+03 -0.18149239285E+03  0.36752787465E+03  0.46634918675E+03  0.81624513705E+02 0.  0.
         24    2    4    4    0    0 -0.42044225164E+03  0.50325181469E+03  0.45555419595E+03  0.80236192261E+03  0.78873021029E+02 0.  0.
         11    1    3    3    0    0  0.17511506261E+03 -0.30496600924E+03  0.16457103036E+04  0.16828642118E+04  0.00000000000E+00 0. -1.
        -11    1    3    3    0    0  0.38438872692E+02 -0.16793412604E+02  0.31142070601E+03  0.31423306919E+03  0.00000000000E+00 0.  1.
          4    1    6    6  502    0 -0.16065684086E+03  0.19888217026E+03  0.13183440377E+03  0.28765439016E+03  0.00000000000E+00 0. -1.
          1    1    5    5  503    0  0.16618433606E+02  0.65584882782E+01  0.12453108216E+02  0.21777649282E+02  0.00000000000E+00 0. -1.
         -2    1    5    5    0  503  0.19026988273E+03 -0.18805088113E+03  0.35507476644E+03  0.44457153747E+03  0.00000000000E+00 0.  1.
         -3    1    6    6    0  502 -0.25978541078E+03  0.30436964443E+03  0.32371979218E+03  0.51470753244E+03  0.00000000000E+00 0.  1.
<mgrwt>
<rscale>  0 0.17134526E+04</rscale>
<asrwt>0</asrwt>
<pdfrwt beam="1">  1        2 0.46507855E+00 0.17134526E+04</pdfrwt>
<pdfrwt beam="2">  1       -2 0.37353487E-01 0.17134526E+04</pdfrwt>
<totfact> 0.10871803E+01</totfact>
</mgrwt>
</event>
<event>
12    1  0.1472088E-007  0.1847274E+04  0.7818608E-02  0.8681556E-01
         -1   -1    0    0    0  501 -0.00000000000E+00  0.00000000000E+00  0.10939171181E+04  0.10939171181E+04  0.00000000000E+00 0.  1.
          1   -1    0    0  501    0  0.00000000000E+00 -0.00000000000E+00 -0.77986321842E+03  0.77986321842E+03  0.00000000000E+00 0. -1.
         23    2    1    2    0    0  0.49631975512E+03 -0.26058441974E+03 -0.30391827565E+03  0.64366312686E+03  0.87740318354E+02 0.  0.
        254    2    1    2    0    0 -0.49631975512E+03  0.26058441974E+03  0.61797217531E+03  0.12301172096E+04  0.90391437695E+03 0.  0.
        -24    2    4    4    0    0 -0.65030897646E+03  0.45200530287E+03  0.53334631635E+03  0.95806274820E+03  0.78837666384E+02 0.  0.
         24    2    4    4    0    0  0.15398922134E+03 -0.19142088313E+03  0.84625858954E+02  0.27205446144E+03  0.80606818550E+02 0.  0.
         13    1    3    3    0    0  0.15953789333E+03 -0.10031234508E+03 -0.14708051788E+03  0.23905561011E+03  0.00000000000E+00 0. -1.
        -13    1    3    3    0    0  0.33678186179E+03 -0.16027207466E+03 -0.15683775776E+03  0.40460751674E+03  0.00000000000E+00 0.  1.
          4    1    6    6  502    0  0.50267297447E+02 -0.24946940670E+02 -0.51296924803E+01  0.56351262509E+02  0.00000000000E+00 0. -1.
          3    1    5    5  503    0 -0.36829104607E+03  0.22073309628E+03  0.32026421397E+03  0.53565899709E+03  0.00000000000E+00 0. -1.
         -4    1    5    5    0  503 -0.28201793039E+03  0.23127220659E+03  0.21308210238E+03  0.42240375111E+03  0.00000000000E+00 0.  1.
         -3    1    6    6    0  502  0.10372192389E+03 -0.16647394246E+03  0.89755551435E+02  0.21570319893E+03  0.00000000000E+00 0.  1.
<mgrwt>
<rscale>  0 0.18472745E+04</rscale>
<asrwt>0</asrwt>
<pdfrwt beam="1">  1        1 0.11997896E+00 0.18472745E+04</pdfrwt>
<pdfrwt beam="2">  1       -1 0.16829494E+00 0.18472745E+04</pdfrwt>
<totfact> 0.54821593E+00</totfact>
</mgrwt>
</event>
<event>
12    1  0.1472088E-007  0.2649632E+04  0.7818608E-02  0.8351535E-01
          2   -1    0    0  501    0  0.00000000000E+00  0.00000000000E+00  0.88905171226E+03  0.88905171226E+03  0.00000000000E+00 0. -1.
         -2   -1    0    0    0  501 -0.00000000000E+00 -0.00000000000E+00 -0.19741686066E+04  0.19741686066E+04  0.00000000000E+00 0.  1.
         23    2    1    2    0    0 -0.10852439237E+03 -0.20013694194E+03 -0.17248668750E+04  0.17420111870E+04  0.87206078053E+02 0.  0.
        254    2    1    2    0    0  0.10852439237E+03  0.20013694194E+03  0.63974998062E+03  0.11212091319E+04  0.89218694251E+03 0.  0.
        -24    2    4    4    0    0  0.10841775622E+03 -0.24388048301E+03 -0.64163024938E+02  0.28533152041E+03  0.77878642207E+02 0.  0.
         24    2    4    4    0    0  0.10663614151E+00  0.44401742496E+03  0.70391300555E+03  0.83587761144E+03  0.77758452172E+02 0.  0.
         11    1    3    3    0    0 -0.40076005361E+02 -0.28732359597E+02 -0.19882787569E+03  0.20485155319E+03  0.00000000000E+00 0. -1.
        -11    1    3    3    0    0 -0.68448387005E+02 -0.17140458235E+03 -0.15260389993E+04  0.15371596339E+04  0.00000000000E+00 0.  1.
          2    1    6    6  502    0 -0.27576462020E+02  0.15744091619E+03  0.29898769800E+03  0.33903059877E+03  0.00000000000E+00 0. -1.
          3    1    5    5  503    0  0.71398697209E+02 -0.72999535477E+02 -0.35776741546E+02  0.10819741854E+03  0.00000000000E+00 0. -1.
         -4    1    5    5    0  503  0.37019059015E+02 -0.17088094754E+03 -0.28386283392E+02  0.17713410187E+03  0.00000000000E+00 0.  1.
         -1    1    6    6    0  502  0.27683098162E+02  0.28657650877E+03  0.40492530756E+03  0.49684701267E+03  0.00000000000E+00 0.  1.
<mgrwt>
<rscale>  0 0.26496324E+04</rscale>
<asrwt>0</asrwt>
<pdfrwt beam="1">  1        2 0.13677719E+00 0.26496324E+04</pdfrwt>
<pdfrwt beam="2">  1       -2 0.30371824E+00 0.26496324E+04</pdfrwt>
<totfact> 0.79255088E-01</totfact>
</mgrwt>
</event>
<event>
12    1  0.1472088E-007  0.1704598E+04  0.7818608E-02  0.8758746E-01
          1   -1    0    0  501    0  0.00000000000E+00  0.00000000000E+00  0.68163567022E+03  0.68163567022E+03  0.00000000000E+00 0. -1.
         -1   -1    0    0    0  501 -0.00000000000E+00 -0.00000000000E+00 -0.10656919282E+04  0.10656919282E+04  0.00000000000E+00 0.  1.
         23    2    1    2    0    0  0.28189173094E+02  0.26626552791E+03 -0.68827142816E+03  0.74395672777E+03  0.89789159358E+02 0.  0.
        254    2    1    2    0    0 -0.28189173094E+02 -0.26626552791E+03  0.30421517020E+03  0.10033708706E+04  0.91788576273E+03 0.  0.
        -24    2    4    4    0    0 -0.26043138363E+03  0.25832808568E+03  0.92582148513E+02  0.38665735727E+03  0.79840793308E+02 0.  0.
         24    2    4    4    0    0  0.23224221053E+03 -0.52459361360E+03  0.21163302168E+03  0.61671351337E+03  0.80075701184E+02 0.  0.
         13    1    3    3    0    0 -0.11274015486E+01  0.22268928988E+03 -0.61280515840E+03  0.65201376751E+03  0.00000000000E+00 0.  1.
        -13    1    3    3    0    0  0.29316574643E+02  0.43576238033E+02 -0.75466269764E+02  0.91942960264E+02  0.00000000000E+00 0. -1.
          4    1    6    6  502    0  0.65783352991E+02 -0.24479105283E+03  0.10098202201E+03  0.27285065117E+03  0.00000000000E+00 0. -1.
          3    1    5    5  503    0 -0.43034542002E+02  0.28533111836E+02  0.41459111176E+02  0.66219092231E+02  0.00000000000E+00 0. -1.
         -4    1    5    5    0  503 -0.21739684163E+03  0.22979497385E+03  0.51123037337E+02  0.32043826504E+03  0.00000000000E+00 0.  1.
         -3    1    6    6    0  502  0.16645885754E+03 -0.27980256076E+03  0.11065099968E+03  0.34386286219E+03  0.00000000000E+00 0.  1.
<mgrwt>
<rscale>  0 0.17045981E+04</rscale>
<asrwt>0</asrwt>
<pdfrwt beam="1">  1        1 0.10486703E+00 0.17045981E+04</pdfrwt>
<pdfrwt beam="2">  1       -1 0.16395260E+00 0.17045981E+04</pdfrwt>
<totfact> 0.73622514E+00</totfact>
</mgrwt>
</event>
<event>
12    1  0.1602037E-007  0.1584060E+04  0.7818608E-02  0.8830401E-01
          1   -1    0    0  501    0  0.00000000000E+00  0.00000000000E+00  0.12148813087E+04  0.12148813087E+04  0.00000000000E+00 0. -1.
         -1   -1    0    0    0  501 -0.00000000000E+00 -0.00000000000E+00 -0.51635638614E+03  0.51635638614E+03  0.00000000000E+00 0.  1.
         23    2    1    2    0    0  0.43257237033E+03 -0.69626288391E+02  0.46279297782E+03  0.64486349509E+03  0.98513508579E+02 0.  0.
        254    2    1    2    0    0 -0.43257237033E+03  0.69626288391E+02  0.23573194478E+03  0.10863741998E+04  0.96574980019E+03 0.  0.
        -24    2    4    4    0    0 -0.44057740084E+02  0.11281418496E+03 -0.34943822700E+03  0.37810293650E+03  0.78655141638E+02 0.  0.
         24    2    4    4    0    0 -0.38851463025E+03 -0.43187896565E+02  0.58517017179E+03  0.70827126329E+03  0.80095194139E+02 0.  0.
         11    1    3    3    0    0  0.19330534749E+03 -0.10107221846E+02  0.26824227881E+03  0.33079152565E+03  0.00000000000E+00 0. -1.
        -11    1    3    3    0    0  0.23926702284E+03 -0.59519066545E+02  0.19455069900E+03  0.31407196944E+03  0.00000000000E+00 0.  1.
          2    1    6    6  502    0 -0.77772228983E+02 -0.16756088997E+02  0.69538644373E+02  0.10566413384E+03  0.00000000000E+00 0. -1.
          1    1    5    5  503    0 -0.11324957759E+02  0.32524520690E+02 -0.25746809544E+02  0.42999968792E+02  0.00000000000E+00 0. -1.
         -2    1    5    5    0  503 -0.32732782325E+02  0.80289664266E+02 -0.32369141746E+03  0.33510296770E+03  0.00000000000E+00 0.  1.
         -1    1    6    6    0  502 -0.31074240126E+03 -0.26431807568E+02  0.51563152742E+03  0.60260712945E+03  0.00000000000E+00 0.  1.
<mgrwt>
<rscale>  0 0.15840603E+04</rscale>
<asrwt>0</asrwt>
<pdfrwt beam="1">  1        1 0.18690482E+00 0.15840603E+04</pdfrwt>
<pdfrwt beam="2">  1       -1 0.79439445E-01 0.15840603E+04</pdfrwt>
<totfact> 0.15855823E+01</totfact>
</mgrwt>
</event>
<event>
12    1  0.1472088E-007  0.2332711E+04  0.7818608E-02  0.8465134E-01
         -2   -1    0    0    0  501 -0.00000000000E+00  0.00000000000E+00  0.14607174464E+04  0.14607174464E+04  0.00000000000E+00 0.  1.
          2   -1    0    0  501    0  0.00000000000E+00 -0.00000000000E+00 -0.93131335005E+03  0.93131335005E+03  0.00000000000E+00 0. -1.
         23    2    1    2    0    0 -0.75029370397E+03  0.64487142269E+03  0.16775515186E+03  0.10076755676E+04  0.92024260398E+02 0.  0.
        254    2    1    2    0    0  0.75029370397E+03 -0.64487142269E+03  0.36164894446E+03  0.13843552288E+04  0.89824809856E+03 0.  0.
        -24    2    4    4    0    0  0.74617349726E+03 -0.70669125916E+03  0.55147301272E+03  0.11689816636E+04  0.78792272670E+02 0.  0.
         24    2    4    4    0    0  0.41202067163E+01  0.61819836472E+02 -0.18982406827E+03  0.21537356526E+03  0.80708905549E+02 0.  0.
         11    1    3    3    0    0 -0.72410893410E+03  0.61741762944E+03  0.14276897956E+03  0.96224802370E+03  0.00000000000E+00 0.  1.
        -11    1    3    3    0    0 -0.26184769867E+02  0.27453793249E+02  0.24986172296E+02  0.45427543878E+02  0.00000000000E+00 0. -1.
          2    1    6    6  502    0  0.38862106656E+02  0.16103699835E+02 -0.58587271040E+02  0.72125313240E+02  0.00000000000E+00 0. -1.
          3    1    5    5  503    0  0.17920311903E+00 -0.60494469433E+01  0.85068569574E+01  0.10440044893E+02  0.00000000000E+00 0. -1.
         -4    1    5    5    0  503  0.74599429414E+03 -0.70064181221E+03  0.54296615577E+03  0.11585416187E+04  0.00000000000E+00 0.  1.
         -1    1    6    6    0  502 -0.34741899940E+02  0.45716136637E+02 -0.13123679723E+03  0.14324825202E+03  0.00000000000E+00 0.  1.
<mgrwt>
<rscale>  0 0.23327114E+04</rscale>
<asrwt>0</asrwt>
<pdfrwt beam="1">  1        2 0.14327898E+00 0.23327114E+04</pdfrwt>
<pdfrwt beam="2">  1       -2 0.22472576E+00 0.23327114E+04</pdfrwt>
<totfact> 0.23300464E+00</totfact>
</mgrwt>
</event>
<event>
12    1  0.1472088E-007  0.4441321E+04  0.7818608E-02  0.7920991E-01
         -1   -1    0    0    0  501 -0.00000000000E+00  0.00000000000E+00  0.19552837829E+04  0.19552837829E+04  0.00000000000E+00 0.  1.
          1   -1    0    0  501    0  0.00000000000E+00 -0.00000000000E+00 -0.25220543647E+04  0.25220543647E+04  0.00000000000E+00 0. -1.
         23    2    1    2    0    0  0.59271806468E+03 -0.13630065917E+04 -0.18084566428E+04  0.23426571397E+04  0.91789825242E+02 0.  0.
        254    2    1    2    0    0 -0.59271806468E+03  0.13630065917E+04  0.12416860610E+04  0.21346810079E+04  0.89776225039E+03 0.  0.
        -24    2    4    4    0    0 -0.69264951431E+03  0.58037927996E+03  0.44535617835E+03  0.10105309031E+04  0.78912117126E+02 0.  0.
         24    2    4    4    0    0  0.99931449628E+02  0.78262731173E+03  0.79632988269E+03  0.11241501048E+04  0.84144949016E+02 0.  0.
         11    1    3    3    0    0  0.37322892404E+03 -0.91283898660E+03 -0.12575796011E+04  0.15981493355E+04  0.00000000000E+00 0. -1.
        -11    1    3    3    0    0  0.21948914065E+03 -0.45016760509E+03 -0.55087704168E+03  0.74450780425E+03  0.00000000000E+00 0.  1.
          4    1    6    6  502    0  0.11040457610E+03  0.68753555247E+03  0.67688423600E+03  0.97111614922E+03  0.00000000000E+00 0. -1.
          3    1    5    5  503    0 -0.65820324788E+03  0.52571193407E+03  0.40962711338E+03  0.93669574845E+03  0.00000000000E+00 0. -1.
         -4    1    5    5    0  503 -0.34446266426E+02  0.54667345893E+02  0.35729064967E+02  0.73835154642E+02  0.00000000000E+00 0.  1.
         -3    1    6    6    0  502 -0.10473126475E+02  0.95091759262E+02  0.11944564669E+03  0.15303395562E+03  0.00000000000E+00 0.  1.
<mgrwt>
<rscale>  0 0.44413205E+04</rscale>
<asrwt>0</asrwt>
<pdfrwt beam="1">  1        1 0.38800836E+00 0.44413205E+04</pdfrwt>
<pdfrwt beam="2">  1       -1 0.30081289E+00 0.44413205E+04</pdfrwt>
<totfact> 0.32217148E-02</totfact>
</mgrwt>
</event>
<event>
12    1  0.1472088E-007  0.1522443E+04  0.7818608E-02  0.8869664E-01
         -2   -1    0    0    0  501 -0.00000000000E+00  0.00000000000E+00  0.21583776322E+03  0.21583776322E+03  0.00000000000E+00 0.  1.
          2   -1    0    0  501    0  0.00000000000E+00 -0.00000000000E+00 -0.26846928265E+04  0.26846928265E+04  0.00000000000E+00 0. -1.
         23    2    1    2    0    0  0.24499638543E+03  0.14808736778E+03 -0.15554237156E+04  0.15842168343E+04  0.91907266923E+02 0.  0.
        254    2    1    2    0    0 -0.24499638543E+03 -0.14808736778E+03 -0.91343134772E+03  0.13163137554E+04  0.90353305329E+03 0.  0.
        -24    2    4    4    0    0 -0.32360109864E+03  0.29781520814E+03 -0.64158481651E+03  0.78206878492E+03  0.81172275663E+02 0.  0.
         24    2    4    4    0    0  0.78604713211E+02 -0.44590257592E+03 -0.27184653121E+03  0.53424497051E+03  0.80680504685E+02 0.  0.
         11    1    3    3    0    0  0.25170016615E+03  0.14794544183E+03 -0.14818223278E+04  0.15103106431E+04  0.00000000000E+00 0. -1.
        -11    1    3    3    0    0 -0.67037807251E+01  0.14192595576E+00 -0.73601387721E+02  0.73906191172E+02  0.00000000000E+00 0.  1.
          4    1    6    6  502    0  0.11876307039E+02 -0.26399711239E+03 -0.13278475866E+03  0.29574873482E+03  0.00000000000E+00 0. -1.
          1    1    5    5  503    0 -0.17702819001E+03  0.19958906493E+03 -0.43603446632E+03  0.51117592933E+03  0.00000000000E+00 0. -1.
         -2    1    5    5    0  503 -0.14657290862E+03  0.98226143206E+02 -0.20555035019E+03  0.27089285560E+03  0.00000000000E+00 0.  1.
         -3    1    6    6    0  502  0.66728406171E+02 -0.18190546354E+03 -0.13906177255E+03  0.23849623569E+03  0.00000000000E+00 0.  1.
<mgrwt>
<rscale>  0 0.15224429E+04</rscale>
<asrwt>0</asrwt>
<pdfrwt beam="1">  1        2 0.41302968E+00 0.15224429E+04</pdfrwt>
<pdfrwt beam="2">  1       -2 0.33205809E-01 0.15224429E+04</pdfrwt>
<totfact> 0.22242922E+01</totfact>
</mgrwt>
</event>
<event>
12    1  0.1472088E-007  0.1568431E+04  0.7818608E-02  0.8840180E-01
          2   -1    0    0  501    0  0.00000000000E+00  0.00000000000E+00  0.19904005534E+04  0.19904005534E+04  0.00000000000E+00 0.  1.
         -2   -1    0    0    0  501 -0.00000000000E+00 -0.00000000000E+00 -0.30898012415E+03  0.30898012415E+03  0.00000000000E+00 0. -1.
         23    2    1    2    0    0  0.56997445615E+02 -0.19434983708E+02  0.13335079794E+04  0.13376303211E+04  0.85935541280E+02 0.  0.
        254    2    1    2    0    0 -0.56997445615E+02  0.19434983708E+02  0.34791244985E+03  0.96175035651E+03  0.89459166556E+03 0.  0.
        -24    2    4    4    0    0 -0.21349817803E+03  0.35240671433E+03 -0.39115443389E+02  0.42198482907E+03  0.82275231581E+02 0.  0.
         24    2    4    4    0    0  0.15650073241E+03 -0.33297173062E+03  0.38702789324E+03  0.53976552744E+03  0.78699312774E+02 0.  0.
         13    1    3    3    0    0  0.35120283056E+02  0.29591326604E+01  0.11993579463E+04  0.11998756911E+04  0.00000000000E+00 0.  1.
        -13    1    3    3    0    0  0.21877162560E+02 -0.22394116369E+02  0.13415003313E+03  0.13775462997E+03  0.00000000000E+00 0. -1.
          2    1    6    6  502    0  0.15675405369E+03 -0.26978153044E+03  0.30615193234E+03  0.43713031603E+03  0.00000000000E+00 0. -1.
          3    1    5    5  503    0 -0.12708439627E+03  0.16601694392E+03  0.14749296318E+02  0.20959391972E+03  0.00000000000E+00 0. -1.
         -4    1    5    5    0  503 -0.86413781763E+02  0.18638977041E+03 -0.53864739707E+02  0.21239090935E+03  0.00000000000E+00 0.  1.
         -1    1    6    6    0  502 -0.25332127812E+00 -0.63190200179E+02  0.80875960904E+02  0.10263521142E+03  0.00000000000E+00 0.  1.
<mgrwt>
<rscale>  0 0.15684313E+04</rscale>
<asrwt>0</asrwt>
<pdfrwt beam="1">  1        2 0.30621546E+00 0.15684313E+04</pdfrwt>
<pdfrwt beam="2">  1       -2 0.47535405E-01 0.15684313E+04</pdfrwt>
<totfact> 0.27274211E+01</totfact>
</mgrwt>
</event>
<event>
12    1  0.1472088E-007  0.1786156E+04  0.7818608E-02  0.8713697E-01
         -2   -1    0    0    0  501 -0.00000000000E+00  0.00000000000E+00  0.11287482466E+04  0.11287482466E+04  0.00000000000E+00 0.  1.
          2   -1    0    0  501    0  0.00000000000E+00 -0.00000000000E+00 -0.70661288971E+03  0.70661288971E+03  0.00000000000E+00 0. -1.
         23    2    1    2    0    0  0.39112050023E+03  0.54858886211E+03  0.13855629688E+03  0.69383602838E+03  0.91025279686E+02 0.  0.
        254    2    1    2    0    0 -0.39112050023E+03 -0.54858886211E+03  0.28357906004E+03  0.11415251080E+04  0.87677676947E+03 0.  0.
        -24    2    4    4    0    0 -0.11139550561E+03 -0.20659094980E+03  0.56184491999E+03  0.61416441516E+03  0.80246093520E+02 0.  0.
         24    2    4    4    0    0 -0.27972499462E+03 -0.34199791231E+03 -0.27826585994E+03  0.52736069280E+03  0.73951111303E+02 0.  0.
         13    1    3    3    0    0  0.37517930178E+03  0.54578254911E+03  0.12811751771E+03  0.67457556860E+03  0.00000000000E+00 0. -1.
        -13    1    3    3    0    0  0.15941198448E+02  0.28063129977E+01  0.10438779168E+02  0.19260459785E+02  0.00000000000E+00 0.  1.
          2    1    6    6  502    0 -0.14870825780E+03 -0.12466510148E+03 -0.11381716991E+03  0.22496640112E+03  0.00000000000E+00 0. -1.
          3    1    5    5  503    0 -0.21601182186E+02 -0.12345155335E+03  0.26799123168E+03  0.29584826745E+03  0.00000000000E+00 0. -1.
         -4    1    5    5    0  503 -0.89794323421E+02 -0.83139396450E+02  0.29385368831E+03  0.31831614771E+03  0.00000000000E+00 0.  1.
         -1    1    6    6    0  502 -0.13101673682E+03 -0.21733281083E+03 -0.16444869003E+03  0.30239429168E+03  0.00000000000E+00 0.  1.
<mgrwt>
<rscale>  0 0.17861557E+04</rscale>
<asrwt>0</asrwt>
<pdfrwt beam="1">  1        2 0.10870968E+00 0.17861557E+04</pdfrwt>
<pdfrwt beam="2">  1       -2 0.17365358E+00 0.17861557E+04</pdfrwt>
<totfact> 0.76786595E+00</totfact>
</mgrwt>
</event>
<event>
12    1  0.1494234E-007  0.1559556E+04  0.7818608E-02  0.8845787E-01
          1   -1    0    0  501    0  0.00000000000E+00  0.00000000000E+00  0.18373078767E+04  0.18373078767E+04  0.00000000000E+00 0. -1.
         -1   -1    0    0    0  501 -0.00000000000E+00 -0.00000000000E+00 -0.33094823416E+03  0.33094823416E+03  0.00000000000E+00 0.  1.
         23    2    1    2    0    0 -0.20029538443E+03 -0.40037170571E+03  0.85664318451E+03  0.97081450388E+03  0.90705631684E+02 0.  0.
        254    2    1    2    0    0  0.20029538443E+03  0.40037170571E+03  0.64971645803E+03  0.11974416070E+04  0.90073258103E+03 0.  0.
        -24    2    4    4    0    0 -0.14044359598E+03 -0.91454530715E+02 -0.11911008200E+03  0.21990094776E+03  0.77979999682E+02 0.  0.
         24    2    4    4    0    0  0.34073898041E+03  0.49182623643E+03  0.76882654003E+03  0.97754065922E+03  0.80593995879E+02 0.  0.
         11    1    3    3    0    0 -0.19470328819E+03 -0.40143059536E+03  0.81806529657E+03  0.93181903971E+03  0.00000000000E+00 0. -1.
        -11    1    3    3    0    0 -0.55920962488E+01  0.10588896491E+01  0.38577887935E+02  0.38995464163E+02  0.00000000000E+00 0.  1.
          4    1    6    6  502    0  0.31703037723E+03  0.40980482187E+03  0.65039478710E+03  0.83154171946E+03  0.00000000000E+00 0. -1.
          3    1    5    5  503    0 -0.10974291589E+03 -0.10351113922E+03 -0.88491298138E+02  0.17489646474E+03  0.00000000000E+00 0. -1.
         -4    1    5    5    0  503 -0.30700680090E+02  0.12056608509E+02 -0.30618783859E+02  0.45004483018E+02  0.00000000000E+00 0.  1.
         -3    1    6    6    0  502  0.23708603188E+02  0.82021414558E+02  0.11843175293E+03  0.14599893977E+03  0.00000000000E+00 0.  1.
<mgrwt>
<rscale>  0 0.15595561E+04</rscale>
<asrwt>0</asrwt>
<pdfrwt beam="1">  1        1 0.28266275E+00 0.15595561E+04</pdfrwt>
<pdfrwt beam="2">  1       -1 0.50915114E-01 0.15595561E+04</pdfrwt>
<totfact> 0.14346921E+01</totfact>
</mgrwt>
</event>
<event>
12    1  0.1472088E-007  0.1918436E+04  0.7818608E-02  0.8645734E-01
         -2   -1    0    0    0  501 -0.00000000000E+00  0.00000000000E+00  0.26147211036E+03  0.26147211036E+03  0.00000000000E+00 0.  1.
          2   -1    0    0  501    0  0.00000000000E+00 -0.00000000000E+00 -0.35189171874E+04  0.35189171874E+04  0.00000000000E+00 0. -1.
         23    2    1    2    0    0  0.21136731541E+03  0.13648412780E+03 -0.26490387353E+04  0.26624721221E+04  0.89707975818E+02 0.  0.
        254    2    1    2    0    0 -0.21136731541E+03 -0.13648412780E+03 -0.60840634172E+03  0.11179171756E+04  0.90348020214E+03 0.  0.
        -24    2    4    4    0    0  0.21905642432E+03  0.11481969411E+03 -0.55141355472E+03  0.60952578323E+03  0.79344142202E+02 0.  0.
         24    2    4    4    0    0 -0.43042373972E+03 -0.25130382191E+03 -0.56992787002E+02  0.50839139236E+03  0.82434358296E+02 0.  0.
         11    1    3    3    0    0  0.74517622110E+02  0.35279161684E+01 -0.61643241178E+03  0.62093014140E+03  0.00000000000E+00 0.  1.
        -11    1    3    3    0    0  0.13684969330E+03  0.13295621163E+03 -0.20326063235E+04  0.20415419807E+04  0.00000000000E+00 0. -1.
          4    1    6    6  502    0 -0.38277606582E+03 -0.24669840587E+03 -0.38277455627E+02  0.45699319868E+03  0.00000000000E+00 0. -1.
          1    1    5    5  503    0  0.20407228464E+03  0.11359528525E+03 -0.54545251214E+03  0.59335303925E+03  0.00000000000E+00 0. -1.
         -2    1    5    5    0  503  0.14984139682E+02  0.12244088647E+01 -0.59610425725E+01  0.16172743973E+02  0.00000000000E+00 0.  1.
         -3    1    6    6    0  502 -0.47647673900E+02 -0.46054160349E+01 -0.18715331375E+02  0.51398193678E+02  0.00000000000E+00 0.  1.
<mgrwt>
<rscale>  0 0.19184355E+04</rscale>
<asrwt>0</asrwt>
<pdfrwt beam="1">  1        2 0.54137188E+00 0.19184355E+04</pdfrwt>
<pdfrwt beam="2">  1       -2 0.40226478E-01 0.19184355E+04</pdfrwt>
<totfact> 0.43423691E+00</totfact>
</mgrwt>
</event>
<event>
12    1  0.1472088E-007  0.1833174E+04  0.7818608E-02  0.8688854E-01
          2   -1    0    0  501    0  0.00000000000E+00  0.00000000000E+00  0.29629691071E+04  0.29629691071E+04  0.00000000000E+00 0. -1.
         -2   -1    0    0    0  501 -0.00000000000E+00 -0.00000000000E+00 -0.28354384827E+03  0.28354384827E+03  0.00000000000E+00 0.  1.
         23    2    1    2    0    0 -0.24816095617E+03  0.25428966090E+03 -0.29053823833E+02  0.36828631879E+03  0.92431575339E+02 0.  0.
        254    2    1    2    0    0  0.24816095617E+03 -0.25428966090E+03  0.27084790826E+04  0.28782266366E+04  0.90668767419E+03 0.  0.
        -24    2    4    4    0    0  0.42173106682E+03 -0.24062610668E+03  0.67104135175E+03  0.83202203359E+03  0.78779138575E+02 0.  0.
         24    2    4    4    0    0 -0.17357011065E+03 -0.13663554226E+02  0.20374377309E+04  0.20462046030E+04  0.74077621324E+02 0.  0.
         13    1    3    3    0    0 -0.30522053595E+02  0.75879980602E+02  0.15841564174E+02  0.83308597199E+02  0.00000000000E+00 0. -1.
        -13    1    3    3    0    0 -0.21763890257E+03  0.17840968030E+03 -0.44895388007E+02  0.28497772159E+03  0.00000000000E+00 0.  1.
          2    1    6    6  502    0 -0.16856000889E+03 -0.18493433037E+02  0.16472905628E+04  0.16559953749E+04  0.00000000000E+00 0. -1.
          3    1    5    5  503    0  0.32365528446E+03 -0.16550520757E+03  0.44676973354E+03  0.57597561728E+03  0.00000000000E+00 0. -1.
         -4    1    5    5    0  503  0.98075782359E+02 -0.75120899102E+02  0.22427161821E+03  0.25604641630E+03  0.00000000000E+00 0.  1.
         -1    1    6    6    0  502 -0.50101017618E+01  0.48298788106E+01  0.39014716814E+03  0.39020922805E+03  0.00000000000E+00 0.  1.
<mgrwt>
<rscale>  0 0.18331739E+04</rscale>
<asrwt>0</asrwt>
<pdfrwt beam="1">  1        2 0.45584138E+00 0.18331739E+04</pdfrwt>
<pdfrwt beam="2">  1       -2 0.43622133E-01 0.18331739E+04</pdfrwt>
<totfact> 0.86456160E+00</totfact>
</mgrwt>
</event>
<event>
12    1  0.1472088E-007  0.2000368E+04  0.7818608E-02  0.8606449E-01
          1   -1    0    0  501    0  0.00000000000E+00  0.00000000000E+00  0.23176231721E+04  0.23176231721E+04  0.00000000000E+00 0. -1.
         -1   -1    0    0    0  501 -0.00000000000E+00 -0.00000000000E+00 -0.43163528678E+03  0.43163528678E+03  0.00000000000E+00 0.  1.
         23    2    1    2    0    0  0.19125217995E+02  0.25020425089E+02  0.18472542047E+04  0.18498028835E+04  0.91819471466E+02 0.  0.
        254    2    1    2    0    0 -0.19125217995E+02 -0.25020425089E+02  0.38733680596E+02  0.89945557537E+03  0.89806917240E+03 0.  0.
        -24    2    4    4    0    0 -0.43168883836E+03  0.82428571297E+02 -0.71975074330E+02  0.45157789256E+03  0.74782746611E+02 0.  0.
         24    2    4    4    0    0  0.41256362037E+03 -0.10744899639E+03  0.11070875493E+03  0.44787768280E+03  0.81141621014E+02 0.  0.
         13    1    3    3    0    0 -0.16418028641E+02  0.49149864037E+02  0.12048497286E+04  0.12059635688E+04  0.00000000000E+00 0.  1.
        -13    1    3    3    0    0  0.35543246636E+02 -0.24129438947E+02  0.64240447613E+03  0.64383931471E+03  0.00000000000E+00 0. -1.
          4    1    6    6  502    0  0.28790625507E+03 -0.41823352746E+02  0.95406736942E+02  0.30617258204E+03  0.00000000000E+00 0. -1.
          3    1    5    5  503    0 -0.39841947098E+03  0.94120102882E+02 -0.57275418930E+02  0.41337288522E+03  0.00000000000E+00 0. -1.
         -4    1    5    5    0  503 -0.33269367383E+02 -0.11691531585E+02 -0.14699655400E+02  0.38205007339E+02  0.00000000000E+00 0.  1.
         -3    1    6    6    0  502  0.12465736530E+03 -0.65625643640E+02  0.15302017984E+02  0.14170510076E+03  0.00000000000E+00 0.  1.
<mgrwt>
<rscale>  0 0.20003679E+04</rscale>
<asrwt>0</asrwt>
<pdfrwt beam="1">  1        1 0.35655741E+00 0.20003679E+04</pdfrwt>
<pdfrwt beam="2">  1       -1 0.66405430E-01 0.20003679E+04</pdfrwt>
<totfact> 0.38591478E+00</totfact>
</mgrwt>
</event>
<event>
12    1  0.1472088E-007  0.2459355E+04  0.7818608E-02  0.8417610E-01
          2   -1    0    0  501    0  0.00000000000E+00  0.00000000000E+00  0.28513518096E+04  0.28513518096E+04  0.00000000000E+00 0. -1.
         -2   -1    0    0    0  501 -0.00000000000E+00 -0.00000000000E+00 -0.53031222418E+03  0.53031222418E+03  0.00000000000E+00 0.  1.
         23    2    1    2    0    0 -0.77688204441E+03  0.42617022102E+02  0.18509198779E+02  0.78359606740E+03  0.91204632002E+02 0.  0.
        254    2    1    2    0    0  0.77688204441E+03 -0.42617022102E+02  0.23025303867E+04  0.25980679664E+04  0.91812257079E+03 0.  0.
        -24    2    4    4    0    0  0.83162399898E+03 -0.11315784914E+03  0.23274509458E+04  0.24754501406E+04  0.80139373826E+02 0.  0.
         24    2    4    4    0    0 -0.54741954567E+02  0.70540827042E+02 -0.24920559096E+02  0.12261782578E+03  0.80258376913E+02 0.  0.
         13    1    3    3    0    0 -0.22085725890E+03 -0.28046990383E+02 -0.36539145272E+01  0.22266098349E+03  0.00000000000E+00 0. -1.
        -13    1    3    3    0    0 -0.55602478551E+03  0.70664012485E+02  0.22163113306E+02  0.56093508391E+03  0.00000000000E+00 0.  1.
          2    1    6    6  502    0  0.11309676610E+02  0.10900279336E+02 -0.29591534829E+02  0.33501997077E+02  0.00000000000E+00 0. -1.
          1    1    5    5  503    0  0.67041975818E+03 -0.97309297607E+02  0.17807178731E+04  0.19052264682E+04  0.00000000000E+00 0. -1.
         -2    1    5    5    0  503  0.16120424080E+03 -0.15848551537E+02  0.54673307264E+03  0.57022367239E+03  0.00000000000E+00 0.  1.
         -1    1    6    6    0  502 -0.66051631176E+02  0.59640547706E+02  0.46709757331E+01  0.89115828706E+02  0.00000000000E+00 0.  1.
<mgrwt>
<rscale>  0 0.24593550E+04</rscale>
<asrwt>0</asrwt>
<pdfrwt beam="1">  1        2 0.43866950E+00 0.24593550E+04</pdfrwt>
<pdfrwt beam="2">  1       -2 0.81586497E-01 0.24593550E+04</pdfrwt>
<totfact> 0.25467500E+00</totfact>
</mgrwt>
</event>
<event>
12    1  0.1472088E-007  0.1610521E+04  0.7818608E-02  0.8814111E-01
          2   -1    0    0  501    0  0.00000000000E+00  0.00000000000E+00  0.18124725864E+04  0.18124725864E+04  0.00000000000E+00 0. -1.
         -2   -1    0    0    0  501 -0.00000000000E+00 -0.00000000000E+00 -0.35776788084E+03  0.35776788084E+03  0.00000000000E+00 0.  1.
         23    2    1    2    0    0  0.13402080491E+03  0.57332487122E+02 -0.21460686899E+03  0.27520880124E+03  0.91843267747E+02 0.  0.
        254    2    1    2    0    0 -0.13402080491E+03 -0.57332487122E+02  0.16693115745E+04  0.18950316660E+04  0.88503971209E+03 0.  0.
        -24    2    4    4    0    0 -0.78107039448E+00 -0.56286246631E+02 -0.86649027849E+02  0.13208484699E+03  0.82277585936E+02 0.  0.
         24    2    4    4    0    0 -0.13323973452E+03 -0.10462404908E+01  0.17559606024E+04  0.17629468190E+04  0.82643378319E+02 0.  0.
         11    1    3    3    0    0  0.61174623221E+02  0.32259016270E+02 -0.17586650068E+03  0.18897620146E+03  0.00000000000E+00 0.  1.
        -11    1    3    3    0    0  0.72846181692E+02  0.25073470852E+02 -0.38740368318E+02  0.86232599782E+02  0.00000000000E+00 0. -1.
          2    1    6    6  502    0 -0.71188998027E+02 -0.78766576187E+01  0.13784623556E+04  0.13803218397E+04  0.00000000000E+00 0. -1.
          1    1    5    5  503    0 -0.34898103915E+02 -0.29049486664E+01 -0.41444055987E+02  0.54257959418E+02  0.00000000000E+00 0. -1.
         -2    1    5    5    0  503  0.34117033520E+02 -0.53381297964E+02 -0.45204971863E+02  0.77826887575E+02  0.00000000000E+00 0.  1.
         -1    1    6    6    0  502 -0.62050736491E+02  0.68304171279E+01  0.37749824678E+03  0.38262497934E+03  0.00000000000E+00 0.  1.
<mgrwt>
<rscale>  0 0.16105210E+04</rscale>
<asrwt>0</asrwt>
<pdfrwt beam="1">  1        2 0.27884193E+00 0.16105210E+04</pdfrwt>
<pdfrwt beam="2">  1       -2 0.55041213E-01 0.16105210E+04</pdfrwt>
<totfact> 0.25257000E+01</totfact>
</mgrwt>
</event>
<event>
12    1  0.1472088E-007  0.1084805E+04  0.7818608E-02  0.9220130E-01
          2   -1    0    0  501    0  0.00000000000E+00  0.00000000000E+00  0.11326629193E+04  0.11326629193E+04  0.00000000000E+00 0. -1.
         -2   -1    0    0    0  501 -0.00000000000E+00 -0.00000000000E+00 -0.25974213221E+03  0.25974213221E+03  0.00000000000E+00 0.  1.
         23    2    1    2    0    0 -0.11150116926E+03  0.70293001742E+01  0.14102668429E+02  0.14514738896E+03  0.91580333360E+02 0.  0.
        254    2    1    2    0    0  0.11150116926E+03 -0.70293001742E+01  0.85881811865E+03  0.12472576625E+04  0.89755289203E+03 0.  0.
        -24    2    4    4    0    0  0.18849098298E+03  0.15062254772E+03 -0.95050375380E+02  0.27406178550E+03  0.88652613431E+02 0.  0.
         24    2    4    4    0    0 -0.76989813715E+02 -0.15765184789E+03  0.95386849403E+03  0.97319587702E+03  0.80396359304E+02 0.  0.
         11    1    3    3    0    0 -0.97885791643E+02  0.31600485274E+02  0.36579215728E+02  0.10917077401E+03  0.00000000000E+00 0.  1.
        -11    1    3    3    0    0 -0.13615377621E+02 -0.24571185100E+02 -0.22476547299E+02  0.35976614953E+02  0.00000000000E+00 0. -1.
          4    1    6    6  502    0 -0.84546408233E+00  0.53153511706E+01  0.47379703749E+01  0.71705042260E+01  0.00000000000E+00 0. -1.
          1    1    5    5  503    0  0.12426920869E+02  0.43363581503E+02  0.41016587444E+01  0.45295167154E+02  0.00000000000E+00 0. -1.
         -2    1    5    5    0  503  0.17606406211E+03  0.10725896621E+03 -0.99152034124E+02  0.22876661835E+03  0.00000000000E+00 0.  1.
         -3    1    6    6    0  502 -0.76144349633E+02 -0.16296719906E+03  0.94913052366E+03  0.96602537280E+03  0.00000000000E+00 0.  1.
<mgrwt>
<rscale>  0 0.10848046E+04</rscale>
<asrwt>0</asrwt>
<pdfrwt beam="1">  1        2 0.17425583E+00 0.10848046E+04</pdfrwt>
<pdfrwt beam="2">  1       -2 0.39960328E-01 0.10848046E+04</pdfrwt>
<totfact> 0.12239929E+02</totfact>
</mgrwt>
</event>
<event>
12    1  0.1472088E-007  0.1378568E+04  0.7818608E-02  0.8969480E-01
         -2   -1    0    0    0  501 -0.00000000000E+00  0.00000000000E+00  0.17161679721E+03  0.17161679721E+03  0.00000000000E+00 0.  1.
          2   -1    0    0  501    0  0.00000000000E+00 -0.00000000000E+00 -0.27684490091E+04  0.27684490091E+04  0.00000000000E+00 0. -1.
         23    2    1    2    0    0  0.63413869532E+02 -0.26324857847E+03 -0.26676475685E+03  0.39057532493E+03  0.89802650486E+02 0.  0.
        254    2    1    2    0    0 -0.63413869532E+02  0.26324857847E+03 -0.23300674551E+04  0.25494904814E+04  0.99868225012E+03 0.  0.
        -24    2    4    4    0    0 -0.23423389324E+03  0.40969323259E+03 -0.22462145130E+04  0.22965786612E+04  0.77973374099E+02 0.  0.
         24    2    4    4    0    0  0.17082002371E+03 -0.14644465412E+03 -0.83852942063E+02  0.25291182021E+03  0.79420121432E+02 0.  0.
         13    1    3    3    0    0  0.35314861706E+02 -0.10994118630E+03 -0.17512859473E+03  0.20977184891E+03  0.00000000000E+00 0. -1.
        -13    1    3    3    0    0  0.28099007827E+02 -0.15330739217E+03 -0.91636162118E+02  0.18080347602E+03  0.00000000000E+00 0.  1.
          2    1    6    6  502    0  0.15709666663E+03 -0.91879569389E+02 -0.69803737717E+02  0.19491993161E+03  0.00000000000E+00 0. -1.
          1    1    5    5  503    0 -0.17253014371E+03  0.26219716833E+03 -0.13312574707E+04  0.13677574561E+04  0.00000000000E+00 0. -1.
         -2    1    5    5    0  503 -0.61703749537E+02  0.14749606425E+03 -0.91495704234E+03  0.92882120508E+03  0.00000000000E+00 0.  1.
         -1    1    6    6    0  502  0.13723357080E+02 -0.54565084728E+02 -0.14049204346E+02  0.57991888603E+02  0.00000000000E+00 0.  1.
<mgrwt>
<rscale>  0 0.13785679E+04</rscale>
<asrwt>0</asrwt>
<pdfrwt beam="1">  1        2 0.42591521E+00 0.13785679E+04</pdfrwt>
<pdfrwt beam="2">  1       -2 0.26402586E-01 0.13785679E+04</pdfrwt>
<totfact> 0.30792005E+01</totfact>
</mgrwt>
</event>
<event>
12    1  0.1472088E-007  0.1676541E+04  0.7818608E-02  0.8774858E-01
          1   -1    0    0  501    0  0.00000000000E+00  0.00000000000E+00  0.97979009672E+03  0.97979009672E+03  0.00000000000E+00 0. -1.
         -1   -1    0    0    0  501 -0.00000000000E+00 -0.00000000000E+00 -0.71719199095E+03  0.71719199095E+03  0.00000000000E+00 0.  1.
         23    2    1    2    0    0  0.14673280772E+03  0.30925134922E+03 -0.39318089941E+03  0.52930681113E+03  0.91692784851E+02 0.  0.
        254    2    1    2    0    0 -0.14673280772E+03 -0.30925134922E+03  0.65577900518E+03  0.11676752765E+04  0.90346695233E+03 0.  0.
        -24    2    4    4    0    0 -0.49847077535E+03 -0.85588433913E+02  0.21082293138E+03  0.55278080668E+03  0.72950791190E+02 0.  0.
         24    2    4    4    0    0  0.35173796763E+03 -0.22366291531E+03  0.44495607380E+03  0.61489446986E+03  0.79778467629E+02 0.  0.
         11    1    3    3    0    0 -0.61760070744E+01  0.17290471552E+02 -0.30747837063E+01  0.18616062009E+02  0.00000000000E+00 0. -1.
        -11    1    3    3    0    0  0.15290881479E+03  0.29196087767E+03 -0.39010611570E+03  0.51069074912E+03  0.00000000000E+00 0.  1.
          2    1    6    6  502    0  0.80320963236E+02 -0.22465539595E+02  0.60232945505E+02  0.10287937271E+03  0.00000000000E+00 0. -1.
          1    1    5    5  503    0 -0.84885109362E+02 -0.49099455144E+01  0.64479205772E+02  0.10671062428E+03  0.00000000000E+00 0. -1.
         -2    1    5    5    0  503 -0.41358566599E+03 -0.80678488399E+02  0.14634372561E+03  0.44607018240E+03  0.00000000000E+00 0.  1.
         -1    1    6    6    0  502  0.27141700440E+03 -0.20119737571E+03  0.38472312829E+03  0.51201509715E+03  0.00000000000E+00 0.  1.
<mgrwt>
<rscale>  0 0.16765412E+04</rscale>
<asrwt>0</asrwt>
<pdfrwt beam="1">  1        1 0.15073694E+00 0.16765412E+04</pdfrwt>
<pdfrwt beam="2">  1       -1 0.11033723E+00 0.16765412E+04</pdfrwt>
<totfact> 0.11340791E+01</totfact>
</mgrwt>
</event>
<event>
12    1  0.1472088E-007  0.1773363E+04  0.7818608E-02  0.8720595E-01
          1   -1    0    0  501    0  0.00000000000E+00  0.00000000000E+00  0.20149741105E+04  0.20149741105E+04  0.00000000000E+00 0. -1.
         -1   -1    0    0    0  501 -0.00000000000E+00 -0.00000000000E+00 -0.39018052449E+03  0.39018052449E+03  0.00000000000E+00 0.  1.
         23    2    1    2    0    0 -0.47339688854E+03 -0.82511915688E+02  0.12177893246E+04  0.13121590670E+04  0.88531053892E+02 0.  0.
        254    2    1    2    0    0  0.47339688854E+03  0.82511915688E+02  0.40700426134E+03  0.10929955680E+04  0.89334988252E+03 0.  0.
        -24    2    4    4    0    0  0.48742089286E+03 -0.10105490261E+03  0.62111789815E+03  0.80003953329E+03  0.80526959944E+02 0.  0.
         24    2    4    4    0    0 -0.14024004328E+02  0.18356681830E+03 -0.21411363681E+03  0.29295603470E+03  0.78007303012E+02 0.  0.
         11    1    3    3    0    0 -0.20822647671E+02 -0.19453021472E+02  0.42533543720E+02  0.51196728819E+02  0.00000000000E+00 0.  1.
        -11    1    3    3    0    0 -0.45257424086E+03 -0.63058894216E+02  0.11752557809E+04  0.12609623381E+04  0.00000000000E+00 0. -1.
          4    1    6    6  502    0  0.22456133451E+02  0.12523337425E+03 -0.11014546377E+03  0.16828457786E+03  0.00000000000E+00 0. -1.
          3    1    5    5  503    0  0.19670367924E+02  0.88029575205E+01  0.13598036766E+02  0.25481798195E+02  0.00000000000E+00 0. -1.
         -4    1    5    5    0  503  0.46775052494E+03 -0.10985786013E+03  0.60751986139E+03  0.77455773509E+03  0.00000000000E+00 0.  1.
         -3    1    6    6    0  502 -0.36480137780E+02  0.58333444052E+02 -0.10396817304E+03  0.12467145685E+03  0.00000000000E+00 0.  1.
<mgrwt>
<rscale>  0 0.17733625E+04</rscale>
<asrwt>0</asrwt>
<pdfrwt beam="1">  1        1 0.30999601E+00 0.17733625E+04</pdfrwt>
<pdfrwt beam="2">  1       -1 0.60027774E-01 0.17733625E+04</pdfrwt>
<totfact> 0.77484450E+00</totfact>
</mgrwt>
</event>
<event>
12    1  0.1472088E-007  0.1765598E+04  0.7818608E-02  0.8724811E-01
          2   -1    0    0  501    0  0.00000000000E+00  0.00000000000E+00  0.13307063427E+04  0.13307063427E+04  0.00000000000E+00 0. -1.
         -2   -1    0    0    0  501 -0.00000000000E+00 -0.00000000000E+00 -0.58565468871E+03  0.58565468871E+03  0.00000000000E+00 0.  1.
         23    2    1    2    0    0 -0.12102626491E+03  0.33346774762E+03  0.87189741825E+03  0.94572192632E+03  0.91305851272E+02 0.  0.
        254    2    1    2    0    0  0.12102626491E+03 -0.33346774762E+03 -0.12684576427E+03  0.97063910509E+03  0.89454028915E+03 0.  0.
        -24    2    4    4    0    0  0.10697919678E+03  0.63719181308E+02 -0.43691662253E+03  0.46017754732E+03  0.73229484537E+02 0.  0.
         24    2    4    4    0    0  0.14047068138E+02 -0.39718692893E+03  0.31007085827E+03  0.51046155777E+03  0.80450532487E+02 0.  0.
         11    1    3    3    0    0 -0.11799076212E+03  0.20151332532E+03  0.52635248651E+03  0.57582669292E+03  0.00000000000E+00 0. -1.
        -11    1    3    3    0    0 -0.30355027964E+01  0.13195442230E+03  0.34554493174E+03  0.36989523340E+03  0.00000000000E+00 0.  1.
          2    1    6    6  502    0  0.18082809032E+02 -0.53023923542E+02  0.17394548395E+02  0.58660845239E+02  0.00000000000E+00 0. -1.
          3    1    5    5  503    0  0.82287873162E+02  0.36685271366E+02 -0.18675912502E+03  0.20735494685E+03  0.00000000000E+00 0. -1.
         -4    1    5    5    0  503  0.24691323614E+02  0.27033909942E+02 -0.25015749751E+03  0.25282260047E+03  0.00000000000E+00 0.  1.
         -1    1    6    6    0  502 -0.40357408945E+01 -0.34416300538E+03  0.29267630987E+03  0.45180071253E+03  0.00000000000E+00 0.  1.
<mgrwt>
<rscale>  0 0.17655984E+04</rscale>
<asrwt>0</asrwt>
<pdfrwt beam="1">  1        2 0.20472405E+00 0.17655984E+04</pdfrwt>
<pdfrwt beam="2">  1       -2 0.90100722E-01 0.17655984E+04</pdfrwt>
<totfact> 0.15832552E+01</totfact>
</mgrwt>
</event>
<event>
12    1  0.1472088E-007  0.1509835E+04  0.7818608E-02  0.8877939E-01
          2   -1    0    0  501    0  0.00000000000E+00  0.00000000000E+00  0.22269341503E+04  0.22269341503E+04  0.00000000000E+00 0.  1.
         -2   -1    0    0    0  501 -0.00000000000E+00 -0.00000000000E+00 -0.25591251660E+03  0.25591251660E+03  0.00000000000E+00 0. -1.
         23    2    1    2    0    0  0.42140746856E+03 -0.15026241783E+03  0.71041795097E+03  0.84433040686E+03  0.89649997895E+02 0.  0.
        254    2    1    2    0    0 -0.42140746856E+03  0.15026241783E+03  0.12606036827E+04  0.16385162600E+04  0.94628264314E+03 0.  0.
        -24    2    4    4    0    0 -0.54316149197E+03 -0.20467017811E+03  0.44083103298E+03  0.73332344548E+03  0.80727863149E+02 0.  0.
         24    2    4    4    0    0  0.12175402340E+03  0.35493259594E+03  0.81977264974E+03  0.90519281454E+03  0.80905156593E+02 0.  0.
         11    1    3    3    0    0  0.22390520632E+03 -0.92248265729E+02  0.46277020646E+03  0.52230216153E+03  0.00000000000E+00 0.  1.
        -11    1    3    3    0    0  0.19750226224E+03 -0.58014152098E+02  0.24764774450E+03  0.32202824533E+03  0.00000000000E+00 0. -1.
          2    1    6    6  502    0  0.53327735466E+02  0.23830431711E+03  0.45909320496E+03  0.51999939016E+03  0.00000000000E+00 0. -1.
          1    1    5    5  503    0 -0.14512112365E+03 -0.92253277238E+02  0.14280069134E+03  0.22352370151E+03  0.00000000000E+00 0. -1.
         -2    1    5    5    0  503 -0.39804036832E+03 -0.11241690088E+03  0.29803034164E+03  0.50979974397E+03  0.00000000000E+00 0.  1.
         -1    1    6    6    0  502  0.68426287937E+02  0.11662827883E+03  0.36067944478E+03  0.38519342439E+03  0.00000000000E+00 0.  1.
<mgrwt>
<rscale>  0 0.15098349E+04</rscale>
<asrwt>0</asrwt>
<pdfrwt beam="1">  1        2 0.34260524E+00 0.15098349E+04</pdfrwt>
<pdfrwt beam="2">  1       -2 0.39371158E-01 0.15098349E+04</pdfrwt>
<totfact> 0.29404699E+01</totfact>
</mgrwt>
</event>
<event>
12    1  0.1472088E-007  0.1575762E+04  0.7818608E-02  0.8835578E-01
         -2   -1    0    0    0  501 -0.00000000000E+00  0.00000000000E+00  0.67105340176E+03  0.67105340176E+03  0.00000000000E+00 0.  1.
          2   -1    0    0  501    0  0.00000000000E+00 -0.00000000000E+00 -0.92504815435E+03  0.92504815435E+03  0.00000000000E+00 0. -1.
         23    2    1    2    0    0  0.15458254868E+03  0.97966322280E+02 -0.57926172455E+03  0.61436141134E+03  0.91665880008E+02 0.  0.
        254    2    1    2    0    0 -0.15458254868E+03 -0.97966322280E+02  0.32526697196E+03  0.98174014477E+03  0.90803190701E+03 0.  0.
        -24    2    4    4    0    0 -0.76602672882E+02 -0.47290748508E+03  0.20775037912E+02  0.48603787327E+03  0.79320571853E+02 0.  0.
         24    2    4    4    0    0 -0.77979875793E+02  0.37494116280E+03  0.30449193404E+03  0.49570227149E+03  0.79647143550E+02 0.  0.
         13    1    3    3    0    0  0.91457665395E+02  0.45772120258E+01 -0.24089925237E+03  0.25771671506E+03  0.00000000000E+00 0.  1.
        -13    1    3    3    0    0  0.63124883280E+02  0.93389110255E+02 -0.33836247218E+03  0.35664469628E+03  0.00000000000E+00 0. -1.
          2    1    6    6  502    0 -0.48652709930E+02  0.13130806067E+03  0.15256405202E+03  0.20708617277E+03  0.00000000000E+00 0. -1.
          3    1    5    5  503    0 -0.12612122975E+02 -0.58390331106E+01  0.32892671895E+01  0.14282129822E+02  0.00000000000E+00 0. -1.
         -4    1    5    5    0  503 -0.63990549908E+02 -0.46706845197E+03  0.17485770722E+02  0.47175574345E+03  0.00000000000E+00 0.  1.
         -1    1    6    6    0  502 -0.29327165863E+02  0.24363310212E+03  0.15192788202E+03  0.28861609873E+03  0.00000000000E+00 0.  1.
<mgrwt>
<rscale>  0 0.15757623E+04</rscale>
<asrwt>0</asrwt>
<pdfrwt beam="1">  1        2 0.14231510E+00 0.15757623E+04</pdfrwt>
<pdfrwt beam="2">  1       -2 0.10323899E+00 0.15757623E+04</pdfrwt>
<totfact> 0.20746874E+01</totfact>
</mgrwt>
</event>
<event>
12    1  0.1472088E-007  0.1133018E+04  0.7818608E-02  0.9173595E-01
         -1   -1    0    0    0  501 -0.00000000000E+00  0.00000000000E+00  0.44746083021E+03  0.44746083021E+03  0.00000000000E+00 0.  1.
          1   -1    0    0  501    0  0.00000000000E+00 -0.00000000000E+00 -0.71722990345E+03  0.71722990345E+03  0.00000000000E+00 0. -1.
         23    2    1    2    0    0 -0.80526245210E+02 -0.23855571154E+02 -0.21900829636E+03  0.25192835869E+03  0.91922247573E+02 0.  0.
        254    2    1    2    0    0  0.80526245210E+02  0.23855571154E+02 -0.50760776891E+02  0.91276237497E+03  0.90747172531E+03 0.  0.
        -24    2    4    4    0    0 -0.12104694567E+03  0.30046082822E+02 -0.44165492705E+03  0.46590543126E+03  0.80334713169E+02 0.  0.
         24    2    4    4    0    0  0.20157319088E+03 -0.61905116679E+01  0.39089415016E+03  0.44685694370E+03  0.78821429765E+02 0.  0.
         11    1    3    3    0    0 -0.10263061264E+02  0.31776327858E+00  0.80331585413E+01  0.13036987235E+02  0.00000000000E+00 0.  1.
        -11    1    3    3    0    0 -0.70263183946E+02 -0.24173334433E+02 -0.22704145490E+03  0.23889137146E+03  0.00000000000E+00 0. -1.
          4    1    6    6  502    0  0.21936595463E+02 -0.25928634753E+02  0.42714678353E+02  0.54571531658E+02  0.00000000000E+00 0. -1.
          1    1    5    5  503    0 -0.30363215590E+02  0.47140345191E+02 -0.16658065695E+03  0.17576476404E+03  0.00000000000E+00 0. -1.
         -2    1    5    5    0  503 -0.90683730084E+02 -0.17094262369E+02 -0.27507427010E+03  0.29014066723E+03  0.00000000000E+00 0.  1.
         -3    1    6    6    0  502  0.17963659542E+03  0.19738123085E+02  0.34817947181E+03  0.39228541205E+03  0.00000000000E+00 0.  1.
<mgrwt>
<rscale>  0 0.11330177E+04</rscale>
<asrwt>0</asrwt>
<pdfrwt beam="1">  1        1 0.11034306E+00 0.11330177E+04</pdfrwt>
<pdfrwt beam="2">  1       -1 0.68840128E-01 0.11330177E+04</pdfrwt>
<totfact> 0.55747886E+01</totfact>
</mgrwt>
</event>
<event>
12    1  0.1472088E-007  0.1327284E+04  0.7818608E-02  0.9008204E-01
         -2   -1    0    0    0  501 -0.00000000000E+00  0.00000000000E+00  0.60129302251E+03  0.60129302251E+03  0.00000000000E+00 0.  1.
          2   -1    0    0  501    0  0.00000000000E+00 -0.00000000000E+00 -0.73245567370E+03  0.73245567370E+03  0.00000000000E+00 0. -1.
         23    2    1    2    0    0  0.12327679890E+03  0.15298067850E+03 -0.21414057253E+03  0.30485128598E+03  0.92075320358E+02 0.  0.
        254    2    1    2    0    0 -0.12327679890E+03 -0.15298067850E+03  0.82977921344E+02  0.10288974102E+04  0.10065506883E+04 0.  0.
        -24    2    4    4    0    0  0.30080094422E+02 -0.55874624242E+03  0.14807587280E+03  0.58341445495E+03  0.73101208167E+02 0.  0.
         24    2    4    4    0    0 -0.15335689332E+03  0.40576556392E+03 -0.65097951454E+02  0.44548295528E+03  0.77802895635E+02 0.  0.
         13    1    3    3    0    0  0.13060650019E+03  0.15461894396E+03 -0.21706943912E+03  0.29678985347E+03  0.00000000000E+00 0. -1.
        -13    1    3    3    0    0 -0.73297012910E+01 -0.16382654592E+01  0.29288665829E+01  0.80614325148E+01  0.00000000000E+00 0.  1.
          2    1    6    6  502    0 -0.33172232353E+02  0.50692868770E+02  0.14434034670E+02  0.62277646875E+02  0.00000000000E+00 0. -1.
          1    1    5    5  503    0  0.29536046227E+02 -0.24926788246E+03  0.32718444628E+02  0.25313504671E+03  0.00000000000E+00 0. -1.
         -2    1    5    5    0  503  0.54404819534E+00 -0.30947835996E+03  0.11535742817E+03  0.33027940824E+03  0.00000000000E+00 0.  1.
         -1    1    6    6    0  502 -0.12018466097E+03  0.35507269515E+03 -0.79531986124E+02  0.38320530841E+03  0.00000000000E+00 0.  1.
<mgrwt>
<rscale>  0 0.13272837E+04</rscale>
<asrwt>0</asrwt>
<pdfrwt beam="1">  1        2 0.11268549E+00 0.13272837E+04</pdfrwt>
<pdfrwt beam="2">  1       -2 0.92506619E-01 0.13272837E+04</pdfrwt>
<totfact> 0.37525092E+01</totfact>
</mgrwt>
</event>
<event>
12    1  0.1852462E-007  0.1567680E+04  0.7818608E-02  0.8840653E-01
          1   -1    0    0  501    0  0.00000000000E+00  0.00000000000E+00  0.11094432757E+04  0.11094432757E+04  0.00000000000E+00 0. -1.
         -1   -1    0    0    0  501 -0.00000000000E+00 -0.00000000000E+00 -0.55379607414E+03  0.55379607414E+03  0.00000000000E+00 0.  1.
         23    2    1    2    0    0 -0.11664392261E+02  0.16975202031E+03  0.70522703902E+03  0.73079290918E+03  0.88098201422E+02 0.  0.
        254    2    1    2    0    0  0.11664392261E+02 -0.16975202031E+03 -0.14957983750E+03  0.93244644063E+03  0.90450562762E+03 0.  0.
        -24    2    4    4    0    0 -0.42101132973E+03 -0.17227190758E+03  0.16011275903E+02  0.46232415396E+03  0.80988347785E+02 0.  0.
         24    2    4    4    0    0  0.43267572199E+03  0.25198872661E+01 -0.16559111340E+03  0.47012228666E+03  0.79874384786E+02 0.  0.
         13    1    3    3    0    0 -0.26323065651E+02  0.12932768926E+03  0.37029468893E+03  0.39311157658E+03  0.00000000000E+00 0.  1.
        -13    1    3    3    0    0  0.14658673390E+02  0.40424331056E+02  0.33493235009E+03  0.33768133260E+03  0.00000000000E+00 0. -1.
          4    1    6    6  502    0  0.29260806250E+03  0.34939441305E+02 -0.12953181408E+03  0.32189863880E+03  0.00000000000E+00 0. -1.
          1    1    5    5  503    0 -0.38083743346E+03 -0.17937237328E+03  0.19203812136E+02  0.42140287780E+03  0.00000000000E+00 0. -1.
         -2    1    5    5    0  503 -0.40173896275E+02  0.71004657005E+01 -0.31925362333E+01  0.40921276162E+02  0.00000000000E+00 0.  1.
         -3    1    6    6    0  502  0.14006765949E+03 -0.32419554039E+02 -0.36059299325E+02  0.14822364787E+03  0.00000000000E+00 0.  1.
<mgrwt>
<rscale>  0 0.15676802E+04</rscale>
<asrwt>0</asrwt>
<pdfrwt beam="1">  1        1 0.17068358E+00 0.15676802E+04</pdfrwt>
<pdfrwt beam="2">  1       -1 0.85199396E-01 0.15676802E+04</pdfrwt>
<totfact> 0.16347872E+01</totfact>
</mgrwt>
</event>
<event>
12    1  0.2279210E-007  0.2406526E+04  0.7818608E-02  0.8437064E-01
         -1   -1    0    0    0  501 -0.00000000000E+00  0.00000000000E+00  0.84711892601E+03  0.84711892601E+03  0.00000000000E+00 0.  1.
          1   -1    0    0  501    0  0.00000000000E+00 -0.00000000000E+00 -0.17091366903E+04  0.17091366903E+04  0.00000000000E+00 0. -1.
         23    2    1    2    0    0  0.27767939395E+03 -0.99284682295E+03 -0.45805814935E+03  0.11317377840E+04  0.90346466318E+02 0.  0.
        254    2    1    2    0    0 -0.27767939395E+03  0.99284682295E+03 -0.40395961490E+03  0.14245178322E+04  0.89622375788E+03 0.  0.
        -24    2    4    4    0    0 -0.11622784083E+03  0.61040244094E+03  0.22555348059E+03  0.66618222368E+03  0.82609513076E+02 0.  0.
         24    2    4    4    0    0 -0.16145155311E+03  0.38244438202E+03 -0.62951309549E+03  0.75833560855E+03  0.80348294721E+02 0.  0.
         13    1    3    3    0    0  0.16543919591E+02 -0.14197671464E+02 -0.12996679559E+02  0.25380875280E+02  0.00000000000E+00 0.  1.
        -13    1    3    3    0    0  0.26113547436E+03 -0.97864915149E+03 -0.44506146979E+03  0.11063569088E+04  0.00000000000E+00 0. -1.
          2    1    6    6  502    0 -0.85828796445E+02  0.13107062482E+03 -0.18848269362E+03  0.24509552583E+03  0.00000000000E+00 0. -1.
          3    1    5    5  503    0  0.69973337907E+01  0.10967061599E+03  0.56085270511E+02  0.12337813526E+03  0.00000000000E+00 0. -1.
         -4    1    5    5    0  503 -0.12322517462E+03  0.50073182494E+03  0.16946821008E+03  0.54280408841E+03  0.00000000000E+00 0.  1.
         -1    1    6    6    0  502 -0.75622756669E+02  0.25137375720E+03 -0.44103040187E+03  0.51324008272E+03  0.00000000000E+00 0.  1.
<mgrwt>
<rscale>  0 0.24065262E+04</rscale>
<asrwt>0</asrwt>
<pdfrwt beam="1">  1        1 0.26294411E+00 0.24065262E+04</pdfrwt>
<pdfrwt beam="2">  1       -1 0.13032599E+00 0.24065262E+04</pdfrwt>
<totfact> 0.21202834E+00</totfact>
</mgrwt>
</event>
<event>
12    1  0.1472088E-007  0.1748813E+04  0.7818608E-02  0.8734004E-01
         -1   -1    0    0    0  501 -0.00000000000E+00  0.00000000000E+00  0.23499958491E+03  0.23499958491E+03  0.00000000000E+00 0.  1.
          1   -1    0    0  501    0  0.00000000000E+00 -0.00000000000E+00 -0.32535645933E+04  0.32535645933E+04  0.00000000000E+00 0. -1.
         23    2    1    2    0    0 -0.18302592231E+03 -0.62336657122E+03 -0.15503857305E+04  0.16834100107E+04  0.89938758113E+02 0.  0.
        254    2    1    2    0    0  0.18302592231E+03  0.62336657122E+03 -0.14681792779E+04  0.18051541675E+04  0.82519501109E+03 0.  0.
        -24    2    4    4    0    0  0.16078074610E+03  0.81812509123E+03 -0.11433513819E+04  0.14174723125E+04  0.82439437140E+02 0.  0.
         24    2    4    4    0    0  0.22245176210E+02 -0.19475852001E+03 -0.32482789591E+03  0.38768185508E+03  0.79739136042E+02 0.  0.
         11    1    3    3    0    0 -0.70466350085E+02 -0.24369563185E+03 -0.49592459686E+03  0.55704063878E+03  0.00000000000E+00 0. -1.
        -11    1    3    3    0    0 -0.11255957223E+03 -0.37967093937E+03 -0.10544611337E+04  0.11263693719E+04  0.00000000000E+00 0.  1.
          4    1    6    6  502    0  0.38036864007E+02 -0.96945059667E+02 -0.22020646440E+03  0.24358989015E+03  0.00000000000E+00 0. -1.
          3    1    5    5  503    0  0.14144823303E+03  0.79578183247E+03 -0.11004712705E+04  0.13653986028E+04  0.00000000000E+00 0. -1.
         -4    1    5    5    0  503  0.19332513073E+02  0.22343258757E+02 -0.42880111495E+02  0.52073709637E+02  0.00000000000E+00 0.  1.
         -3    1    6    6    0  502 -0.15791687797E+02 -0.97813460342E+02 -0.10462143150E+03  0.14409196493E+03  0.00000000000E+00 0.  1.
<mgrwt>
<rscale>  0 0.17488125E+04</rscale>
<asrwt>0</asrwt>
<pdfrwt beam="1">  1        1 0.50054837E+00 0.17488125E+04</pdfrwt>
<pdfrwt beam="2">  1       -1 0.36153784E-01 0.17488125E+04</pdfrwt>
<totfact> 0.27011997E+00</totfact>
</mgrwt>
</event>
<event>
12    1  0.1472088E-007  0.1662591E+04  0.7818608E-02  0.8782992E-01
          1   -1    0    0  501    0  0.00000000000E+00  0.00000000000E+00  0.11733100192E+04  0.11733100192E+04  0.00000000000E+00 0. -1.
         -1   -1    0    0    0  501 -0.00000000000E+00 -0.00000000000E+00 -0.58897662271E+03  0.58897662271E+03  0.00000000000E+00 0.  1.
         23    2    1    2    0    0  0.30875023152E+01  0.40171188171E+03  0.63674944708E+03  0.75859085230E+03  0.92888396738E+02 0.  0.
        254    2    1    2    0    0 -0.30875023152E+01 -0.40171188171E+03 -0.52416050631E+02  0.10036957896E+04  0.91830051022E+03 0.  0.
        -24    2    4    4    0    0 -0.33913316162E+03 -0.41505165219E+03  0.19624592677E+03  0.57782237007E+03  0.89928039456E+02 0.  0.
         24    2    4    4    0    0  0.33604565931E+03  0.13339770479E+02 -0.24866197740E+03  0.42587341951E+03  0.80191993511E+02 0.  0.
         11    1    3    3    0    0  0.17745824005E+01  0.15021105884E+03  0.15935732054E+03  0.21900060947E+03  0.00000000000E+00 0. -1.
        -11    1    3    3    0    0  0.13129199148E+01  0.25150082287E+03  0.47739212654E+03  0.53959024282E+03  0.00000000000E+00 0.  1.
          2    1    6    6  502    0  0.32881703612E+03  0.13766495163E+02 -0.21893083367E+03  0.39527315816E+03  0.00000000000E+00 0. -1.
          1    1    5    5  503    0 -0.28424906205E+03 -0.32648224342E+03  0.12157129900E+03  0.44963069878E+03  0.00000000000E+00 0. -1.
         -2    1    5    5    0  503 -0.54884099576E+02 -0.88569408774E+02  0.74674627766E+02  0.12819167129E+03  0.00000000000E+00 0.  1.
         -1    1    6    6    0  502  0.72286231914E+01 -0.42672468379E+00 -0.29731143729E+02  0.30600261349E+02  0.00000000000E+00 0.  1.
<mgrwt>
<rscale>  0 0.16625910E+04</rscale>
<asrwt>0</asrwt>
<pdfrwt beam="1">  1        1 0.18050923E+00 0.16625910E+04</pdfrwt>
<pdfrwt beam="2">  1       -1 0.90611788E-01 0.16625910E+04</pdfrwt>
<totfact> 0.12700515E+01</totfact>
</mgrwt>
</event>
<event>
12    1  0.1472088E-007  0.1069410E+04  0.7818608E-02  0.9235531E-01
          1   -1    0    0  501    0  0.00000000000E+00  0.00000000000E+00  0.31110507527E+03  0.31110507527E+03  0.00000000000E+00 0. -1.
         -1   -1    0    0    0  501 -0.00000000000E+00 -0.00000000000E+00 -0.91901212855E+03  0.91901212855E+03  0.00000000000E+00 0.  1.
         23    2    1    2    0    0  0.35140412522E+02  0.46270663679E+02 -0.21948773352E+03  0.24516535708E+03  0.92495211955E+02 0.  0.
        254    2    1    2    0    0 -0.35140412522E+02 -0.46270663679E+02 -0.38841931976E+03  0.98495184675E+03  0.90326338879E+03 0.  0.
        -24    2    4    4    0    0 -0.22819561275E+03  0.26291477914E+03 -0.48107403546E+03  0.59985767624E+03  0.84850370557E+02 0.  0.
         24    2    4    4    0    0  0.19305520023E+03 -0.30918544282E+03  0.92654715698E+02  0.38509417051E+03  0.82744639888E+02 0.  0.
         13    1    3    3    0    0 -0.22271509337E+02  0.45876961920E+02 -0.11830758534E+03  0.12883089890E+03  0.00000000000E+00 0.  1.
        -13    1    3    3    0    0  0.57411921858E+02  0.39370175852E+00 -0.10118014818E+03  0.11633445818E+03  0.00000000000E+00 0. -1.
          4    1    6    6  502    0  0.17828805756E+03 -0.29658053404E+03  0.66264905470E+02  0.35233177878E+03  0.00000000000E+00 0. -1.
          3    1    5    5  503    0 -0.24803175706E+02  0.82705252010E+02 -0.10680417950E+03  0.13734077688E+03  0.00000000000E+00 0. -1.
         -4    1    5    5    0  503 -0.20339243705E+03  0.18020952713E+03 -0.37426985596E+03  0.46251689936E+03  0.00000000000E+00 0.  1.
         -3    1    6    6    0  502  0.14767142673E+02 -0.12604908780E+02  0.26389810228E+02  0.32762391730E+02  0.00000000000E+00 0.  1.
<mgrwt>
<rscale>  0 0.10694098E+04</rscale>
<asrwt>0</asrwt>
<pdfrwt beam="1">  1        1 0.47862320E-01 0.10694098E+04</pdfrwt>
<pdfrwt beam="2">  1       -1 0.14138648E+00 0.10694098E+04</pdfrwt>
<totfact> 0.34101057E+01</totfact>
</mgrwt>
</event>
<event>
12    1  0.1472088E-007  0.1840337E+04  0.7818608E-02  0.8685138E-01
          2   -1    0    0  501    0  0.00000000000E+00  0.00000000000E+00  0.28065808074E+04  0.28065808074E+04  0.00000000000E+00 0.  1.
         -2   -1    0    0    0  501 -0.00000000000E+00 -0.00000000000E+00 -0.30168729987E+03  0.30168729987E+03  0.00000000000E+00 0. -1.
         23    2    1    2    0    0 -0.55339992136E+03 -0.36776429638E+03  0.13064712138E+04  0.14686169419E+04  0.92014341020E+02 0.  0.
        254    2    1    2    0    0  0.55339992136E+03  0.36776429638E+03  0.11984222937E+04  0.16396511653E+04  0.90040985068E+03 0.  0.
        -24    2    4    4    0    0  0.42222351399E+03  0.26782471619E+03  0.13239051956E+04  0.14175065298E+04  0.81222045229E+02 0.  0.
         24    2    4    4    0    0  0.13117640737E+03  0.99939580190E+02 -0.12548290191E+03  0.22214463553E+03  0.80044430701E+02 0.  0.
         13    1    3    3    0    0 -0.11949236261E+03 -0.37233477699E+02  0.25724247739E+03  0.28607420148E+03  0.00000000000E+00 0.  1.
        -13    1    3    3    0    0 -0.43390755875E+03 -0.33053081869E+03  0.10492287364E+04  0.11825427404E+04  0.00000000000E+00 0. -1.
          4    1    6    6  502    0  0.10638342425E+03  0.10557720861E+03 -0.12731235496E+03  0.19665303369E+03  0.00000000000E+00 0. -1.
          3    1    5    5  503    0  0.39558963653E+03  0.27078807556E+03  0.12650581137E+04  0.13528449185E+04  0.00000000000E+00 0. -1.
         -4    1    5    5    0  503  0.26633877468E+02 -0.29633593699E+01  0.58847081911E+02  0.64661611309E+02  0.00000000000E+00 0.  1.
         -3    1    6    6    0  502  0.24792983116E+02 -0.56376284189E+01  0.18294530561E+01  0.25491601842E+02  0.00000000000E+00 0.  1.
<mgrwt>
<rscale>  0 0.18403367E+04</rscale>
<asrwt>0</asrwt>
<pdfrwt beam="1">  1        2 0.43178164E+00 0.18403367E+04</pdfrwt>
<pdfrwt beam="2">  1       -2 0.46413433E-01 0.18403367E+04</pdfrwt>
<totfact> 0.95118865E+00</totfact>
</mgrwt>
</event>
<event>
12    1  0.1472088E-007  0.1498474E+04  0.7818608E-02  0.8885468E-01
         -2   -1    0    0    0  501 -0.00000000000E+00  0.00000000000E+00  0.32944667162E+03  0.32944667162E+03  0.00000000000E+00 0.  1.
          2   -1    0    0  501    0  0.00000000000E+00 -0.00000000000E+00 -0.17039367579E+04  0.17039367579E+04  0.00000000000E+00 0. -1.
         23    2    1    2    0    0  0.21444118449E+03 -0.37617398251E+03 -0.19514792004E+03  0.48299264566E+03  0.87791220160E+02 0.  0.
        254    2    1    2    0    0 -0.21444118449E+03  0.37617398251E+03 -0.11793421662E+04  0.15503907838E+04  0.90849972529E+03 0.  0.
        -24    2    4    4    0    0  0.19644390547E+03  0.44092690680E+03 -0.30219817678E+03  0.57628151891E+03  0.88147069461E+02 0.  0.
         24    2    4    4    0    0 -0.41088508996E+03 -0.64752924284E+02 -0.87714398945E+03  0.97410926493E+03  0.80546777984E+02 0.  0.
         13    1    3    3    0    0  0.19609249394E+03 -0.28934603474E+03 -0.13009788618E+03  0.37295958760E+03  0.00000000000E+00 0.  1.
        -13    1    3    3    0    0  0.18348690559E+02 -0.86827947779E+02 -0.65050033857E+02  0.11003305806E+03  0.00000000000E+00 0. -1.
          4    1    6    6  502    0 -0.26203033131E+03 -0.11267603772E+02 -0.48724512624E+03  0.55334859399E+03  0.00000000000E+00 0. -1.
          1    1    5    5  503    0  0.33258356303E+02  0.48698796755E+02 -0.72109522633E+02  0.93152961970E+02  0.00000000000E+00 0. -1.
         -2    1    5    5    0  503  0.16318554917E+03  0.39222811004E+03 -0.23008865414E+03  0.48312855694E+03  0.00000000000E+00 0.  1.
         -3    1    6    6    0  502 -0.14885475865E+03 -0.53485320512E+02 -0.38989886321E+03  0.42076067094E+03  0.00000000000E+00 0.  1.
<mgrwt>
<rscale>  0 0.14984743E+04</rscale>
<asrwt>0</asrwt>
<pdfrwt beam="1">  1        2 0.26214412E+00 0.14984743E+04</pdfrwt>
<pdfrwt beam="2">  1       -2 0.50684103E-01 0.14984743E+04</pdfrwt>
<totfact> 0.34698175E+01</totfact>
</mgrwt>
</event>
<event>
12    1  0.1472088E-007  0.2402299E+04  0.7818608E-02  0.8438643E-01
         -1   -1    0    0    0  501 -0.00000000000E+00  0.00000000000E+00  0.41409001244E+03  0.41409001244E+03  0.00000000000E+00 0.  1.
          1   -1    0    0  501    0  0.00000000000E+00 -0.00000000000E+00 -0.34841696225E+04  0.34841696225E+04  0.00000000000E+00 0. -1.
         23    2    1    2    0    0  0.23615581118E+03  0.92731452560E+03 -0.19770330278E+04  0.21983046432E+04  0.90564423885E+02 0.  0.
        254    2    1    2    0    0 -0.23615581118E+03 -0.92731452560E+03 -0.10930465822E+04  0.16999549917E+04  0.88284446324E+03 0.  0.
        -24    2    4    4    0    0 -0.40830982895E+03 -0.12827486815E+03 -0.17686827768E+03  0.46963890566E+03  0.78147014286E+02 0.  0.
         24    2    4    4    0    0  0.17215401777E+03 -0.79903965745E+03 -0.91617830457E+03  0.12303160860E+04  0.78699465042E+02 0.  0.
         13    1    3    3    0    0 -0.57572096009E+01  0.24288486210E+02 -0.72895940704E+02  0.77051243961E+02  0.00000000000E+00 0.  1.
        -13    1    3    3    0    0  0.24191302078E+03  0.90302603939E+03 -0.19041370871E+04  0.21212533992E+04  0.00000000000E+00 0. -1.
          4    1    6    6  502    0  0.15637502677E+03 -0.76628876433E+03 -0.85178128920E+03  0.11563662845E+04  0.00000000000E+00 0. -1.
          1    1    5    5  503    0 -0.24005115679E+03 -0.84113600585E+02 -0.14499598290E+03  0.29278574203E+03  0.00000000000E+00 0. -1.
         -2    1    5    5    0  503 -0.16825867216E+03 -0.44161267567E+02 -0.31872294779E+02  0.17685316363E+03  0.00000000000E+00 0.  1.
         -3    1    6    6    0  502  0.15778991001E+02 -0.32750893121E+02 -0.64397015371E+02  0.73949801527E+02  0.00000000000E+00 0.  1.
<mgrwt>
<rscale>  0 0.24022988E+04</rscale>
<asrwt>0</asrwt>
<pdfrwt beam="1">  1        1 0.53602611E+00 0.24022988E+04</pdfrwt>
<pdfrwt beam="2">  1       -1 0.63706154E-01 0.24022988E+04</pdfrwt>
<totfact> 0.57659265E-01</totfact>
</mgrwt>
</event>
<event>
12    1  0.1904665E-007  0.1821751E+04  0.7818608E-02  0.8694817E-01
         -1   -1    0    0    0  501 -0.00000000000E+00  0.00000000000E+00  0.15932078332E+04  0.15932078332E+04  0.00000000000E+00 0.  1.
          1   -1    0    0  501    0  0.00000000000E+00 -0.00000000000E+00 -0.52076945529E+03  0.52076945529E+03  0.00000000000E+00 0. -1.
         23    2    1    2    0    0 -0.59114638237E+03 -0.68468368340E+02  0.49102798959E+01  0.60304745205E+03  0.97468742305E+02 0.  0.
        254    2    1    2    0    0  0.59114638237E+03  0.68468368340E+02  0.10675280980E+04  0.15109298364E+04  0.88834158278E+03 0.  0.
        -24    2    4    4    0    0  0.65063879970E+03 -0.17098668185E+03  0.10522162685E+04  0.12515139279E+04  0.80998412842E+02 0.  0.
         24    2    4    4    0    0 -0.59492417330E+02  0.23945505020E+03  0.15311829422E+02  0.25941590849E+03  0.78639002247E+02 0.  0.
         13    1    3    3    0    0 -0.11710717917E+03 -0.61093396618E+01  0.39331936437E+02  0.12368676836E+03  0.00000000000E+00 0.  1.
        -13    1    3    3    0    0 -0.47403920320E+03 -0.62359028678E+02 -0.34421656541E+02  0.47936068369E+03  0.00000000000E+00 0. -1.
          2    1    6    6  502    0 -0.13490363564E+02  0.52753270065E+01  0.14871745623E+02  0.20760245711E+02  0.00000000000E+00 0. -1.
          3    1    5    5  503    0 -0.14825333284E+01  0.57221443500E+00 -0.20246886625E+00  0.16019763017E+01  0.00000000000E+00 0. -1.
         -4    1    5    5    0  503  0.65212133303E+03 -0.17155889629E+03  0.10524187374E+04  0.12499119516E+04  0.00000000000E+00 0.  1.
         -1    1    6    6    0  502 -0.46002053767E+02  0.23417972319E+03  0.44008379912E+00  0.23865566278E+03  0.00000000000E+00 0.  1.
<mgrwt>
<rscale>  0 0.18217508E+04</rscale>
<asrwt>0</asrwt>
<pdfrwt beam="1">  1        1 0.80118378E-01 0.18217508E+04</pdfrwt>
<pdfrwt beam="2">  1       -1 0.24510890E+00 0.18217508E+04</pdfrwt>
<totfact> 0.29608585E+00</totfact>
</mgrwt>
</event>
<event>
12    1  0.1472088E-007  0.1854489E+04  0.7818608E-02  0.8677847E-01
          2   -1    0    0  501    0  0.00000000000E+00  0.00000000000E+00  0.34084259668E+03  0.34084259668E+03  0.00000000000E+00 0. -1.
         -2   -1    0    0    0  501 -0.00000000000E+00 -0.00000000000E+00 -0.25225214732E+04  0.25225214732E+04  0.00000000000E+00 0.  1.
         23    2    1    2    0    0 -0.27130297772E+03 -0.43365208316E+02  0.16381648352E+03  0.33246286861E+03  0.90608342444E+02 0.  0.
        254    2    1    2    0    0  0.27130297772E+03  0.43365208316E+02 -0.23454953601E+04  0.25309012013E+04  0.91028927248E+03 0.  0.
        -24    2    4    4    0    0 -0.18750187417E+03  0.21390313886E+03 -0.28296095162E+03  0.40962349710E+03  0.82540920749E+02 0.  0.
         24    2    4    4    0    0  0.45880485189E+03 -0.17053793055E+03 -0.20625344085E+04  0.21212777042E+04  0.78650075757E+02 0.  0.
         11    1    3    3    0    0 -0.18547267380E+03 -0.69539322606E+02  0.12804533980E+03  0.23586317890E+03  0.00000000000E+00 0. -1.
        -11    1    3    3    0    0 -0.85830303915E+02  0.26174114290E+02  0.35771143718E+02  0.96599689709E+02  0.00000000000E+00 0.  1.
          2    1    6    6  502    0  0.39725451413E+03 -0.16559912344E+03 -0.18780214614E+04  0.19267067312E+04  0.00000000000E+00 0. -1.
          1    1    5    5  503    0 -0.27276741137E+01  0.46744164717E+02 -0.50297296373E+02  0.68718812297E+02  0.00000000000E+00 0. -1.
         -2    1    5    5    0  503 -0.18477420006E+03  0.16715897415E+03 -0.23266365525E+03  0.34090468480E+03  0.00000000000E+00 0.  1.
         -1    1    6    6    0  502  0.61550337762E+02 -0.49388071063E+01 -0.18451294710E+03  0.19457097302E+03  0.00000000000E+00 0.  1.
<mgrwt>
<rscale>  0 0.18544894E+04</rscale>
<asrwt>0</asrwt>
<pdfrwt beam="1">  1        2 0.52437323E-01 0.18544894E+04</pdfrwt>
<pdfrwt beam="2">  1       -2 0.38808022E+00 0.18544894E+04</pdfrwt>
<totfact> 0.79751460E-01</totfact>
</mgrwt>
</event>
<event>
12    1  0.1472088E-007  0.1478654E+04  0.7818608E-02  0.8898773E-01
         -2   -1    0    0    0  501 -0.00000000000E+00  0.00000000000E+00  0.63986882830E+03  0.63986882830E+03  0.00000000000E+00 0.  1.
          2   -1    0    0  501    0  0.00000000000E+00 -0.00000000000E+00 -0.85424461028E+03  0.85424461028E+03  0.00000000000E+00 0. -1.
         23    2    1    2    0    0 -0.44429202462E+03  0.89854575969E+02 -0.41612605333E+02  0.46574157783E+03  0.98561455110E+02 0.  0.
        254    2    1    2    0    0  0.44429202462E+03 -0.89854575969E+02 -0.17276317665E+03  0.10283718608E+04  0.90677026905E+03 0.  0.
        -24    2    4    4    0    0  0.37418792774E+02 -0.28508217430E+03 -0.41478473114E+03  0.51101741238E+03  0.80127463528E+02 0.  0.
         24    2    4    4    0    0  0.40687323185E+03  0.19522759833E+03  0.24202155449E+03  0.51735444838E+03  0.73631178714E+02 0.  0.
         13    1    3    3    0    0 -0.59832098953E+02  0.26973315438E+02 -0.38641916954E+02  0.76161916709E+02  0.00000000000E+00 0. -1.
        -13    1    3    3    0    0 -0.38445992567E+03  0.62881260531E+02 -0.29706883784E+01  0.38957966112E+03  0.00000000000E+00 0.  1.
          4    1    6    6  502    0  0.16339564355E+03  0.46503861088E+02  0.66855838651E+02  0.18256628547E+03  0.00000000000E+00 0. -1.
          1    1    5    5  503    0 -0.10001761805E+02 -0.20196844765E+03 -0.26642566439E+03  0.33447559512E+03  0.00000000000E+00 0. -1.
         -4    1    5    5    0  503  0.47420554579E+02 -0.83113726653E+02 -0.14835906675E+03  0.17654181726E+03  0.00000000000E+00 0.  1.
         -3    1    6    6    0  502  0.24347758829E+03  0.14872373724E+03  0.17516571584E+03  0.33478816291E+03  0.00000000000E+00 0.  1.
<mgrwt>
<rscale>  0 0.14786541E+04</rscale>
<asrwt>0</asrwt>
<pdfrwt beam="1">  1        2 0.13142225E+00 0.14786541E+04</pdfrwt>
<pdfrwt beam="2">  1       -2 0.98441359E-01 0.14786541E+04</pdfrwt>
<totfact> 0.26157521E+01</totfact>
</mgrwt>
</event>
<event>
12    1  0.1472088E-007  0.2059062E+04  0.7818608E-02  0.8579495E-01
         -3   -1    0    0    0  501 -0.00000000000E+00  0.00000000000E+00  0.11103605166E+04  0.11103605166E+04  0.00000000000E+00 0.  1.
          3   -1    0    0  501    0  0.00000000000E+00 -0.00000000000E+00 -0.95458533737E+03  0.95458533737E+03  0.00000000000E+00 0. -1.
         23    2    1    2    0    0  0.59364800248E+02  0.72109373935E+03  0.44542145673E+03  0.85479439065E+03  0.93663310451E+02 0.  0.
        254    2    1    2    0    0 -0.59364800248E+02 -0.72109373935E+03 -0.28964627747E+03  0.12101514634E+04  0.92578142010E+03 0.  0.
        -24    2    4    4    0    0  0.41829935891E+03 -0.22351318404E+03 -0.11365710887E+03  0.49393464290E+03  0.78236794129E+02 0.  0.
         24    2    4    4    0    0 -0.47766415916E+03 -0.49758055531E+03 -0.17598916860E+03  0.71621682047E+03  0.79024606815E+02 0.  0.
         13    1    3    3    0    0 -0.47156483639E+01  0.21037037213E+03  0.17307209758E+03  0.27245528398E+03  0.00000000000E+00 0. -1.
        -13    1    3    3    0    0  0.64080448612E+02  0.51072336722E+03  0.27234935915E+03  0.58233910666E+03  0.00000000000E+00 0.  1.
          4    1    6    6  502    0 -0.96328924059E+02 -0.89024952261E+02 -0.30501346923E+01  0.13120216102E+03  0.00000000000E+00 0. -1.
          1    1    5    5  503    0  0.12822984880E+03 -0.78451457198E+02 -0.72885308510E+02  0.16706224426E+03  0.00000000000E+00 0. -1.
         -2    1    5    5    0  503  0.29006951011E+03 -0.14506172684E+03 -0.40771800360E+02  0.32687239864E+03  0.00000000000E+00 0.  1.
         -3    1    6    6    0  502 -0.38133523510E+03 -0.40855560305E+03 -0.17293903390E+03  0.58501465944E+03  0.00000000000E+00 0.  1.
<mgrwt>
<rscale>  0 0.20590618E+04</rscale>
<asrwt>0</asrwt>
<pdfrwt beam="1">  1        3 0.14685928E+00 0.20590618E+04</pdfrwt>
<pdfrwt beam="2">  1       -3 0.17082469E+00 0.20590618E+04</pdfrwt>
<totfact> 0.18838371E-01</totfact>
</mgrwt>
</event>
<event>
12    1  0.1472088E-007  0.1248418E+04  0.7818608E-02  0.9071501E-01
          1   -1    0    0  501    0  0.00000000000E+00  0.00000000000E+00  0.66417502296E+03  0.66417502296E+03  0.00000000000E+00 0. -1.
         -1   -1    0    0    0  501 -0.00000000000E+00 -0.00000000000E+00 -0.58664798609E+03  0.58664798609E+03  0.00000000000E+00 0.  1.
         23    2    1    2    0    0  0.25642036630E+03  0.11735194838E+03 -0.21577403865E+02  0.29704769741E+03  0.90823268695E+02 0.  0.
        254    2    1    2    0    0 -0.25642036630E+03 -0.11735194838E+03  0.99104440741E+02  0.95377531163E+03  0.90572775759E+03 0.  0.
        -24    2    4    4    0    0 -0.46595626765E+03  0.82658108819E+01  0.35426874757E+03  0.59079791654E+03  0.79701102190E+02 0.  0.
         24    2    4    4    0    0  0.20953590135E+03 -0.12561775927E+03 -0.25516430683E+03  0.36297739509E+03  0.83418525921E+02 0.  0.
         13    1    3    3    0    0  0.21204748752E+03  0.82330581233E+02 -0.51298425077E+02  0.23318231062E+03  0.00000000000E+00 0.  1.
        -13    1    3    3    0    0  0.44372878783E+02  0.35021367151E+02  0.29721021212E+02  0.63865386795E+02  0.00000000000E+00 0. -1.
          2    1    6    6  502    0  0.19769498744E+03 -0.84061906733E+02 -0.21648616143E+03  0.30498519687E+03  0.00000000000E+00 0. -1.
          1    1    5    5  503    0 -0.46650241009E+03  0.22093302183E+01  0.35154552379E+03  0.58413494593E+03  0.00000000000E+00 0. -1.
         -2    1    5    5    0  503  0.54614244075E+00  0.60564806637E+01  0.27232237881E+01  0.66629706134E+01  0.00000000000E+00 0.  1.
         -1    1    6    6    0  502  0.11840913912E+02 -0.41555852533E+02 -0.38678145404E+02  0.57992198216E+02  0.00000000000E+00 0.  1.
<mgrwt>
<rscale>  0 0.12484181E+04</rscale>
<asrwt>0</asrwt>
<pdfrwt beam="1">  1        1 0.10218077E+00 0.12484181E+04</pdfrwt>
<pdfrwt beam="2">  1       -1 0.90253537E-01 0.12484181E+04</pdfrwt>
<totfact> 0.34937182E+01</totfact>
</mgrwt>
</event>
<event>
12    1  0.1472088E-007  0.1281906E+04  0.7818608E-02  0.9044038E-01
          2   -1    0    0  501    0  0.00000000000E+00  0.00000000000E+00  0.15623801169E+04  0.15623801169E+04  0.00000000000E+00 0. -1.
         -2   -1    0    0    0  501 -0.00000000000E+00 -0.00000000000E+00 -0.26294554462E+03  0.26294554462E+03  0.00000000000E+00 0.  1.
         23    2    1    2    0    0  0.14956605500E+03 -0.13981655378E+03 -0.14491682711E+02  0.22356578671E+03  0.88617033349E+02 0.  0.
        254    2    1    2    0    0 -0.14956605500E+03  0.13981655378E+03  0.13139262550E+04  0.16017598748E+04  0.89292430779E+03 0.  0.
        -24    2    4    4    0    0 -0.35582070309E+03 -0.18558929152E+03  0.28112386874E+03  0.49658057712E+03  0.80683840552E+02 0.  0.
         24    2    4    4    0    0  0.20625464809E+03  0.32540584529E+03  0.10328023862E+04  0.11051792976E+04  0.79439077031E+02 0.  0.
         13    1    3    3    0    0  0.41400643925E+02 -0.14744154394E+02 -0.36007639435E+02  0.56815081658E+02  0.00000000000E+00 0. -1.
        -13    1    3    3    0    0  0.10816541108E+03 -0.12507239938E+03  0.21515956723E+02  0.16675070505E+03  0.00000000000E+00 0.  1.
          2    1    6    6  502    0  0.44864960411E+02  0.85267043852E+02  0.17327815066E+03  0.19826409391E+03  0.00000000000E+00 0. -1.
          3    1    5    5  503    0 -0.19154550629E+03 -0.13188964347E+03  0.19492754792E+03  0.30344902039E+03  0.00000000000E+00 0. -1.
         -4    1    5    5    0  503 -0.16427519680E+03 -0.53699648044E+02  0.86196320815E+02  0.19313155673E+03  0.00000000000E+00 0.  1.
         -1    1    6    6    0  502  0.16138968768E+03  0.24013880144E+03  0.85952423556E+03  0.90691520373E+03  0.00000000000E+00 0.  1.
<mgrwt>
<rscale>  0 0.12819062E+04</rscale>
<asrwt>0</asrwt>
<pdfrwt beam="1">  1        2 0.24036617E+00 0.12819062E+04</pdfrwt>
<pdfrwt beam="2">  1       -2 0.40453161E-01 0.12819062E+04</pdfrwt>
<totfact> 0.66439104E+01</totfact>
</mgrwt>
</event>
<event>
12    1  0.1472088E-007  0.1492924E+04  0.7818608E-02  0.8889172E-01
         -2   -1    0    0    0  501 -0.00000000000E+00  0.00000000000E+00  0.41436341910E+03  0.41436341910E+03  0.00000000000E+00 0.  1.
          2   -1    0    0  501    0  0.00000000000E+00 -0.00000000000E+00 -0.13447272525E+04  0.13447272525E+04  0.00000000000E+00 0. -1.
         23    2    1    2    0    0  0.41277223564E+03 -0.18694388545E+03 -0.43869128563E+03  0.63714399497E+03  0.90407363748E+02 0.  0.
        254    2    1    2    0    0 -0.41277223564E+03  0.18694388545E+03 -0.49167254775E+03  0.11219466766E+04  0.90094035104E+03 0.  0.
        -24    2    4    4    0    0 -0.10048649609E+03 -0.34335403850E+03 -0.72346002957E+02  0.37299810978E+03  0.76838233382E+02 0.  0.
         24    2    4    4    0    0 -0.31228573955E+03  0.53029792395E+03 -0.41932654479E+03  0.74894856683E+03  0.79692743173E+02 0.  0.
         13    1    3    3    0    0  0.33818414690E+03 -0.17191821927E+03 -0.32077507968E+03  0.49681087254E+03  0.00000000000E+00 0. -1.
        -13    1    3    3    0    0  0.74588088740E+02 -0.15025666186E+02 -0.11791620595E+03  0.14033312243E+03  0.00000000000E+00 0.  1.
          4    1    6    6  502    0 -0.28014940547E+03  0.50647904902E+03 -0.37720942334E+03  0.69086298609E+03  0.00000000000E+00 0. -1.
          1    1    5    5  503    0 -0.36899565542E+02 -0.22422556246E+03 -0.19815233665E+02  0.22810375771E+03  0.00000000000E+00 0. -1.
         -2    1    5    5    0  503 -0.63586930548E+02 -0.11912847604E+03 -0.52530769292E+02  0.14489435207E+03  0.00000000000E+00 0.  1.
         -3    1    6    6    0  502 -0.32136334082E+02  0.23818874925E+02 -0.42117121450E+02  0.58085580742E+02  0.00000000000E+00 0.  1.
<mgrwt>
<rscale>  0 0.14929244E+04</rscale>
<asrwt>0</asrwt>
<pdfrwt beam="1">  1        2 0.20688112E+00 0.14929244E+04</pdfrwt>
<pdfrwt beam="2">  1       -2 0.63748218E-01 0.14929244E+04</pdfrwt>
<totfact> 0.34261776E+01</totfact>
</mgrwt>
</event>
<event>
12    1  0.1472088E-007  0.1682102E+04  0.7818608E-02  0.8771639E-01
          2   -1    0    0  501    0  0.00000000000E+00  0.00000000000E+00  0.32155244059E+03  0.32155244059E+03  0.00000000000E+00 0. -1.
         -2   -1    0    0    0  501 -0.00000000000E+00 -0.00000000000E+00 -0.21998486473E+04  0.21998486473E+04  0.00000000000E+00 0.  1.
         23    2    1    2    0    0  0.11631816893E+03  0.30841344817E+03  0.74369395388E+02  0.34975817407E+03  0.90284007020E+02 0.  0.
        254    2    1    2    0    0 -0.11631816893E+03 -0.30841344817E+03 -0.19526656020E+04  0.21716429138E+04  0.89133676022E+03 0.  0.
        -24    2    4    4    0    0 -0.16616695811E+03 -0.39233959447E+03 -0.19927701501E+04  0.20394280776E+04  0.81192347343E+02 0.  0.
         24    2    4    4    0    0  0.49848789185E+02  0.83926146304E+02  0.40104548039E+02  0.13221483618E+03  0.79648529908E+02 0.  0.
         13    1    3    3    0    0  0.10400331453E+03  0.27353689279E+03  0.94660873382E+02  0.30757080827E+03  0.00000000000E+00 0. -1.
        -13    1    3    3    0    0  0.12314854394E+02  0.34876555380E+02 -0.20291477993E+02  0.42187365799E+02  0.00000000000E+00 0.  1.
          4    1    6    6  502    0  0.58409988286E+00  0.58661675784E+02 -0.75714174088E+01  0.59151160090E+02  0.00000000000E+00 0. -1.
          3    1    5    5  503    0 -0.13514825975E+03 -0.35886674367E+03 -0.16708886353E+04  0.17143276301E+04  0.00000000000E+00 0. -1.
         -4    1    5    5    0  503 -0.31018698361E+02 -0.33472850804E+02 -0.32188151479E+03  0.32510044748E+03  0.00000000000E+00 0.  1.
         -3    1    6    6    0  502  0.49264689302E+02  0.25264470521E+02  0.47675965447E+02  0.73063676092E+02  0.00000000000E+00 0.  1.
<mgrwt>
<rscale>  0 0.16821019E+04</rscale>
<asrwt>0</asrwt>
<pdfrwt beam="1">  1        2 0.49469605E-01 0.16821019E+04</pdfrwt>
<pdfrwt beam="2">  1       -2 0.33843826E+00 0.16821019E+04</pdfrwt>
<totfact> 0.17881744E+00</totfact>
</mgrwt>
</event>
<event>
12    1  0.1472088E-007  0.2105068E+04  0.7818608E-02  0.8559014E-01
          2   -1    0    0  501    0  0.00000000000E+00  0.00000000000E+00  0.11630906425E+04  0.11630906425E+04  0.00000000000E+00 0. -1.
         -2   -1    0    0    0  501 -0.00000000000E+00 -0.00000000000E+00 -0.95248610578E+03  0.95248610578E+03  0.00000000000E+00 0.  1.
         23    2    1    2    0    0  0.84058300622E+03  0.19975075520E+03  0.94834848598E+02  0.87405391223E+03  0.92176127229E+02 0.  0.
        254    2    1    2    0    0 -0.84058300622E+03 -0.19975075520E+03  0.11576968809E+03  0.12415228360E+04  0.88402272432E+03 0.  0.
        -24    2    4    4    0    0 -0.58275112270E+03  0.28152290243E+03  0.20281350410E+03  0.68289326950E+03  0.79723801213E+02 0.  0.
         24    2    4    4    0    0 -0.25783188352E+03 -0.48127365763E+03 -0.87043816009E+02  0.55862956652E+03  0.79929675329E+02 0.  0.
         13    1    3    3    0    0  0.34586800330E+03  0.45301732135E+02  0.65825781970E+02  0.35497881093E+03  0.00000000000E+00 0. -1.
        -13    1    3    3    0    0  0.49471500292E+03  0.15444902306E+03  0.29009066628E+02  0.51907510130E+03  0.00000000000E+00 0.  1.
          2    1    6    6  502    0 -0.22400793618E+03 -0.45619247499E+03 -0.91108421400E+02  0.51632535688E+03  0.00000000000E+00 0. -1.
          1    1    5    5  503    0 -0.44042627736E+03  0.17345136588E+03  0.14988060982E+03  0.49651271818E+03  0.00000000000E+00 0. -1.
         -2    1    5    5    0  503 -0.14232484535E+03  0.10807153655E+03  0.52932894280E+02  0.18638055132E+03  0.00000000000E+00 0.  1.
         -1    1    6    6    0  502 -0.33823947337E+02 -0.25081182639E+02  0.40646053909E+01  0.42304209637E+02  0.00000000000E+00 0.  1.
<mgrwt>
<rscale>  0 0.21050679E+04</rscale>
<asrwt>0</asrwt>
<pdfrwt beam="1">  1        2 0.17893702E+00 0.21050679E+04</pdfrwt>
<pdfrwt beam="2">  1       -2 0.14653632E+00 0.21050679E+04</pdfrwt>
<totfact> 0.58530040E+00</totfact>
</mgrwt>
</event>
<event>
12    1  0.1472088E-007  0.1765891E+04  0.7818608E-02  0.8724651E-01
          2   -1    0    0  501    0  0.00000000000E+00  0.00000000000E+00  0.13608663578E+04  0.13608663578E+04  0.00000000000E+00 0. -1.
         -2   -1    0    0    0  501 -0.00000000000E+00 -0.00000000000E+00 -0.57286520454E+03  0.57286520454E+03  0.00000000000E+00 0.  1.
         23    2    1    2    0    0 -0.34743421210E+03 -0.72337880781E+02  0.88810642588E+03  0.95963823929E+03  0.78925445069E+02 0.  0.
        254    2    1    2    0    0  0.34743421210E+03  0.72337880781E+02 -0.10010527259E+03  0.97409332308E+03  0.90160603133E+03 0.  0.
        -24    2    4    4    0    0  0.39552986140E+03 -0.85059627238E+02 -0.43060554482E+03  0.59601869624E+03  0.78346279973E+02 0.  0.
         24    2    4    4    0    0 -0.48095649303E+02  0.15739750802E+03  0.33050027224E+03  0.37807462684E+03  0.81380750194E+02 0.  0.
         11    1    3    3    0    0 -0.13177332774E+03 -0.45774296924E+01  0.41214386481E+03  0.43272130530E+03  0.00000000000E+00 0. -1.
        -11    1    3    3    0    0 -0.21566088436E+03 -0.67760451088E+02  0.47596256108E+03  0.52691693398E+03  0.00000000000E+00 0.  1.
          2    1    6    6  502    0  0.27165482959E+01  0.70471961971E+01 -0.34714552184E+01  0.83122566261E+01  0.00000000000E+00 0. -1.
          1    1    5    5  503    0  0.63536288321E+02 -0.10121339714E+02 -0.31925796085E+02  0.71823101484E+02  0.00000000000E+00 0. -1.
         -2    1    5    5    0  503  0.33199357308E+03 -0.74938287524E+02 -0.39867974874E+03  0.52419559475E+03  0.00000000000E+00 0.  1.
         -1    1    6    6    0  502 -0.50812197599E+02  0.15035031182E+03  0.33397172746E+03  0.36976237022E+03  0.00000000000E+00 0.  1.
<mgrwt>
<rscale>  0 0.17658913E+04</rscale>
<asrwt>0</asrwt>
<pdfrwt beam="1">  1        2 0.20936405E+00 0.17658913E+04</pdfrwt>
<pdfrwt beam="2">  1       -2 0.88133109E-01 0.17658913E+04</pdfrwt>
<totfact> 0.16002157E+01</totfact>
</mgrwt>
</event>
<event>
12    1  0.1472088E-007  0.1285348E+04  0.7818608E-02  0.9041265E-01
         -2   -1    0    0    0  501 -0.00000000000E+00  0.00000000000E+00  0.75179925757E+03  0.75179925757E+03  0.00000000000E+00 0.  1.
          2   -1    0    0  501    0  0.00000000000E+00 -0.00000000000E+00 -0.54938892787E+03  0.54938892787E+03  0.00000000000E+00 0. -1.
         23    2    1    2    0    0  0.15399912830E+03 -0.67519166616E+02 -0.19145029877E+03  0.27044187840E+03  0.90614696999E+02 0.  0.
        254    2    1    2    0    0 -0.15399912830E+03  0.67519166616E+02  0.39386062847E+03  0.10307463070E+04  0.93756982964E+03 0.  0.
        -24    2    4    4    0    0 -0.35639032064E+03 -0.63211352122E+02 -0.17379917019E+03  0.40917284210E+03  0.78781517318E+02 0.  0.
         24    2    4    4    0    0  0.20239119234E+03  0.13073051874E+03  0.56765979866E+03  0.62157346494E+03  0.77866950865E+02 0.  0.
         13    1    3    3    0    0  0.12420329997E+01 -0.35165275053E+01  0.93992338475E+01  0.10112082307E+02  0.00000000000E+00 0.  1.
        -13    1    3    3    0    0  0.15275709530E+03 -0.64002639111E+02 -0.20084953262E+03  0.26032979609E+03  0.00000000000E+00 0. -1.
          4    1    6    6  502    0  0.14477300218E+03  0.13105874903E+03  0.45082827094E+03  0.49130616497E+03  0.00000000000E+00 0. -1.
          3    1    5    5  503    0 -0.26383190821E+03 -0.11612614650E+02 -0.13222859121E+03  0.29534137696E+03  0.00000000000E+00 0. -1.
         -4    1    5    5    0  503 -0.92558412426E+02 -0.51598737473E+02 -0.41570578988E+02  0.11383146514E+03  0.00000000000E+00 0.  1.
         -3    1    6    6    0  502  0.57618190158E+02 -0.32823029435E+00  0.11683152773E+03  0.13026729998E+03  0.00000000000E+00 0.  1.
<mgrwt>
<rscale>  0 0.12853485E+04</rscale>
<asrwt>0</asrwt>
<pdfrwt beam="1">  1        2 0.84521374E-01 0.12853485E+04</pdfrwt>
<pdfrwt beam="2">  1       -2 0.11566142E+00 0.12853485E+04</pdfrwt>
<totfact> 0.31442945E+01</totfact>
</mgrwt>
</event>
<event>
12    1  0.1472088E-007  0.1098654E+04  0.7818608E-02  0.9206505E-01
         -3   -1    0    0    0  501 -0.00000000000E+00  0.00000000000E+00  0.88004141466E+03  0.88004141466E+03  0.00000000000E+00 0.  1.
          3   -1    0    0  501    0  0.00000000000E+00 -0.00000000000E+00 -0.34289318565E+03  0.34289318565E+03  0.00000000000E+00 0. -1.
         23    2    1    2    0    0 -0.26532682318E+02  0.12583639364E+03  0.20214616284E+03  0.25633200181E+03  0.91127618259E+02 0.  0.
        254    2    1    2    0    0  0.26532682318E+02 -0.12583639364E+03  0.33500206618E+03  0.96660259850E+03  0.89752739117E+03 0.  0.
        -24    2    4    4    0    0 -0.21332619082E+02  0.36370154675E+03  0.27606632987E+03  0.46407717268E+03  0.80131816168E+02 0.  0.
         24    2    4    4    0    0  0.47865301400E+02 -0.48953794039E+03  0.58935736302E+02  0.50252542583E+03  0.84379502423E+02 0.  0.
         11    1    3    3    0    0 -0.55560399915E+02  0.85085415516E+02  0.16590334321E+03  0.19455180611E+03  0.00000000000E+00 0.  1.
        -11    1    3    3    0    0  0.29027717597E+02  0.40750978119E+02  0.36242819624E+02  0.61780195701E+02  0.00000000000E+00 0. -1.
          4    1    6    6  502    0  0.11019008234E+02 -0.41693739344E+03  0.58063777012E+02  0.42110522532E+03  0.00000000000E+00 0. -1.
          3    1    5    5  503    0 -0.30276836354E+02  0.36145900958E+03  0.27411505123E+03  0.45465191491E+03  0.00000000000E+00 0. -1.
         -4    1    5    5    0  503  0.89442172718E+01  0.22425371763E+01  0.19512786483E+01  0.94252577660E+01  0.00000000000E+00 0.  1.
         -3    1    6    6    0  502  0.36846293166E+02 -0.72600546951E+02  0.87195929001E+00  0.81420200507E+02  0.00000000000E+00 0.  1.
<mgrwt>
<rscale>  0 0.10986541E+04</rscale>
<asrwt>0</asrwt>
<pdfrwt beam="1">  1        3 0.52752798E-01 0.10986541E+04</pdfrwt>
<pdfrwt beam="2">  1       -3 0.13539099E+00 0.10986541E+04</pdfrwt>
<totfact> 0.38764453E+00</totfact>
</mgrwt>
</event>
<event>
12    1  0.1472088E-007  0.1180757E+04  0.7818608E-02  0.9129869E-01
          1   -1    0    0  501    0  0.00000000000E+00  0.00000000000E+00  0.42235994975E+03  0.42235994975E+03  0.00000000000E+00 0. -1.
         -1   -1    0    0    0  501 -0.00000000000E+00 -0.00000000000E+00 -0.82523629886E+03  0.82523629886E+03  0.00000000000E+00 0.  1.
         23    2    1    2    0    0 -0.78018258561E+02  0.21794298933E+03 -0.97767792122E+02  0.26747727875E+03  0.91649103678E+02 0.  0.
        254    2    1    2    0    0  0.78018258561E+02 -0.21794298933E+03 -0.30510855699E+03  0.98011896986E+03  0.90219508326E+03 0.  0.
        -24    2    4    4    0    0 -0.70113232852E+02 -0.12494949341E+03 -0.60350905166E+03  0.62552771087E+03  0.80830070556E+02 0.  0.
         24    2    4    4    0    0  0.14813149141E+03 -0.92993495923E+02  0.29840049467E+03  0.35459125899E+03  0.78111309710E+02 0.  0.
         11    1    3    3    0    0 -0.69558380439E+02  0.22116222892E+03 -0.76129667068E+02  0.24402218342E+03  0.00000000000E+00 0. -1.
        -11    1    3    3    0    0 -0.84598781215E+01 -0.32192395914E+01 -0.21638125054E+02  0.23455095336E+02  0.00000000000E+00 0.  1.
          2    1    6    6  502    0  0.62409085320E+02  0.33200417466E+01  0.10331774422E+03  0.12074962889E+03  0.00000000000E+00 0. -1.
          3    1    5    5  503    0 -0.26742745385E+02 -0.35808932025E+02 -0.35771420744E+03  0.36049536509E+03  0.00000000000E+00 0. -1.
         -4    1    5    5    0  503 -0.43370487466E+02 -0.89140561382E+02 -0.24579484422E+03  0.26503234578E+03  0.00000000000E+00 0.  1.
         -1    1    6    6    0  502  0.85722406092E+02 -0.96313537670E+02  0.19508275045E+03  0.23384163010E+03  0.00000000000E+00 0.  1.
<mgrwt>
<rscale>  0 0.11807570E+04</rscale>
<asrwt>0</asrwt>
<pdfrwt beam="1">  1        1 0.64978454E-01 0.11807570E+04</pdfrwt>
<pdfrwt beam="2">  1       -1 0.12695943E+00 0.11807570E+04</pdfrwt>
<totfact> 0.29767035E+01</totfact>
</mgrwt>
</event>
<event>
12    1  0.1472088E-007  0.3243003E+04  0.7818608E-02  0.8177552E-01
          2   -1    0    0  501    0  0.00000000000E+00  0.00000000000E+00  0.34106538555E+04  0.34106538555E+04  0.00000000000E+00 0. -1.
         -2   -1    0    0    0  501 -0.00000000000E+00 -0.00000000000E+00 -0.77089834720E+03  0.77089834720E+03  0.00000000000E+00 0.  1.
         23    2    1    2    0    0  0.10554282114E+04 -0.22240157549E+02  0.25774771954E+04  0.27866666390E+04  0.87743545974E+02 0.  0.
        254    2    1    2    0    0 -0.10554282114E+04  0.22240157549E+02  0.62278312898E+02  0.13948855637E+04  0.90961739961E+03 0.  0.
        -24    2    4    4    0    0  0.78899174667E+02  0.21181869532E+03  0.25076924516E+02  0.24136551932E+03  0.80846906709E+02 0.  0.
         24    2    4    4    0    0 -0.11343273861E+04 -0.18957853777E+03  0.37201388382E+02  0.11535200444E+04  0.81153612578E+02 0.  0.
         13    1    3    3    0    0  0.92821358717E+03 -0.14099361305E+01  0.22005451621E+04  0.23883009572E+04  0.00000000000E+00 0. -1.
        -13    1    3    3    0    0  0.12721462423E+03 -0.20830221418E+02  0.37693203331E+03  0.39836568185E+03  0.00000000000E+00 0.  1.
          2    1    6    6  502    0 -0.14589103387E+03 -0.12366119771E+02 -0.19589876793E+02  0.14771891535E+03  0.00000000000E+00 0. -1.
          3    1    5    5  503    0 -0.33898649756E+01 -0.56524837734E+01 -0.28390564544E+01  0.71764893167E+01  0.00000000000E+00 0. -1.
         -4    1    5    5    0  503  0.82289039643E+02  0.21747117909E+03  0.27915980971E+02  0.23418903000E+03  0.00000000000E+00 0.  1.
         -1    1    6    6    0  502 -0.98843635220E+03 -0.17721241800E+03  0.56791265174E+02  0.10058011291E+04  0.00000000000E+00 0.  1.
<mgrwt>
<rscale>  0 0.32430032E+04</rscale>
<asrwt>0</asrwt>
<pdfrwt beam="1">  1        2 0.52471597E+00 0.32430032E+04</pdfrwt>
<pdfrwt beam="2">  1       -2 0.11859975E+00 0.32430032E+04</pdfrwt>
<totfact> 0.42955110E-01</totfact>
</mgrwt>
</event>
<event>
12    1  0.2440324E-007  0.2452063E+04  0.7818608E-02  0.8420265E-01
          2   -1    0    0  501    0  0.00000000000E+00  0.00000000000E+00  0.75287536755E+03  0.75287536755E+03  0.00000000000E+00 0.  1.
         -2   -1    0    0    0  501 -0.00000000000E+00 -0.00000000000E+00 -0.19965495454E+04  0.19965495454E+04  0.00000000000E+00 0. -1.
         23    2    1    2    0    0  0.31177084413E+03 -0.20157875009E+03  0.54590890891E+03  0.66614215281E+03  0.88846942444E+02 0.  0.
        254    2    1    2    0    0 -0.31177084413E+03  0.20157875009E+03 -0.17895830868E+04  0.20832827601E+04  0.99981217364E+03 0.  0.
        -24    2    4    4    0    0  0.17657175311E+03 -0.54461689615E+02  0.74482967655E+01  0.20187566729E+03  0.80960782401E+02 0.  0.
         24    2    4    4    0    0 -0.48834259725E+03  0.25604043970E+03 -0.17970313835E+04  0.18814070928E+04  0.79596837954E+02 0.  0.
         11    1    3    3    0    0  0.25448941684E+03 -0.12343692023E+03  0.43503434195E+03  0.51889923418E+03  0.00000000000E+00 0.  1.
        -11    1    3    3    0    0  0.57281427290E+02 -0.78141829861E+02  0.11087456696E+03  0.14724291862E+03  0.00000000000E+00 0. -1.
          4    1    6    6  502    0 -0.48345164292E+03  0.25176634443E+03 -0.17923495173E+04  0.18734002710E+04  0.00000000000E+00 0. -1.
          3    1    5    5  503    0  0.16810515733E+03 -0.55879738042E+02 -0.15057595852E+02  0.17778813301E+03  0.00000000000E+00 0. -1.
         -4    1    5    5    0  503  0.84665957811E+01  0.14180484270E+01  0.22505892617E+02  0.24087534286E+02  0.00000000000E+00 0.  1.
         -3    1    6    6    0  502 -0.48909543263E+01  0.42740952773E+01 -0.46818662049E+01  0.80068218303E+01  0.00000000000E+00 0.  1.
<mgrwt>
<rscale>  0 0.24520628E+04</rscale>
<asrwt>0</asrwt>
<pdfrwt beam="1">  1        2 0.11582698E+00 0.24520628E+04</pdfrwt>
<pdfrwt beam="2">  1       -2 0.30716146E+00 0.24520628E+04</pdfrwt>
<totfact> 0.96004594E-01</totfact>
</mgrwt>
</event>
<event>
12    1  0.1472088E-007  0.2086102E+04  0.7818608E-02  0.8567390E-01
          1   -1    0    0  501    0  0.00000000000E+00  0.00000000000E+00  0.15029652699E+04  0.15029652699E+04  0.00000000000E+00 0. -1.
         -1   -1    0    0    0  501 -0.00000000000E+00 -0.00000000000E+00 -0.72387289803E+03  0.72387289803E+03  0.00000000000E+00 0.  1.
         23    2    1    2    0    0 -0.17206291897E+03  0.14593492243E+03  0.12013565130E+04  0.12259284955E+04  0.93490936163E+02 0.  0.
        254    2    1    2    0    0  0.17206291897E+03 -0.14593492243E+03 -0.42226414110E+03  0.10009096724E+04  0.87898266073E+03 0.  0.
        -24    2    4    4    0    0  0.15518985104E+03  0.12656537260E+03  0.21489591353E+03  0.30293568610E+03  0.74074913816E+02 0.  0.
         24    2    4    4    0    0  0.16873067935E+02 -0.27250029503E+03 -0.63716005462E+03  0.69797398634E+03  0.81569842376E+02 0.  0.
         11    1    3    3    0    0 -0.16216186645E+03  0.12504524064E+03  0.87032670020E+03  0.89409247185E+03  0.00000000000E+00 0. -1.
        -11    1    3    3    0    0 -0.99010525186E+01  0.20889681783E+02  0.33102981277E+03  0.33183602365E+03  0.00000000000E+00 0.  1.
          2    1    6    6  502    0  0.38643681841E+02 -0.21968678764E+03 -0.55265409861E+03  0.59597161973E+03  0.00000000000E+00 0. -1.
          3    1    5    5  503    0  0.16079808251E+03  0.13007475859E+03  0.20959701264E+03  0.29445946048E+03  0.00000000000E+00 0. -1.
         -4    1    5    5    0  503 -0.56082314688E+01 -0.35093859829E+01  0.52989008844E+01  0.84762256204E+01  0.00000000000E+00 0.  1.
         -1    1    6    6    0  502 -0.21770613906E+02 -0.52813507389E+02 -0.84505956014E+02  0.10200236661E+03  0.00000000000E+00 0.  1.
<mgrwt>
<rscale>  0 0.20861024E+04</rscale>
<asrwt>0</asrwt>
<pdfrwt beam="1">  1        1 0.23122543E+00 0.20861024E+04</pdfrwt>
<pdfrwt beam="2">  1       -1 0.11136506E+00 0.20861024E+04</pdfrwt>
<totfact> 0.44432170E+00</totfact>
</mgrwt>
</event>
<event>
12    1  0.1472088E-007  0.1422119E+04  0.7818608E-02  0.8937961E-01
         -1   -1    0    0    0  501 -0.00000000000E+00  0.00000000000E+00  0.88945735653E+03  0.88945735653E+03  0.00000000000E+00 0.  1.
          1   -1    0    0  501    0  0.00000000000E+00 -0.00000000000E+00 -0.56844281467E+03  0.56844281467E+03  0.00000000000E+00 0. -1.
         23    2    1    2    0    0  0.22276833485E+03 -0.22148905109E+03 -0.17356577680E+03  0.37708295098E+03  0.11568639624E+03 0.  0.
        254    2    1    2    0    0 -0.22276833485E+03  0.22148905109E+03  0.49458031866E+03  0.10808172202E+04  0.90822521500E+03 0.  0.
        -24    2    4    4    0    0 -0.93096305522E+02  0.20136686803E+03 -0.23648718609E+03  0.33393246385E+03  0.79807039681E+02 0.  0.
         24    2    4    4    0    0 -0.12967202933E+03  0.20122183060E+02  0.73106750476E+03  0.74688475638E+03  0.78469136339E+02 0.  0.
         13    1    3    3    0    0  0.15921933672E+03 -0.78932143150E+02 -0.78041651126E+02  0.19409167864E+03  0.00000000000E+00 0. -1.
        -13    1    3    3    0    0  0.63548998134E+02 -0.14255690794E+03 -0.95524125674E+02  0.18299127234E+03  0.00000000000E+00 0.  1.
          4    1    6    6  502    0  0.87441691687E+01  0.58852979998E+01  0.23361232183E+02  0.25628975713E+02  0.00000000000E+00 0. -1.
          1    1    5    5  503    0 -0.35273766086E+01 -0.64791271674E+01 -0.17569867297E+02  0.19055752712E+02  0.00000000000E+00 0. -1.
         -2    1    5    5    0  503 -0.89568928914E+02  0.20784599520E+03 -0.21891731880E+03  0.31487671114E+03  0.00000000000E+00 0.  1.
         -3    1    6    6    0  502 -0.13841619850E+03  0.14236885060E+02  0.70770627258E+03  0.72125578067E+03  0.00000000000E+00 0.  1.
<mgrwt>
<rscale>  0 0.14221190E+04</rscale>
<asrwt>0</asrwt>
<pdfrwt beam="1">  1        1 0.87452740E-01 0.14221190E+04</pdfrwt>
<pdfrwt beam="2">  1       -1 0.13683959E+00 0.14221190E+04</pdfrwt>
<totfact> 0.16031113E+01</totfact>
</mgrwt>
</event>
<event>
12    1  0.1472088E-007  0.2602886E+04  0.7818608E-02  0.8367222E-01
          2   -1    0    0  501    0  0.00000000000E+00  0.00000000000E+00  0.33726712760E+04  0.33726712760E+04  0.00000000000E+00 0. -1.
         -2   -1    0    0    0  501 -0.00000000000E+00 -0.00000000000E+00 -0.50219942361E+03  0.50219942361E+03  0.00000000000E+00 0.  1.
         23    2    1    2    0    0  0.15804901214E+03 -0.36362615095E+03 -0.33250653647E+03  0.52503906315E+03  0.88892930792E+02 0.  0.
        254    2    1    2    0    0 -0.15804901214E+03  0.36362615095E+03  0.32029783889E+04  0.33498316365E+04  0.89727251451E+03 0.  0.
        -24    2    4    4    0    0  0.22557033815E+03  0.15424358855E+03  0.25138705379E+04  0.25299672575E+04  0.80722860796E+02 0.  0.
         24    2    4    4    0    0 -0.38361935029E+03  0.20938256240E+03  0.68910785092E+03  0.81986437900E+03  0.79392105415E+02 0.  0.
         11    1    3    3    0    0  0.57834528658E+02 -0.65445307067E+02 -0.10631494943E+03  0.13758920522E+03  0.00000000000E+00 0. -1.
        -11    1    3    3    0    0  0.10021448348E+03 -0.29818084388E+03 -0.22619158704E+03  0.38744985792E+03  0.00000000000E+00 0.  1.
          4    1    6    6  502    0 -0.18125481086E+03  0.12247527619E+03  0.28086259583E+03  0.35600182229E+03  0.00000000000E+00 0. -1.
          1    1    5    5  503    0  0.21915440857E+03  0.15990987882E+03  0.24873134073E+04  0.25020647095E+04  0.00000000000E+00 0. -1.
         -2    1    5    5    0  503  0.64159295823E+01 -0.56662902720E+01  0.26557130638E+02  0.27902548012E+02  0.00000000000E+00 0.  1.
         -3    1    6    6    0  502 -0.20236453944E+03  0.86907286209E+02  0.40824525509E+03  0.46386255671E+03  0.00000000000E+00 0.  1.
<mgrwt>
<rscale>  0 0.26028858E+04</rscale>
<asrwt>0</asrwt>
<pdfrwt beam="1">  1        2 0.51887249E+00 0.26028858E+04</pdfrwt>
<pdfrwt beam="2">  1       -2 0.77261452E-01 0.26028858E+04</pdfrwt>
<totfact> 0.13159154E+00</totfact>
</mgrwt>
</event>
<event>
12    1  0.1472088E-007  0.4016151E+04  0.7818608E-02  0.8001296E-01
          2   -1    0    0  501    0  0.00000000000E+00  0.00000000000E+00  0.17682032593E+04  0.17682032593E+04  0.00000000000E+00 0. -1.
         -2   -1    0    0    0  501 -0.00000000000E+00 -0.00000000000E+00 -0.22804882115E+04  0.22804882115E+04  0.00000000000E+00 0.  1.
         23    2    1    2    0    0 -0.39355982008E+03 -0.18264103604E+04  0.12194658019E+03  0.18743960946E+04  0.88462503718E+02 0.  0.
        254    2    1    2    0    0  0.39355982008E+03  0.18264103604E+04 -0.63423153243E+03  0.21742953761E+04  0.91358995696E+03 0.  0.
        -24    2    4    4    0    0 -0.20410014800E+03  0.86903329715E+02 -0.10537522767E+03  0.25879120556E+03  0.81608151206E+02 0.  0.
         24    2    4    4    0    0  0.59765996808E+03  0.17395070307E+04 -0.52885630476E+03  0.19155041706E+04  0.79906753191E+02 0.  0.
         13    1    3    3    0    0 -0.24219490311E+03 -0.12587477587E+04  0.11332947360E+03  0.12868363768E+04  0.00000000000E+00 0. -1.
        -13    1    3    3    0    0 -0.15136491697E+03 -0.56766260170E+03  0.86171065923E+01  0.58755971780E+03  0.00000000000E+00 0.  1.
          2    1    6    6  502    0  0.34596830560E+03  0.11192770261E+04 -0.34908299272E+03  0.12224295749E+04  0.00000000000E+00 0. -1.
          1    1    5    5  503    0 -0.16713496589E+03  0.62581739041E+02 -0.45206827294E+02  0.18410385145E+03  0.00000000000E+00 0. -1.
         -2    1    5    5    0  503 -0.36965182109E+02  0.24321590674E+02 -0.60168400377E+02  0.74687354118E+02  0.00000000000E+00 0.  1.
         -1    1    6    6    0  502  0.25169166247E+03  0.62023000454E+03 -0.17977331204E+03  0.69307459571E+03  0.00000000000E+00 0.  1.
<mgrwt>
<rscale>  0 0.40161507E+04</rscale>
<asrwt>0</asrwt>
<pdfrwt beam="1">  1        2 0.27203127E+00 0.40161507E+04</pdfrwt>
<pdfrwt beam="2">  1       -2 0.35084434E+00 0.40161507E+04</pdfrwt>
<totfact> 0.10878721E-01</totfact>
</mgrwt>
</event>
<event>
12    1  0.1472088E-007  0.1056595E+04  0.7818608E-02  0.9248562E-01
         -2   -1    0    0    0  501 -0.00000000000E+00  0.00000000000E+00  0.47112538295E+03  0.47112538295E+03  0.00000000000E+00 0.  1.
          2   -1    0    0  501    0  0.00000000000E+00 -0.00000000000E+00 -0.59240743223E+03  0.59240743223E+03  0.00000000000E+00 0. -1.
         23    2    1    2    0    0 -0.31124391738E+02  0.13496865442E+03 -0.72524523491E+02  0.18077690031E+03  0.90748089462E+02 0.  0.
        254    2    1    2    0    0  0.31124391738E+02 -0.13496865442E+03 -0.48757525787E+02  0.88275591487E+03  0.87045703138E+03 0.  0.
        -24    2    4    4    0    0 -0.53100425592E+02 -0.26966932774E+03  0.34718402648E+03  0.44922002952E+03  0.75635211075E+02 0.  0.
         24    2    4    4    0    0  0.84224817330E+02  0.13470067333E+03 -0.39594155227E+03  0.43353588535E+03  0.77107456351E+02 0.  0.
         11    1    3    3    0    0 -0.56214929987E+02  0.12590600191E+03 -0.53011041864E+02  0.14772477866E+03  0.00000000000E+00 0.  1.
        -11    1    3    3    0    0  0.25090538249E+02  0.90626525040E+01 -0.19513481628E+02  0.33052121646E+02  0.00000000000E+00 0. -1.
          4    1    6    6  502    0  0.12018839880E+02  0.92168982599E+00 -0.10104174927E+03  0.10175822876E+03  0.00000000000E+00 0. -1.
          3    1    5    5  503    0 -0.40528779851E+01 -0.34551558857E+02  0.94035244433E+02  0.10026396778E+03  0.00000000000E+00 0. -1.
         -4    1    5    5    0  503 -0.49047547607E+02 -0.23511776889E+03  0.25314878205E+03  0.34895606174E+03  0.00000000000E+00 0.  1.
         -3    1    6    6    0  502  0.72205977450E+02  0.13377898350E+03 -0.29489980300E+03  0.33177765659E+03  0.00000000000E+00 0.  1.
<mgrwt>
<rscale>  0 0.10565949E+04</rscale>
<asrwt>0</asrwt>
<pdfrwt beam="1">  1        2 0.91139604E-01 0.10565949E+04</pdfrwt>
<pdfrwt beam="2">  1       -2 0.72480829E-01 0.10565949E+04</pdfrwt>
<totfact> 0.86394877E+01</totfact>
</mgrwt>
</event>
<event>
12    1  0.1472088E-007  0.1458369E+04  0.7818608E-02  0.8912619E-01
         -2   -1    0    0    0  501 -0.00000000000E+00  0.00000000000E+00  0.22493497981E+03  0.22493497981E+03  0.00000000000E+00 0.  1.
          2   -1    0    0  501    0  0.00000000000E+00 -0.00000000000E+00 -0.23638382333E+04  0.23638382333E+04  0.00000000000E+00 0. -1.
         23    2    1    2    0    0  0.27263877234E+02 -0.18805793897E+03 -0.14241245162E+04  0.14396249589E+04  0.90996029705E+02 0.  0.
        254    2    1    2    0    0 -0.27263877234E+02  0.18805793897E+03 -0.71477873733E+03  0.11491482542E+04  0.87950210879E+03 0.  0.
        -24    2    4    4    0    0  0.28445143151E+03 -0.45929649384E+02 -0.68791992584E+03  0.75007966310E+03  0.79771718402E+02 0.  0.
         24    2    4    4    0    0 -0.31171530875E+03  0.23398758835E+03 -0.26858811495E+02  0.39906859109E+03  0.81349366494E+02 0.  0.
         13    1    3    3    0    0  0.18764618771E+02 -0.13601867796E+03 -0.68523126180E+03  0.69885268392E+03  0.00000000000E+00 0.  1.
        -13    1    3    3    0    0  0.84992584632E+01 -0.52039261007E+02 -0.73889325435E+03  0.74077227500E+03  0.00000000000E+00 0. -1.
          2    1    6    6  502    0 -0.28843904241E+03  0.20591860321E+03 -0.46850336365E+02  0.35748357494E+03  0.00000000000E+00 0. -1.
          1    1    5    5  503    0  0.42027599051E+02 -0.24861613093E+02 -0.64852714436E+02  0.81180622425E+02  0.00000000000E+00 0. -1.
         -2    1    5    5    0  503  0.24242383246E+03 -0.21068036291E+02 -0.62306721140E+03  0.66889904068E+03  0.00000000000E+00 0.  1.
         -1    1    6    6    0  502 -0.23276266335E+02  0.28068985140E+02  0.19991524869E+02  0.41585016146E+02  0.00000000000E+00 0.  1.
<mgrwt>
<rscale>  0 0.14583688E+04</rscale>
<asrwt>0</asrwt>
<pdfrwt beam="1">  1        2 0.36366742E+00 0.14583688E+04</pdfrwt>
<pdfrwt beam="2">  1       -2 0.34605382E-01 0.14583688E+04</pdfrwt>
<totfact> 0.31706227E+01</totfact>
</mgrwt>
</event>
<event>
12    1  0.1472088E-007  0.2278677E+04  0.7818608E-02  0.8486376E-01
         -2   -1    0    0    0  501 -0.00000000000E+00  0.00000000000E+00  0.47530586676E+03  0.47530586676E+03  0.00000000000E+00 0.  1.
          2   -1    0    0  501    0  0.00000000000E+00 -0.00000000000E+00 -0.27310670598E+04  0.27310670598E+04  0.00000000000E+00 0. -1.
         23    2    1    2    0    0 -0.29149624874E+03  0.40364738157E+03  0.19927438635E+03  0.54405858366E+03  0.91587060910E+02 0.  0.
        254    2    1    2    0    0  0.29149624874E+03 -0.40364738157E+03 -0.24550355794E+04  0.26623143429E+04  0.90156347121E+03 0.  0.
        -24    2    4    4    0    0  0.33436350662E+03  0.21421427213E+03 -0.95438080140E+03  0.10367429544E+04  0.79413667092E+02 0.  0.
         24    2    4    4    0    0 -0.42867257882E+02 -0.61786165370E+03 -0.15006547780E+04  0.16255713884E+04  0.83228308775E+02 0.  0.
         11    1    3    3    0    0 -0.10318221551E+03  0.17071480378E+03  0.12517330767E+03  0.23549622243E+03  0.00000000000E+00 0. -1.
        -11    1    3    3    0    0 -0.18831403323E+03  0.23293257779E+03  0.74101078681E+02  0.30856236123E+03  0.00000000000E+00 0.  1.
          4    1    6    6  502    0  0.22952278929E+02 -0.19817264015E+03 -0.44689284665E+03  0.48940006008E+03  0.00000000000E+00 0. -1.
          1    1    5    5  503    0  0.30881236225E+02  0.49699453269E+02 -0.11173308764E+03  0.12612679842E+03  0.00000000000E+00 0. -1.
         -2    1    5    5    0  503  0.30348227040E+03  0.16451481886E+03 -0.84264771376E+03  0.91061615600E+03  0.00000000000E+00 0.  1.
         -3    1    6    6    0  502 -0.65819536811E+02 -0.41968901355E+03 -0.10537619313E+04  0.11361713284E+04  0.00000000000E+00 0.  1.
<mgrwt>
<rscale>  0 0.22786770E+04</rscale>
<asrwt>0</asrwt>
<pdfrwt beam="1">  1        2 0.42016416E+00 0.22786770E+04</pdfrwt>
<pdfrwt beam="2">  1       -2 0.73123980E-01 0.22786770E+04</pdfrwt>
<totfact> 0.39038237E+00</totfact>
</mgrwt>
</event>
<event>
12    1  0.1472088E-007  0.1159583E+04  0.7818608E-02  0.9148988E-01
          2   -1    0    0  501    0  0.00000000000E+00  0.00000000000E+00  0.10076178419E+04  0.10076178419E+04  0.00000000000E+00 0. -1.
         -2   -1    0    0    0  501 -0.00000000000E+00 -0.00000000000E+00 -0.33361685976E+03  0.33361685976E+03  0.00000000000E+00 0.  1.
         23    2    1    2    0    0 -0.15527559158E+03  0.11724103578E+03  0.64103947255E+02  0.22725809999E+03  0.98391860172E+02 0.  0.
        254    2    1    2    0    0  0.15527559158E+03 -0.11724103578E+03  0.60989703493E+03  0.11139766017E+04  0.91165426897E+03 0.  0.
        -24    2    4    4    0    0 -0.34967988978E+03  0.92532507037E+02  0.16982793850E+03  0.40729870031E+03  0.78818858168E+02 0.  0.
         24    2    4    4    0    0  0.50495548136E+03 -0.20977354282E+03  0.44006909643E+03  0.70667790140E+03  0.82145415457E+02 0.  0.
         13    1    3    3    0    0 -0.17072524150E+02  0.36626935723E+02  0.53314482863E+02  0.66898711380E+02  0.00000000000E+00 0. -1.
        -13    1    3    3    0    0 -0.13820306743E+03  0.80614100057E+02  0.10789464391E+02  0.16035938861E+03  0.00000000000E+00 0.  1.
          2    1    6    6  502    0  0.36393703487E+03 -0.18985471491E+03  0.32340448740E+03  0.52257577498E+03  0.00000000000E+00 0. -1.
          3    1    5    5  503    0 -0.26690093668E+03  0.70150331771E+02  0.90349759744E+02  0.29037950708E+03  0.00000000000E+00 0. -1.
         -4    1    5    5    0  503 -0.82778953101E+02  0.22382175267E+02  0.79478178759E+02  0.11691919323E+03  0.00000000000E+00 0.  1.
         -1    1    6    6    0  502  0.14101844648E+03 -0.19918827912E+02  0.11666460903E+03  0.18410212642E+03  0.00000000000E+00 0.  1.
<mgrwt>
<rscale>  0 0.11595832E+04</rscale>
<asrwt>0</asrwt>
<pdfrwt beam="1">  1        2 0.15501813E+00 0.11595832E+04</pdfrwt>
<pdfrwt beam="2">  1       -2 0.51325671E-01 0.11595832E+04</pdfrwt>
<totfact> 0.88362126E+01</totfact>
</mgrwt>
</event>
<event>
12    1  0.1472088E-007  0.1373161E+04  0.7818608E-02  0.8973479E-01
         -2   -1    0    0    0  501 -0.00000000000E+00  0.00000000000E+00  0.33565233874E+03  0.33565233874E+03  0.00000000000E+00 0.  1.
          2   -1    0    0  501    0  0.00000000000E+00 -0.00000000000E+00 -0.14044072402E+04  0.14044072402E+04  0.00000000000E+00 0. -1.
         23    2    1    2    0    0  0.23664192048E+03 -0.89425091477E+02  0.64907596370E+02  0.27659632006E+03  0.91083932136E+02 0.  0.
        254    2    1    2    0    0 -0.23664192048E+03  0.89425091477E+02 -0.11336624978E+04  0.14634632588E+04  0.89024592420E+03 0.  0.
        -24    2    4    4    0    0  0.27108828956E+03  0.93877630695E+02 -0.79253125968E+03  0.84662230465E+03  0.79760008048E+02 0.  0.
         24    2    4    4    0    0 -0.50773021003E+03 -0.44525392178E+01 -0.34113123812E+03  0.61684095419E+03  0.79450927374E+02 0.  0.
         11    1    3    3    0    0  0.18397050214E+03 -0.10645461462E+03  0.41856156331E+02  0.21663256554E+03  0.00000000000E+00 0.  1.
        -11    1    3    3    0    0  0.52671418336E+02  0.17029523143E+02  0.23051440039E+02  0.59963754517E+02  0.00000000000E+00 0. -1.
          2    1    6    6  502    0 -0.48892510361E+03 -0.68676915561E-01 -0.34329549636E+03  0.59741071256E+03  0.00000000000E+00 0. -1.
          3    1    5    5  503    0  0.22584519278E+03  0.54591194542E+02 -0.55550496600E+03  0.60213953273E+03  0.00000000000E+00 0. -1.
         -4    1    5    5    0  503  0.45243096775E+02  0.39286436153E+02 -0.23702629368E+03  0.24448277192E+03  0.00000000000E+00 0.  1.
         -1    1    6    6    0  502 -0.18805106420E+02 -0.43838623022E+01  0.21642582399E+01  0.19430241632E+02  0.00000000000E+00 0.  1.
<mgrwt>
<rscale>  0 0.13731607E+04</rscale>
<asrwt>0</asrwt>
<pdfrwt beam="1">  1        2 0.21606265E+00 0.13731607E+04</pdfrwt>
<pdfrwt beam="2">  1       -2 0.51638822E-01 0.13731607E+04</pdfrwt>
<totfact> 0.49684720E+01</totfact>
</mgrwt>
</event>
<event>
12    1  0.1472088E-007  0.2046569E+04  0.7818608E-02  0.8585152E-01
         -1   -1    0    0    0  501 -0.00000000000E+00  0.00000000000E+00  0.10168503285E+04  0.10168503285E+04  0.00000000000E+00 0.  1.
          1   -1    0    0  501    0  0.00000000000E+00 -0.00000000000E+00 -0.10297595687E+04  0.10297595687E+04  0.00000000000E+00 0. -1.
         23    2    1    2    0    0 -0.57763099813E+03  0.33721297042E+03  0.45713162015E+03  0.81518023181E+03  0.90439674779E+02 0.  0.
        254    2    1    2    0    0  0.57763099813E+03 -0.33721297042E+03 -0.47004086037E+03  0.12314296654E+04  0.92092912490E+03 0.  0.
        -24    2    4    4    0    0  0.62778393012E+02  0.17059143454E+03 -0.46255457902E+03  0.50388600330E+03  0.83077082196E+02 0.  0.
         24    2    4    4    0    0  0.51485260512E+03 -0.50780440496E+03 -0.74862813505E+01  0.72754366214E+03  0.79531234213E+02 0.  0.
         13    1    3    3    0    0 -0.54911295256E+03  0.29577846609E+03  0.41114954324E+03  0.74703004128E+03  0.00000000000E+00 0.  1.
        -13    1    3    3    0    0 -0.28518045571E+02  0.41434504332E+02  0.45982076906E+02  0.68150190528E+02  0.00000000000E+00 0. -1.
          4    1    6    6  502    0  0.15673243055E+03 -0.16762914180E+03 -0.38252706075E+02  0.23265393504E+03  0.00000000000E+00 0. -1.
          1    1    5    5  503    0  0.38136221955E+02  0.25978984801E+02 -0.61805768413E+02  0.77131265292E+02  0.00000000000E+00 0. -1.
         -2    1    5    5    0  503  0.24642171057E+02  0.14461244974E+03 -0.40074881060E+03  0.42675473801E+03  0.00000000000E+00 0.  1.
         -3    1    6    6    0  502  0.35812017457E+03 -0.34017526316E+03  0.30766424725E+02  0.49488972710E+03  0.00000000000E+00 0.  1.
<mgrwt>
<rscale>  0 0.20465692E+04</rscale>
<asrwt>0</asrwt>
<pdfrwt beam="1">  1        1 0.15842455E+00 0.20465692E+04</pdfrwt>
<pdfrwt beam="2">  1       -1 0.15643851E+00 0.20465692E+04</pdfrwt>
<totfact> 0.41236726E+00</totfact>
</mgrwt>
</event>
<event>
12    1  0.1472088E-007  0.1180519E+04  0.7818608E-02  0.9130081E-01
          1   -1    0    0  501    0  0.00000000000E+00  0.00000000000E+00  0.52909366969E+03  0.52909366969E+03  0.00000000000E+00 0. -1.
         -1   -1    0    0    0  501 -0.00000000000E+00 -0.00000000000E+00 -0.65849622143E+03  0.65849622143E+03  0.00000000000E+00 0.  1.
         23    2    1    2    0    0  0.15629606941E+03 -0.15335743653E+03 -0.11393088270E+03  0.26339511842E+03  0.91922672497E+02 0.  0.
        254    2    1    2    0    0 -0.15629606941E+03  0.15335743653E+03 -0.15471669039E+02  0.92419477270E+03  0.89774698033E+03 0.  0.
        -24    2    4    4    0    0 -0.52099519283E+03  0.14125565311E+03  0.27445791841E+02  0.54653412191E+03  0.80976073224E+02 0.  0.
         24    2    4    4    0    0  0.36469912341E+03  0.12101783421E+02 -0.42917460879E+02  0.37766065080E+03  0.87371362207E+02 0.  0.
         13    1    3    3    0    0  0.52529438921E+02 -0.26865029118E+02 -0.74624572470E+02  0.95130954789E+02  0.00000000000E+00 0. -1.
        -13    1    3    3    0    0  0.10376663049E+03 -0.12649240742E+03 -0.39306310233E+02  0.16826416363E+03  0.00000000000E+00 0.  1.
          4    1    6    6  502    0  0.15262237617E+03  0.15200688178E+02 -0.60400445162E+02  0.16484193764E+03  0.00000000000E+00 0. -1.
          3    1    5    5  503    0 -0.28879413936E+02  0.26898858905E+02 -0.72083864384E+01  0.40118948076E+02  0.00000000000E+00 0. -1.
         -4    1    5    5    0  503 -0.49211577889E+03  0.11435679421E+03  0.34654178279E+02  0.50641517383E+03  0.00000000000E+00 0.  1.
         -3    1    6    6    0  502  0.21207674724E+03 -0.30989047579E+01  0.17482984283E+02  0.21281871316E+03  0.00000000000E+00 0.  1.
<mgrwt>
<rscale>  0 0.11805188E+04</rscale>
<asrwt>0</asrwt>
<pdfrwt beam="1">  1        1 0.81399026E-01 0.11805188E+04</pdfrwt>
<pdfrwt beam="2">  1       -1 0.10130711E+00 0.11805188E+04</pdfrwt>
<totfact> 0.37579625E+01</totfact>
</mgrwt>
</event>
<event>
12    1  0.1472088E-007  0.1456671E+04  0.7818608E-02  0.8913789E-01
         -1   -1    0    0    0  501 -0.00000000000E+00  0.00000000000E+00  0.39566757275E+03  0.39566757275E+03  0.00000000000E+00 0.  1.
          1   -1    0    0  501    0  0.00000000000E+00 -0.00000000000E+00 -0.13407022930E+04  0.13407022930E+04  0.00000000000E+00 0. -1.
         23    2    1    2    0    0  0.17453997960E+03  0.29400622377E+03 -0.54610027857E+03  0.65106628269E+03  0.93583791902E+02 0.  0.
        254    2    1    2    0    0 -0.17453997960E+03 -0.29400622377E+03 -0.39893444164E+03  0.10853035830E+04  0.94964799503E+03 0.  0.
        -24    2    4    4    0    0 -0.36670630186E+03 -0.32639991239E+03 -0.61000735958E+03  0.78700798940E+03  0.79133949845E+02 0.  0.
         24    2    4    4    0    0  0.19216632226E+03  0.32393688615E+02  0.21107291794E+03  0.29829559360E+03  0.80319599134E+02 0.  0.
         11    1    3    3    0    0 -0.13906180995E+01  0.80771256653E+01  0.18938766804E+01  0.84119288271E+01  0.00000000000E+00 0.  1.
        -11    1    3    3    0    0  0.17593059770E+03  0.28592909811E+03 -0.54799415525E+03  0.64265435386E+03  0.00000000000E+00 0. -1.
          4    1    6    6  502    0  0.12839804880E+03  0.56268045181E+02  0.16274230157E+03  0.21479573684E+03  0.00000000000E+00 0. -1.
          1    1    5    5  503    0 -0.36218735569E+03 -0.30132405720E+03 -0.58687212477E+03  0.75259202687E+03  0.00000000000E+00 0. -1.
         -2    1    5    5    0  503 -0.45189461683E+01 -0.25075855188E+02 -0.23135234806E+02  0.34415962537E+02  0.00000000000E+00 0.  1.
         -3    1    6    6    0  502  0.63768273462E+02 -0.23874356566E+02  0.48330616368E+02  0.83499856768E+02  0.00000000000E+00 0.  1.
<mgrwt>
<rscale>  0 0.14566708E+04</rscale>
<asrwt>0</asrwt>
<pdfrwt beam="1">  1        1 0.20626189E+00 0.14566708E+04</pdfrwt>
<pdfrwt beam="2">  1       -1 0.60871935E-01 0.14566708E+04</pdfrwt>
<totfact> 0.22478272E+01</totfact>
</mgrwt>
</event>
<event>
12    1  0.1472088E-007  0.2289919E+04  0.7818608E-02  0.8481907E-01
         -2   -1    0    0    0  501 -0.00000000000E+00  0.00000000000E+00  0.58172041615E+03  0.58172041615E+03  0.00000000000E+00 0.  1.
          2   -1    0    0  501    0  0.00000000000E+00 -0.00000000000E+00 -0.22535431276E+04  0.22535431276E+04  0.00000000000E+00 0. -1.
         23    2    1    2    0    0 -0.53528671321E+03 -0.77182226653E+03 -0.10468168149E+04  0.14094581260E+04  0.92224121716E+02 0.  0.
        254    2    1    2    0    0  0.53528671321E+03  0.77182226653E+03 -0.62500589656E+03  0.14258054177E+04  0.87180688343E+03 0.  0.
        -24    2    4    4    0    0  0.10891175370E+02 -0.17514941565E+03 -0.57313973098E+02  0.20099596456E+03  0.79489312218E+02 0.  0.
         24    2    4    4    0    0  0.52439553784E+03  0.94697168217E+03 -0.56769192346E+03  0.12248094531E+04  0.78345578098E+02 0.  0.
         13    1    3    3    0    0 -0.36807664436E+03 -0.54795922013E+03 -0.79485385611E+03  0.10332145835E+04  0.00000000000E+00 0. -1.
        -13    1    3    3    0    0 -0.16721006885E+03 -0.22386304640E+03 -0.25196295875E+03  0.37624354247E+03  0.00000000000E+00 0.  1.
          4    1    6    6  502    0  0.59266931464E+02  0.14774314291E+03 -0.61891120908E+02  0.17079553943E+03  0.00000000000E+00 0. -1.
          1    1    5    5  503    0 -0.17339924957E+02 -0.15619144751E+02 -0.27840231954E+02  0.36327801963E+02  0.00000000000E+00 0. -1.
         -2    1    5    5    0  503  0.28231100327E+02 -0.15953027089E+03 -0.29473741145E+02  0.16466816260E+03  0.00000000000E+00 0.  1.
         -3    1    6    6    0  502  0.46512860638E+03  0.79922853926E+03 -0.50580080255E+03  0.10540139137E+04  0.00000000000E+00 0.  1.
<mgrwt>
<rscale>  0 0.22899188E+04</rscale>
<asrwt>0</asrwt>
<pdfrwt beam="1">  1        2 0.34669895E+00 0.22899188E+04</pdfrwt>
<pdfrwt beam="2">  1       -2 0.89495448E-01 0.22899188E+04</pdfrwt>
<totfact> 0.46786333E+00</totfact>
</mgrwt>
</event>
<event>
12    1  0.1472088E-007  0.1224181E+04  0.7818608E-02  0.9091950E-01
          2   -1    0    0  501    0  0.00000000000E+00  0.00000000000E+00  0.91029609903E+03  0.91029609903E+03  0.00000000000E+00 0. -1.
         -2   -1    0    0    0  501 -0.00000000000E+00 -0.00000000000E+00 -0.41157451984E+03  0.41157451984E+03  0.00000000000E+00 0.  1.
         23    2    1    2    0    0  0.20489067905E+03  0.17533366185E+03  0.17185387058E+03  0.33273044819E+03  0.91944086172E+02 0.  0.
        254    2    1    2    0    0 -0.20489067905E+03 -0.17533366185E+03  0.32686770861E+03  0.98914017068E+03  0.89377496887E+03 0.  0.
        -24    2    4    4    0    0  0.23682325133E+03 -0.36779712954E+03  0.14151513722E+03  0.46694642255E+03  0.81562531851E+02 0.  0.
         24    2    4    4    0    0 -0.44171393038E+03  0.19246346769E+03  0.18535257139E+03  0.52219374813E+03  0.78596133372E+02 0.  0.
         13    1    3    3    0    0  0.88189650988E+02  0.12567707727E+03  0.12335183673E+03  0.19694623103E+03  0.00000000000E+00 0. -1.
        -13    1    3    3    0    0  0.11670102806E+03  0.49656584583E+02  0.48502033849E+02  0.13578421716E+03  0.00000000000E+00 0.  1.
          2    1    6    6  502    0 -0.44168772772E+03  0.19640564242E+03  0.18060935232E+03  0.51602612660E+03  0.00000000000E+00 0. -1.
          3    1    5    5  503    0  0.14720485721E+03 -0.26846997392E+03  0.13012035085E+03  0.33268108240E+03  0.00000000000E+00 0. -1.
         -4    1    5    5    0  503  0.89618394124E+02 -0.99327155621E+02  0.11394786365E+02  0.13426534015E+03  0.00000000000E+00 0.  1.
         -1    1    6    6    0  502 -0.26202659836E-01 -0.39421747302E+01  0.47432190676E+01  0.61676215274E+01  0.00000000000E+00 0.  1.
<mgrwt>
<rscale>  0 0.12241808E+04</rscale>
<asrwt>0</asrwt>
<pdfrwt beam="1">  1        2 0.14004555E+00 0.12241808E+04</pdfrwt>
<pdfrwt beam="2">  1       -2 0.63319157E-01 0.12241808E+04</pdfrwt>
<totfact> 0.65670530E+01</totfact>
</mgrwt>
</event>
<event>
12    1  0.1472088E-007  0.2210808E+04  0.7818608E-02  0.8513943E-01
          1   -1    0    0  501    0  0.00000000000E+00  0.00000000000E+00  0.99381005465E+03  0.99381005465E+03  0.00000000000E+00 0. -1.
         -1   -1    0    0    0  501 -0.00000000000E+00 -0.00000000000E+00 -0.12295289839E+04  0.12295289839E+04  0.00000000000E+00 0.  1.
         23    2    1    2    0    0 -0.22330878863E+03  0.87951534785E+03 -0.22694098260E+03  0.93974780872E+03  0.90607241504E+02 0.  0.
        254    2    1    2    0    0  0.22330878863E+03 -0.87951534785E+03 -0.87779466938E+01  0.12835912299E+04  0.90780798129E+03 0.  0.
        -24    2    4    4    0    0  0.50901357130E+03 -0.31699507054E+03  0.15768940980E+03  0.62625085741E+03  0.87997135913E+02 0.  0.
         24    2    4    4    0    0 -0.28570478267E+03 -0.56252027732E+03 -0.16646735650E+03  0.65734037247E+03  0.79553122269E+02 0.  0.
         13    1    3    3    0    0 -0.57799787181E+02  0.16349716968E+03 -0.10913828014E+02  0.17375629926E+03  0.00000000000E+00 0.  1.
        -13    1    3    3    0    0 -0.16550900145E+03  0.71601817818E+03 -0.21602715459E+03  0.76599150946E+03  0.00000000000E+00 0. -1.
          4    1    6    6  502    0 -0.12677748857E+03 -0.22934075392E+03 -0.29917593332E+02  0.26375135148E+03  0.00000000000E+00 0. -1.
          1    1    5    5  503    0  0.99922639168E+02 -0.96788729492E+02  0.13348069448E+02  0.13975250600E+03  0.00000000000E+00 0. -1.
         -2    1    5    5    0  503  0.40909093214E+03 -0.22020634105E+03  0.14434134036E+03  0.48649835141E+03  0.00000000000E+00 0.  1.
         -3    1    6    6    0  502 -0.15892729410E+03 -0.33317952339E+03 -0.13654976317E+03  0.39358902098E+03  0.00000000000E+00 0.  1.
<mgrwt>
<rscale>  0 0.22108082E+04</rscale>
<asrwt>0</asrwt>
<pdfrwt beam="1">  1        1 0.15289386E+00 0.22108082E+04</pdfrwt>
<pdfrwt beam="2">  1       -1 0.18915830E+00 0.22108082E+04</pdfrwt>
<totfact> 0.24964526E+00</totfact>
</mgrwt>
</event>
<event>
12    1  0.1472088E-007  0.1982667E+04  0.7818608E-02  0.8614768E-01
         -2   -1    0    0    0  501 -0.00000000000E+00  0.00000000000E+00  0.50443662545E+03  0.50443662545E+03  0.00000000000E+00 0.  1.
          2   -1    0    0  501    0  0.00000000000E+00 -0.00000000000E+00 -0.19481970432E+04  0.19481970432E+04  0.00000000000E+00 0. -1.
         23    2    1    2    0    0  0.59608556713E+02 -0.71179112806E+03 -0.18474026547E+03  0.74632623955E+03  0.11257930594E+03 0.  0.
        254    2    1    2    0    0 -0.59608556713E+02  0.71179112806E+03 -0.12590201523E+04  0.17063074291E+04  0.90341214778E+03 0.  0.
        -24    2    4    4    0    0 -0.95552667088E+02 -0.18143103076E+03 -0.10250026787E+03  0.24255298228E+03  0.79234545429E+02 0.  0.
         24    2    4    4    0    0  0.35944110374E+02  0.89322215883E+03 -0.11565198844E+04  0.14637544468E+04  0.76818184504E+02 0.  0.
         11    1    3    3    0    0  0.82064696366E+02 -0.53957442005E+03 -0.17175486562E+03  0.57216684894E+03  0.00000000000E+00 0.  1.
        -11    1    3    3    0    0 -0.22456139653E+02 -0.17221670801E+03 -0.12985399851E+02  0.17415939061E+03  0.00000000000E+00 0. -1.
          2    1    6    6  502    0  0.11953191497E+02  0.44681730321E+03 -0.64009925066E+03  0.78071482113E+03  0.00000000000E+00 0. -1.
          3    1    5    5  503    0  0.71636008115E+01 -0.43980945414E+02 -0.40166608708E+02  0.59991642678E+02  0.00000000000E+00 0. -1.
         -4    1    5    5    0  503 -0.10271626790E+03 -0.13745008535E+03 -0.62333659158E+02  0.18256133960E+03  0.00000000000E+00 0.  1.
         -3    1    6    6    0  502  0.23990918878E+02  0.44640485562E+03 -0.51642063376E+03  0.68303962570E+03  0.00000000000E+00 0.  1.
<mgrwt>
<rscale>  0 0.19826668E+04</rscale>
<asrwt>0</asrwt>
<pdfrwt beam="1">  1        2 0.29972262E+00 0.19826668E+04</pdfrwt>
<pdfrwt beam="2">  1       -2 0.77605634E-01 0.19826668E+04</pdfrwt>
<totfact> 0.98285757E+00</totfact>
</mgrwt>
</event>
<event>
12    1  0.1472088E-007  0.1419695E+04  0.7818608E-02  0.8939684E-01
          1   -1    0    0  501    0  0.00000000000E+00  0.00000000000E+00  0.23584578678E+04  0.23584578678E+04  0.00000000000E+00 0. -1.
         -1   -1    0    0    0  501 -0.00000000000E+00 -0.00000000000E+00 -0.21364963262E+03  0.21364963262E+03  0.00000000000E+00 0.  1.
         23    2    1    2    0    0 -0.27306468797E+03  0.30610223759E+03  0.79003786364E+03  0.89518733908E+03  0.94539105067E+02 0.  0.
        254    2    1    2    0    0  0.27306468797E+03 -0.30610223759E+03  0.13547703716E+04  0.16769201614E+04  0.89910820498E+03 0.  0.
        -24    2    4    4    0    0 -0.95249660450E+02 -0.54969099942E+02 -0.89907442630E+02  0.16297219322E+03  0.79890473506E+02 0.  0.
         24    2    4    4    0    0  0.36831434842E+03 -0.25113313765E+03  0.14446778142E+04  0.15139479682E+04  0.78874275625E+02 0.  0.
         13    1    3    3    0    0 -0.21103812791E+03  0.27743489495E+03  0.60930363779E+03  0.70196733214E+03  0.00000000000E+00 0. -1.
        -13    1    3    3    0    0 -0.62026560055E+02  0.28667342633E+02  0.18073422585E+03  0.19322000693E+03  0.00000000000E+00 0.  1.
          2    1    6    6  502    0  0.30138893863E+03 -0.21789413506E+03  0.10968920592E+04  0.11582250800E+04  0.00000000000E+00 0. -1.
          1    1    5    5  503    0 -0.80184490071E+02 -0.74774942039E+02 -0.81828761268E+02  0.13680932196E+03  0.00000000000E+00 0. -1.
         -2    1    5    5    0  503 -0.15065170379E+02  0.19805842097E+02 -0.80786813619E+01  0.26162871254E+02  0.00000000000E+00 0.  1.
         -1    1    6    6    0  502  0.66925409783E+02 -0.33239002585E+02  0.34778575502E+03  0.35572288817E+03  0.00000000000E+00 0.  1.
<mgrwt>
<rscale>  0 0.14196953E+04</rscale>
<asrwt>0</asrwt>
<pdfrwt beam="1">  1        1 0.36283965E+00 0.14196953E+04</pdfrwt>
<pdfrwt beam="2">  1       -1 0.32869176E-01 0.14196953E+04</pdfrwt>
<totfact> 0.14377644E+01</totfact>
</mgrwt>
</event>
<event>
12    1  0.1472088E-007  0.1088597E+04  0.7818608E-02  0.9216378E-01
          2   -1    0    0  501    0  0.00000000000E+00  0.00000000000E+00  0.44191999332E+03  0.44191999332E+03  0.00000000000E+00 0. -1.
         -2   -1    0    0    0  501 -0.00000000000E+00 -0.00000000000E+00 -0.67039438532E+03  0.67039438532E+03  0.00000000000E+00 0.  1.
         23    2    1    2    0    0  0.52872723445E+02  0.12356539031E+03  0.20119062905E+02  0.16432242043E+03  0.92375053977E+02 0.  0.
        254    2    1    2    0    0 -0.52872723445E+02 -0.12356539031E+03 -0.24859345490E+03  0.94799195821E+03  0.90489011291E+03 0.  0.
        -24    2    4    4    0    0 -0.38583251678E+03 -0.19510234372E+03  0.10279499042E+03  0.45167637588E+03  0.80703673634E+02 0.  0.
         24    2    4    4    0    0  0.33295979334E+03  0.71536953411E+02 -0.35138844533E+03  0.49631558233E+03  0.82918984967E+02 0.  0.
         13    1    3    3    0    0  0.74543400785E+02  0.11738904379E+03  0.94148300723E+01  0.13937555463E+03  0.00000000000E+00 0.  1.
        -13    1    3    3    0    0 -0.21670677340E+02  0.61763465150E+01  0.10704232833E+02  0.24946865799E+02  0.00000000000E+00 0. -1.
          4    1    6    6  502    0  0.28127411973E+03  0.90411985728E+02 -0.29874863305E+03  0.42016687559E+03  0.00000000000E+00 0. -1.
          1    1    5    5  503    0 -0.34355661385E+03 -0.17238170485E+03  0.63373753608E+02  0.38956749317E+03  0.00000000000E+00 0. -1.
         -2    1    5    5    0  503 -0.42275902933E+02 -0.22720638874E+02  0.39421236815E+02  0.62108882712E+02  0.00000000000E+00 0.  1.
         -3    1    6    6    0  502  0.51685673609E+02 -0.18875032316E+02 -0.52639812281E+02  0.76148706741E+02  0.00000000000E+00 0.  1.
<mgrwt>
<rscale>  0 0.10885967E+04</rscale>
<asrwt>0</asrwt>
<pdfrwt beam="1">  1        2 0.67987692E-01 0.10885967E+04</pdfrwt>
<pdfrwt beam="2">  1       -2 0.10313760E+00 0.10885967E+04</pdfrwt>
<totfact> 0.54139920E+01</totfact>
</mgrwt>
</event>
<event>
12    1  0.1790688E-007  0.2119777E+04  0.7818608E-02  0.8552581E-01
         -1   -1    0    0    0  501 -0.00000000000E+00  0.00000000000E+00  0.57972012231E+03  0.57972012231E+03  0.00000000000E+00 0.  1.
          1   -1    0    0  501    0  0.00000000000E+00 -0.00000000000E+00 -0.19377683003E+04  0.19377683003E+04  0.00000000000E+00 0. -1.
         23    2    1    2    0    0  0.44616115296E+03 -0.59740848311E+03 -0.10990013942E+04  0.13311889884E+04  0.91122928890E+02 0.  0.
        254    2    1    2    0    0 -0.44616115296E+03  0.59740848311E+03 -0.25904678376E+03  0.11862994342E+04  0.88557576826E+03 0.  0.
        -24    2    4    4    0    0 -0.29798353305E+03  0.44748099063E+03  0.27286999922E+03  0.60842727885E+03  0.81806443726E+02 0.  0.
         24    2    4    4    0    0 -0.14817761991E+03  0.14992749249E+03 -0.53191678298E+03  0.57787215536E+03  0.81030265195E+02 0.  0.
         11    1    3    3    0    0  0.44668205418E+03 -0.59193435583E+03 -0.10988811141E+04  0.13256888179E+04  0.00000000000E+00 0. -1.
        -11    1    3    3    0    0 -0.52090122125E+00 -0.54741272855E+01 -0.12028015555E+00  0.55001704460E+01  0.00000000000E+00 0.  1.
          2    1    6    6  502    0 -0.64945191397E+00  0.68846280459E+00 -0.75703596206E+02  0.75709512265E+02  0.00000000000E+00 0. -1.
          1    1    5    5  503    0 -0.60018220094E+02  0.13866568266E+03  0.48923064142E+02  0.15882010104E+03  0.00000000000E+00 0. -1.
         -2    1    5    5    0  503 -0.23796531295E+03  0.30881530797E+03  0.22394693508E+03  0.44960717781E+03  0.00000000000E+00 0.  1.
         -1    1    6    6    0  502 -0.14752816800E+03  0.14923902968E+03 -0.45621318678E+03  0.50216264310E+03  0.00000000000E+00 0.  1.
<mgrwt>
<rscale>  0 0.21197767E+04</rscale>
<asrwt>0</asrwt>
<pdfrwt beam="1">  1        1 0.29811820E+00 0.21197767E+04</pdfrwt>
<pdfrwt beam="2">  1       -1 0.89187710E-01 0.21197767E+04</pdfrwt>
<totfact> 0.37155494E+00</totfact>
</mgrwt>
</event>
<event>
12    1  0.1472088E-007  0.1117307E+04  0.7818608E-02  0.9188486E-01
          2   -1    0    0  501    0  0.00000000000E+00  0.00000000000E+00  0.14218528872E+04  0.14218528872E+04  0.00000000000E+00 0. -1.
         -2   -1    0    0    0  501 -0.00000000000E+00 -0.00000000000E+00 -0.21949772422E+03  0.21949772422E+03  0.00000000000E+00 0.  1.
         23    2    1    2    0    0  0.49334585654E+02  0.12114980966E+03  0.30677111091E+02  0.16227314955E+03  0.90996220789E+02 0.  0.
        254    2    1    2    0    0 -0.49334585654E+02 -0.12114980966E+03  0.11716780519E+04  0.14790774619E+04  0.89315704287E+03 0.  0.
        -24    2    4    4    0    0 -0.18697274936E+03  0.32427492718E+03  0.76708071865E+03  0.85754102348E+03  0.82769200871E+02 0.  0.
         24    2    4    4    0    0  0.13763816371E+03 -0.44542473683E+03  0.40459733326E+03  0.62153643842E+03  0.72533315863E+02 0.  0.
         13    1    3    3    0    0  0.88558789144E+01  0.69291591828E+01  0.39211372966E+02  0.40791808102E+02  0.00000000000E+00 0. -1.
        -13    1    3    3    0    0  0.40478706739E+02  0.11422065047E+03 -0.85342618751E+01  0.12148134145E+03  0.00000000000E+00 0.  1.
          4    1    6    6  502    0  0.44227022296E+02 -0.20964252761E+03  0.22553177635E+03  0.31107973420E+03  0.00000000000E+00 0. -1.
          1    1    5    5  503    0 -0.56447355438E+02  0.13661509709E+03  0.22473573797E+03  0.26899096752E+03  0.00000000000E+00 0. -1.
         -2    1    5    5    0  503 -0.13052539392E+03  0.18765983009E+03  0.54234498068E+03  0.58855005595E+03  0.00000000000E+00 0.  1.
         -3    1    6    6    0  502  0.93411141412E+02 -0.23578220922E+03  0.17906555691E+03  0.31045670422E+03  0.00000000000E+00 0.  1.
<mgrwt>
<rscale>  0 0.11173065E+04</rscale>
<asrwt>0</asrwt>
<pdfrwt beam="1">  1        2 0.21874659E+00 0.11173065E+04</pdfrwt>
<pdfrwt beam="2">  1       -2 0.33768882E-01 0.11173065E+04</pdfrwt>
<totfact> 0.11429798E+02</totfact>
</mgrwt>
</event>
<event>
12    1  0.1472088E-007  0.1440604E+04  0.7818608E-02  0.8924940E-01
         -1   -1    0    0    0  501 -0.00000000000E+00  0.00000000000E+00  0.17646693229E+04  0.17646693229E+04  0.00000000000E+00 0.  1.
          1   -1    0    0  501    0  0.00000000000E+00 -0.00000000000E+00 -0.29401268742E+03  0.29401268742E+03  0.00000000000E+00 0. -1.
         23    2    1    2    0    0 -0.34209464151E+03  0.19313992938E+03  0.19158283709E+03  0.44608476913E+03  0.89195637280E+02 0.  0.
        254    2    1    2    0    0  0.34209464151E+03 -0.19313992938E+03  0.12790737984E+04  0.16125972412E+04  0.90006016715E+03 0.  0.
        -24    2    4    4    0    0 -0.30194738301E+03 -0.45182089850E+02  0.37621474047E+03  0.49097251068E+03  0.79390376919E+02 0.  0.
         24    2    4    4    0    0  0.64404202452E+03 -0.14795783953E+03  0.90285905789E+03  0.11216247305E+04  0.78777572815E+02 0.  0.
         11    1    3    3    0    0 -0.14473598934E+01 -0.67172154680E+01  0.80272234377E+01  0.10566558116E+02  0.00000000000E+00 0.  1.
        -11    1    3    3    0    0 -0.34064728161E+03  0.19985714485E+03  0.18355561365E+03  0.43551821101E+03  0.00000000000E+00 0. -1.
          2    1    6    6  502    0  0.48946612958E+03 -0.14611060748E+03  0.68471689152E+03  0.85426144895E+03  0.00000000000E+00 0. -1.
          1    1    5    5  503    0 -0.19140170370E+03 -0.65530454214E+01  0.28095228928E+03  0.34001726932E+03  0.00000000000E+00 0. -1.
         -2    1    5    5    0  503 -0.11054567931E+03 -0.38629044429E+02  0.95262451188E+02  0.15095524136E+03  0.00000000000E+00 0.  1.
         -1    1    6    6    0  502  0.15457589494E+03 -0.18472320568E+01  0.21814216637E+03  0.26736328153E+03  0.00000000000E+00 0.  1.
<mgrwt>
<rscale>  0 0.14406043E+04</rscale>
<asrwt>0</asrwt>
<pdfrwt beam="1">  1        1 0.45232722E-01 0.14406043E+04</pdfrwt>
<pdfrwt beam="2">  1       -1 0.27148758E+00 0.14406043E+04</pdfrwt>
<totfact> 0.44286241E+00</totfact>
</mgrwt>
</event>
<event>
12    1  0.1472088E-007  0.1406346E+04  0.7818608E-02  0.8949238E-01
          3   -1    0    0  501    0  0.00000000000E+00  0.00000000000E+00  0.50845912130E+03  0.50845912130E+03  0.00000000000E+00 0. -1.
         -3   -1    0    0    0  501 -0.00000000000E+00 -0.00000000000E+00 -0.97245223783E+03  0.97245223783E+03  0.00000000000E+00 0.  1.
         23    2    1    2    0    0  0.82720444472E+02 -0.15205947032E+03  0.25663822855E+03  0.32285014232E+03  0.91674858058E+02 0.  0.
        254    2    1    2    0    0 -0.82720444472E+02  0.15205947032E+03 -0.72063134508E+03  0.11580612168E+04  0.88984913998E+03 0.  0.
        -24    2    4    4    0    0  0.24401242738E+03 -0.23793710167E+03 -0.12574427038E+03  0.37121362098E+03  0.76366234735E+02 0.  0.
         24    2    4    4    0    0 -0.32673287185E+03  0.38999657198E+03 -0.59488707470E+03  0.78684759582E+03  0.79917530610E+02 0.  0.
         13    1    3    3    0    0  0.38717515085E+01  0.85830072191E+01 -0.66190741859E+00  0.94390992207E+01  0.00000000000E+00 0.  1.
        -13    1    3    3    0    0  0.78848692964E+02 -0.16064247754E+03  0.25730013597E+03  0.31341104310E+03  0.00000000000E+00 0. -1.
          2    1    6    6  502    0 -0.11720106852E+03  0.94389691606E+02 -0.20867124945E+03  0.25727260774E+03  0.00000000000E+00 0. -1.
          3    1    5    5  503    0  0.56451987311E+01  0.25538992030E+00  0.70310295506E+01  0.90204694593E+01  0.00000000000E+00 0. -1.
         -4    1    5    5    0  503  0.23836722865E+03 -0.23819249159E+03 -0.13277529993E+03  0.36219315153E+03  0.00000000000E+00 0.  1.
         -1    1    6    6    0  502 -0.20953180333E+03  0.29560688038E+03 -0.38621582525E+03  0.52957498809E+03  0.00000000000E+00 0.  1.
<mgrwt>
<rscale>  0 0.14063459E+04</rscale>
<asrwt>0</asrwt>
<pdfrwt beam="1">  1        3 0.78224480E-01 0.14063459E+04</pdfrwt>
<pdfrwt beam="2">  1       -3 0.14960804E+00 0.14063459E+04</pdfrwt>
<totfact> 0.12658071E+00</totfact>
</mgrwt>
</event>
<event>
12    1  0.1472088E-007  0.1651000E+04  0.7818608E-02  0.8789815E-01
         -1   -1    0    0    0  501 -0.00000000000E+00  0.00000000000E+00  0.38222663952E+03  0.38222663952E+03  0.00000000000E+00 0.  1.
          1   -1    0    0  501    0  0.00000000000E+00 -0.00000000000E+00 -0.17828432674E+04  0.17828432674E+04  0.00000000000E+00 0. -1.
         23    2    1    2    0    0  0.88574121641E+02 -0.56504824543E+03 -0.48028317070E+03  0.75272806508E+03  0.93822818220E+02 0.  0.
        254    2    1    2    0    0 -0.88574121641E+02  0.56504824543E+03 -0.92033345722E+03  0.14123418419E+04  0.90585369190E+03 0.  0.
        -24    2    4    4    0    0  0.73427152597E+01 -0.17362930642E+03  0.38963318589E+02  0.19536462664E+03  0.80300346405E+02 0.  0.
         24    2    4    4    0    0 -0.95916836901E+02  0.73867755184E+03 -0.95929677580E+03  0.12169772152E+04  0.77062786840E+02 0.  0.
         11    1    3    3    0    0  0.42496243463E+02 -0.48653489368E+03 -0.39810042025E+03  0.63008418333E+03  0.00000000000E+00 0. -1.
        -11    1    3    3    0    0  0.46077878178E+02 -0.78513351746E+02 -0.82182750456E+02  0.12264388176E+03  0.00000000000E+00 0.  1.
          2    1    6    6  502    0 -0.10801223555E+03  0.66123798894E+03 -0.84507212875E+03  0.10784475990E+04  0.00000000000E+00 0. -1.
          3    1    5    5  503    0  0.40492142699E+02 -0.73674191394E+02  0.31308487726E+01  0.84126703917E+02  0.00000000000E+00 0. -1.
         -4    1    5    5    0  503 -0.33149427439E+02 -0.99955115022E+02  0.35832469817E+02  0.11123792272E+03  0.00000000000E+00 0.  1.
         -1    1    6    6    0  502  0.12095398653E+02  0.77439562900E+02 -0.11422464705E+03  0.13852961620E+03  0.00000000000E+00 0.  1.
<mgrwt>
<rscale>  0 0.16509999E+04</rscale>
<asrwt>0</asrwt>
<pdfrwt beam="1">  1        1 0.27428358E+00 0.16509999E+04</pdfrwt>
<pdfrwt beam="2">  1       -1 0.58804099E-01 0.16509999E+04</pdfrwt>
<totfact> 0.11720951E+01</totfact>
</mgrwt>
</event>
<event>
12    1  0.1472088E-007  0.2261017E+04  0.7818608E-02  0.8493452E-01
          2   -1    0    0  501    0  0.00000000000E+00  0.00000000000E+00  0.77078183772E+03  0.77078183772E+03  0.00000000000E+00 0. -1.
         -2   -1    0    0    0  501 -0.00000000000E+00 -0.00000000000E+00 -0.16581213837E+04  0.16581213837E+04  0.00000000000E+00 0.  1.
         23    2    1    2    0    0  0.20023478676E+03  0.64946793537E+03 -0.10375369067E+04  0.12436628889E+04  0.91170058937E+02 0.  0.
        254    2    1    2    0    0 -0.20023478676E+03 -0.64946793537E+03  0.15019736069E+03  0.11852403325E+04  0.95933978846E+03 0.  0.
        -24    2    4    4    0    0  0.31617483965E+03 -0.22111529974E+03 -0.17933905419E+03  0.43346717844E+03  0.82902312492E+02 0.  0.
         24    2    4    4    0    0 -0.51640962641E+03 -0.42835263563E+03  0.32953641489E+03  0.75177315406E+03  0.80023394924E+02 0.  0.
         11    1    3    3    0    0  0.92806789014E+01  0.53332539882E+02 -0.13353063907E+03  0.14408651006E+03  0.00000000000E+00 0. -1.
        -11    1    3    3    0    0  0.19095410785E+03  0.59613539549E+03 -0.90400626760E+03  0.10995763789E+04  0.00000000000E+00 0.  1.
          4    1    6    6  502    0 -0.17375914389E+03 -0.17452238808E+03  0.86933822764E+02  0.26116621828E+03  0.00000000000E+00 0. -1.
          3    1    5    5  503    0  0.29236207295E+03 -0.17148179553E+03 -0.16261594669E+03  0.37593288499E+03  0.00000000000E+00 0. -1.
         -4    1    5    5    0  503  0.23812766705E+02 -0.49633504213E+02 -0.16723107497E+02  0.57534293452E+02  0.00000000000E+00 0.  1.
         -3    1    6    6    0  502 -0.34265048251E+03 -0.25383024755E+03  0.24260259212E+03  0.49060693579E+03  0.00000000000E+00 0.  1.
<mgrwt>
<rscale>  0 0.22610173E+04</rscale>
<asrwt>0</asrwt>
<pdfrwt beam="1">  1        2 0.11858182E+00 0.22610173E+04</pdfrwt>
<pdfrwt beam="2">  1       -2 0.25509560E+00 0.22610173E+04</pdfrwt>
<totfact> 0.19674238E+00</totfact>
</mgrwt>
</event>
<event>
12    1  0.1472088E-007  0.1363228E+04  0.7818608E-02  0.8980875E-01
         -2   -1    0    0    0  501 -0.00000000000E+00  0.00000000000E+00  0.93911232959E+03  0.93911232959E+03  0.00000000000E+00 0.  1.
          2   -1    0    0  501    0  0.00000000000E+00 -0.00000000000E+00 -0.49472015120E+03  0.49472015120E+03  0.00000000000E+00 0. -1.
         23    2    1    2    0    0  0.11250723017E+03 -0.29183572279E+03 -0.98291556327E+02  0.34017491596E+03  0.90729143415E+02 0.  0.
        254    2    1    2    0    0 -0.11250723017E+03  0.29183572279E+03  0.54268373471E+03  0.10936575648E+04  0.89652399146E+03 0.  0.
        -24    2    4    4    0    0 -0.19906377044E+03  0.15291094080E+03  0.76336396848E+03  0.80770363585E+03  0.81562702649E+02 0.  0.
         24    2    4    4    0    0  0.86556540263E+02  0.13892478199E+03 -0.22068023377E+03  0.28595392899E+03  0.79232280128E+02 0.  0.
         13    1    3    3    0    0  0.24439799737E+02 -0.11813942246E+03  0.29651060845E+01  0.12067733343E+03  0.00000000000E+00 0.  1.
        -13    1    3    3    0    0  0.88067430437E+02 -0.17369630033E+03 -0.10125666241E+03  0.21949758253E+03  0.00000000000E+00 0. -1.
          2    1    6    6  502    0  0.66106648888E+02  0.12838021413E+03 -0.21972329952E+03  0.26292564873E+03  0.00000000000E+00 0. -1.
          1    1    5    5  503    0 -0.18997445486E+03  0.15257848278E+03  0.65322304688E+03  0.69718780532E+03  0.00000000000E+00 0. -1.
         -2    1    5    5    0  503 -0.90893155782E+01  0.33245801735E+00  0.11014092160E+03  0.11051583053E+03  0.00000000000E+00 0.  1.
         -1    1    6    6    0  502  0.20449891374E+02  0.10544567865E+02 -0.95693424887E+00  0.23028280262E+02  0.00000000000E+00 0.  1.
<mgrwt>
<rscale>  0 0.13632282E+04</rscale>
<asrwt>0</asrwt>
<pdfrwt beam="1">  1        2 0.76110793E-01 0.13632282E+04</pdfrwt>
<pdfrwt beam="2">  1       -2 0.14447882E+00 0.13632282E+04</pdfrwt>
<totfact> 0.20109052E+01</totfact>
</mgrwt>
</event>
<event>
12    1  0.1608664E-007  0.1874056E+04  0.7818608E-02  0.8667879E-01
          2   -1    0    0  501    0  0.00000000000E+00  0.00000000000E+00  0.35012841019E+04  0.35012841019E+04  0.00000000000E+00 0.  1.
         -2   -1    0    0    0  501 -0.00000000000E+00 -0.00000000000E+00 -0.25077129362E+03  0.25077129362E+03  0.00000000000E+00 0. -1.
         23    2    1    2    0    0 -0.27399989062E+03 -0.71294241470E+02 -0.58424859165E+02  0.31088066522E+03  0.11434384510E+03 0.  0.
        254    2    1    2    0    0  0.27399989062E+03  0.71294241470E+02  0.33089376675E+04  0.34411747303E+04  0.90136353848E+03 0.  0.
        -24    2    4    4    0    0 -0.16803136625E+03  0.25586873056E+03  0.50729154637E+03  0.59773477947E+03  0.78986114242E+02 0.  0.
         24    2    4    4    0    0  0.44203125687E+03 -0.18457448909E+03  0.28016461211E+04  0.28434399509E+04  0.80438747936E+02 0.  0.
         13    1    3    3    0    0 -0.60489287160E+02 -0.54861843782E+02  0.17794236606E+02  0.83578768958E+02  0.00000000000E+00 0.  1.
        -13    1    3    3    0    0 -0.21351060346E+03 -0.16432397688E+02 -0.76219095770E+02  0.22730189626E+03  0.00000000000E+00 0. -1.
          4    1    6    6  502    0  0.15344664860E+02 -0.23084707804E+01  0.36888626889E+02  0.40019477393E+02  0.00000000000E+00 0. -1.
          3    1    5    5  503    0  0.79096092461E+01  0.20096595937E+02  0.28005854764E+02  0.35366127690E+02  0.00000000000E+00 0. -1.
         -4    1    5    5    0  503 -0.17594097550E+03  0.23577213463E+03  0.47928569160E+03  0.56236865178E+03  0.00000000000E+00 0.  1.
         -3    1    6    6    0  502  0.42668659201E+03 -0.18226601831E+03  0.27647574942E+04  0.28034204735E+04  0.00000000000E+00 0.  1.
<mgrwt>
<rscale>  0 0.18740561E+04</rscale>
<asrwt>0</asrwt>
<pdfrwt beam="1">  1        2 0.53865905E+00 0.18740561E+04</pdfrwt>
<pdfrwt beam="2">  1       -2 0.38580202E-01 0.18740561E+04</pdfrwt>
<totfact> 0.48675430E+00</totfact>
</mgrwt>
</event>
<event>
12    1  0.1472088E-007  0.2379533E+04  0.7818608E-02  0.8447206E-01
          1   -1    0    0  501    0  0.00000000000E+00  0.00000000000E+00  0.32297347857E+04  0.32297347857E+04  0.00000000000E+00 0. -1.
         -1   -1    0    0    0  501 -0.00000000000E+00 -0.00000000000E+00 -0.43828491639E+03  0.43828491639E+03  0.00000000000E+00 0.  1.
         23    2    1    2    0    0  0.48455236051E+02  0.10008176817E+04  0.92226315127E+03  0.13656075694E+04  0.10164040257E+03 0.  0.
        254    2    1    2    0    0 -0.48455236051E+02 -0.10008176817E+04  0.18691867181E+04  0.23024121327E+04  0.89624700831E+03 0.  0.
        -24    2    4    4    0    0 -0.32296904651E+03 -0.26747344690E+03  0.11849635118E+04  0.12595372953E+04  0.80278416017E+02 0.  0.
         24    2    4    4    0    0  0.27451381046E+03 -0.73334423483E+03  0.68422320626E+03  0.10428748374E+04  0.79214466408E+02 0.  0.
         11    1    3    3    0    0  0.22963972737E+02  0.79929462654E+03  0.68181367349E+03  0.10508421049E+04  0.00000000000E+00 0. -1.
        -11    1    3    3    0    0  0.25491263314E+02  0.20152305519E+03  0.24044947778E+03  0.31476546450E+03  0.00000000000E+00 0.  1.
          4    1    6    6  502    0  0.18989327306E+03 -0.40572472689E+03  0.41149440608E+03  0.60827596977E+03  0.00000000000E+00 0. -1.
          1    1    5    5  503    0 -0.22259934592E+03 -0.20070606515E+03  0.73642257664E+03  0.79507962166E+03  0.00000000000E+00 0. -1.
         -2    1    5    5    0  503 -0.10036970059E+03 -0.66767381753E+02  0.44854093516E+03  0.46445767361E+03  0.00000000000E+00 0.  1.
         -3    1    6    6    0  502  0.84620537404E+02 -0.32761950795E+03  0.27272880018E+03  0.43459886767E+03  0.00000000000E+00 0.  1.
<mgrwt>
<rscale>  0 0.23795328E+04</rscale>
<asrwt>0</asrwt>
<pdfrwt beam="1">  1        1 0.49688226E+00 0.23795328E+04</pdfrwt>
<pdfrwt beam="2">  1       -1 0.67428451E-01 0.23795328E+04</pdfrwt>
<totfact> 0.80799074E-01</totfact>
</mgrwt>
</event>
<event>
12    1  0.1472088E-007  0.1566212E+04  0.7818608E-02  0.8841578E-01
          1   -1    0    0  501    0  0.00000000000E+00  0.00000000000E+00  0.17156534462E+04  0.17156534462E+04  0.00000000000E+00 0. -1.
         -1   -1    0    0    0  501 -0.00000000000E+00 -0.00000000000E+00 -0.35744708333E+03  0.35744708333E+03  0.00000000000E+00 0.  1.
         23    2    1    2    0    0 -0.14817191862E+03 -0.24360005799E+03 -0.11578348101E+03  0.31950464371E+03  0.85915639774E+02 0.  0.
        254    2    1    2    0    0  0.14817191862E+03  0.24360005799E+03  0.14739898439E+04  0.17535958859E+04  0.90617689510E+03 0.  0.
        -24    2    4    4    0    0  0.41746450973E+03 -0.11987088844E+03  0.10004470162E+04  0.10936411195E+04  0.80690887656E+02 0.  0.
         24    2    4    4    0    0 -0.26929259110E+03  0.36347094643E+03  0.47354282774E+03  0.65995476634E+03  0.81656937176E+02 0.  0.
         13    1    3    3    0    0 -0.95969856901E+02 -0.18899899510E+03 -0.46513304417E+02  0.21701226018E+03  0.00000000000E+00 0. -1.
        -13    1    3    3    0    0 -0.52202061721E+02 -0.54601062897E+02 -0.69270176590E+02  0.10249238353E+03  0.00000000000E+00 0.  1.
          4    1    6    6  502    0 -0.80967176130E+02  0.12938167320E+03  0.10895963338E+03  0.18753000474E+03  0.00000000000E+00 0. -1.
          1    1    5    5  503    0  0.20873933548E+03 -0.59905642308E+02  0.60010011193E+03  0.63818566303E+03  0.00000000000E+00 0. -1.
         -2    1    5    5    0  503  0.20872517424E+03 -0.59965246134E+02  0.40034690425E+03  0.45545545649E+03  0.00000000000E+00 0.  1.
         -3    1    6    6    0  502 -0.18832541497E+03  0.23408927323E+03  0.36458319435E+03  0.47242476160E+03  0.00000000000E+00 0.  1.
<mgrwt>
<rscale>  0 0.15662124E+04</rscale>
<asrwt>0</asrwt>
<pdfrwt beam="1">  1        1 0.26394668E+00 0.15662124E+04</pdfrwt>
<pdfrwt beam="2">  1       -1 0.54991860E-01 0.15662124E+04</pdfrwt>
<totfact> 0.14954019E+01</totfact>
</mgrwt>
</event>
<event>
12    1  0.1472088E-007  0.1193490E+04  0.7818608E-02  0.9118574E-01
          1   -1    0    0  501    0  0.00000000000E+00  0.00000000000E+00  0.14456709973E+04  0.14456709973E+04  0.00000000000E+00 0. -1.
         -1   -1    0    0    0  501 -0.00000000000E+00 -0.00000000000E+00 -0.24632488632E+03  0.24632488632E+03  0.00000000000E+00 0.  1.
         23    2    1    2    0    0 -0.19949475262E+03  0.32981382256E+01  0.46116828655E+03  0.51058601557E+03  0.90624813042E+02 0.  0.
        254    2    1    2    0    0  0.19949475262E+03 -0.32981382256E+01  0.73817782445E+03  0.11814098681E+04  0.90056301380E+03 0.  0.
        -24    2    4    4    0    0  0.94004880148E+02 -0.29216215141E+03 -0.58520044236E+02  0.32373345735E+03  0.84753263177E+02 0.  0.
         24    2    4    4    0    0  0.10548987248E+03  0.28886401319E+03  0.79669786869E+03  0.85767641072E+03  0.79440545220E+02 0.  0.
         13    1    3    3    0    0 -0.78914116363E+01 -0.18140793758E+02  0.15938917709E+02  0.25404957656E+02  0.00000000000E+00 0.  1.
        -13    1    3    3    0    0 -0.19160334099E+03  0.21438931984E+02  0.44522936884E+03  0.48518105792E+03  0.00000000000E+00 0. -1.
          2    1    6    6  502    0  0.64514386186E+02  0.23542772919E+03  0.68564074945E+03  0.72779911995E+03  0.00000000000E+00 0. -1.
          1    1    5    5  503    0  0.87373297390E+02 -0.29609849274E+03 -0.62608111546E+02  0.31500505731E+03  0.00000000000E+00 0. -1.
         -2    1    5    5    0  503  0.66315827574E+01  0.39363413258E+01  0.40880673099E+01  0.87284000385E+01  0.00000000000E+00 0.  1.
         -1    1    6    6    0  502  0.40975486290E+02  0.53436283994E+02  0.11105711924E+03  0.12987729077E+03  0.00000000000E+00 0.  1.
<mgrwt>
<rscale>  0 0.11934902E+04</rscale>
<asrwt>0</asrwt>
<pdfrwt beam="1">  1        1 0.22241092E+00 0.11934902E+04</pdfrwt>
<pdfrwt beam="2">  1       -1 0.37896137E-01 0.11934902E+04</pdfrwt>
<totfact> 0.47488370E+01</totfact>
</mgrwt>
</event>
<event>
12    1  0.1472088E-007  0.2187184E+04  0.7818608E-02  0.8523781E-01
         -2   -1    0    0    0  501 -0.00000000000E+00  0.00000000000E+00  0.10185632915E+04  0.10185632915E+04  0.00000000000E+00 0.  1.
          2   -1    0    0  501    0  0.00000000000E+00 -0.00000000000E+00 -0.11741477511E+04  0.11741477511E+04  0.00000000000E+00 0. -1.
         23    2    1    2    0    0 -0.45421521745E+03  0.64389757788E+03 -0.52230442240E+03  0.94956550073E+03  0.89203004206E+02 0.  0.
        254    2    1    2    0    0  0.45421521745E+03 -0.64389757788E+03  0.36671996280E+03  0.12431455419E+04  0.88882605308E+03 0.  0.
        -24    2    4    4    0    0  0.44104815426E+03 -0.77813478606E+03  0.50852927857E+03  0.10321067178E+04  0.81394287901E+02 0.  0.
         24    2    4    4    0    0  0.13167063196E+02  0.13423720818E+03 -0.14180931578E+03  0.21103882409E+03  0.78958872955E+02 0.  0.
         11    1    3    3    0    0 -0.12021430185E+03  0.18970382251E+03 -0.19650196864E+03  0.29841588819E+03  0.00000000000E+00 0.  1.
        -11    1    3    3    0    0 -0.33400091560E+03  0.45419375537E+03 -0.32580245376E+03  0.65114961254E+03  0.00000000000E+00 0. -1.
          4    1    6    6  502    0 -0.75476622251E+01  0.32812725856E+01 -0.47811148109E+02  0.48514326114E+02  0.00000000000E+00 0. -1.
          1    1    5    5  503    0  0.13305605733E+03 -0.16894824312E+03  0.13610107312E+03  0.25450132681E+03  0.00000000000E+00 0. -1.
         -2    1    5    5    0  503  0.30799209693E+03 -0.60918654294E+03  0.37242820546E+03  0.77760539098E+03  0.00000000000E+00 0.  1.
         -3    1    6    6    0  502  0.20714725421E+02  0.13095593560E+03 -0.93998167667E+02  0.16252449797E+03  0.00000000000E+00 0.  1.
<mgrwt>
<rscale>  0 0.21871843E+04</rscale>
<asrwt>0</asrwt>
<pdfrwt beam="1">  1        2 0.18063812E+00 0.21871843E+04</pdfrwt>
<pdfrwt beam="2">  1       -2 0.15670204E+00 0.21871843E+04</pdfrwt>
<totfact> 0.47879581E+00</totfact>
</mgrwt>
</event>
<event>
12    1  0.1472088E-007  0.2662606E+04  0.7818608E-02  0.8347241E-01
          2   -1    0    0  501    0  0.00000000000E+00  0.00000000000E+00  0.16109398798E+04  0.16109398798E+04  0.00000000000E+00 0. -1.
         -2   -1    0    0    0  501 -0.00000000000E+00 -0.00000000000E+00 -0.11002070593E+04  0.11002070593E+04  0.00000000000E+00 0.  1.
         23    2    1    2    0    0 -0.50566595604E+02  0.99637887822E+03 -0.41274795443E+03  0.10833329731E+04  0.89003410785E+02 0.  0.
        254    2    1    2    0    0  0.50566595604E+02 -0.99637887822E+03  0.92348077486E+03  0.16278139660E+04  0.89534000073E+03 0.  0.
        -24    2    4    4    0    0 -0.76935749042E+02 -0.10051615440E+04  0.40618567373E+03  0.10897330850E+04  0.79136313517E+02 0.  0.
         24    2    4    4    0    0  0.12750234465E+03  0.87826657372E+01  0.51729510113E+03  0.53808088100E+03  0.74852052372E+02 0.  0.
         11    1    3    3    0    0 -0.83339243692E+01  0.85960661996E+01 -0.56829373365E-01  0.11972880985E+02  0.00000000000E+00 0. -1.
        -11    1    3    3    0    0 -0.42232671235E+02  0.98778281202E+03 -0.41269112506E+03  0.10713600921E+04  0.00000000000E+00 0.  1.
          4    1    6    6  502    0  0.59429499078E+02  0.38739995986E+02  0.20074714240E+03  0.21291328712E+03  0.00000000000E+00 0. -1.
          1    1    5    5  503    0 -0.29657428125E+02 -0.59219875473E+03  0.27706209685E+03  0.65447867319E+03  0.00000000000E+00 0. -1.
         -2    1    5    5    0  503 -0.47278320917E+02 -0.41296278922E+03  0.12912357688E+03  0.43525441183E+03  0.00000000000E+00 0.  1.
         -3    1    6    6    0  502  0.68072845568E+02 -0.29957330249E+02  0.31654795873E+03  0.32516759389E+03  0.00000000000E+00 0.  1.
<mgrwt>
<rscale>  0 0.26626058E+04</rscale>
<asrwt>0</asrwt>
<pdfrwt beam="1">  1        2 0.24783690E+00 0.26626058E+04</pdfrwt>
<pdfrwt beam="2">  1       -2 0.16926262E+00 0.26626058E+04</pdfrwt>
<totfact> 0.20877974E+00</totfact>
</mgrwt>
</event>
<event>
12    1  0.1518771E-007  0.2099970E+04  0.7818608E-02  0.8561257E-01
          2   -1    0    0  501    0  0.00000000000E+00  0.00000000000E+00  0.11526387166E+04  0.11526387166E+04  0.00000000000E+00 0. -1.
         -2   -1    0    0    0  501 -0.00000000000E+00 -0.00000000000E+00 -0.95647361455E+03  0.95647361455E+03  0.00000000000E+00 0.  1.
         23    2    1    2    0    0  0.41228774366E+02 -0.42371821774E+03 -0.66163229099E+03  0.79231476984E+03  0.93640088315E+02 0.  0.
        254    2    1    2    0    0 -0.41228774366E+02  0.42371821774E+03  0.85779739301E+03  0.13167975613E+04  0.90382659292E+03 0.  0.
        -24    2    4    4    0    0 -0.24805041221E+03 -0.99360635124E+02  0.65795747738E+03  0.71448305048E+03  0.78590359315E+02 0.  0.
         24    2    4    4    0    0  0.20682163784E+03  0.52307885286E+03  0.19983991563E+03  0.60231451081E+03  0.80374758831E+02 0.  0.
         13    1    3    3    0    0  0.29472877792E+02 -0.27485660790E+03 -0.50629259151E+03  0.57684226063E+03  0.00000000000E+00 0.  1.
        -13    1    3    3    0    0  0.11755896574E+02 -0.14886160984E+03 -0.15533969948E+03  0.21547250921E+03  0.00000000000E+00 0. -1.
          2    1    6    6  502    0  0.13025380719E+03  0.27720754563E+03  0.71186123164E+02  0.31444799534E+03  0.00000000000E+00 0. -1.
          1    1    5    5  503    0 -0.20772568876E+03 -0.57464729627E+02  0.56639768491E+03  0.60601855944E+03  0.00000000000E+00 0. -1.
         -2    1    5    5    0  503 -0.40324723453E+02 -0.41895905497E+02  0.91559792472E+02  0.10846449104E+03  0.00000000000E+00 0.  1.
         -3    1    6    6    0  502  0.76567830653E+02  0.24587130723E+03  0.12865379247E+03  0.28786651547E+03  0.00000000000E+00 0.  1.
<mgrwt>
<rscale>  0 0.20999700E+04</rscale>
<asrwt>0</asrwt>
<pdfrwt beam="1">  1        2 0.17732903E+00 0.20999700E+04</pdfrwt>
<pdfrwt beam="2">  1       -2 0.14714979E+00 0.20999700E+04</pdfrwt>
<totfact> 0.58763120E+00</totfact>
</mgrwt>
</event>
<event>
12    1  0.1472088E-007  0.1680692E+04  0.7818608E-02  0.8772453E-01
         -2   -1    0    0    0  501 -0.00000000000E+00  0.00000000000E+00  0.12466289524E+04  0.12466289524E+04  0.00000000000E+00 0.  1.
          2   -1    0    0  501    0  0.00000000000E+00 -0.00000000000E+00 -0.56647305075E+03  0.56647305075E+03  0.00000000000E+00 0. -1.
         23    2    1    2    0    0  0.46865983057E+03  0.37061593886E+03  0.23823719382E+03  0.64953714886E+03  0.90240436044E+02 0.  0.
        254    2    1    2    0    0 -0.46865983057E+03 -0.37061593886E+03  0.44191870782E+03  0.11635648543E+04  0.89531715881E+03 0.  0.
        -24    2    4    4    0    0 -0.53545589601E+03 -0.35027038809E+03  0.65794917221E+03  0.92122955480E+03  0.79777302971E+02 0.  0.
         24    2    4    4    0    0  0.66796065439E+02 -0.20345550764E+02 -0.21603046439E+03  0.24233529948E+03  0.84744203541E+02 0.  0.
         13    1    3    3    0    0  0.20094711029E+03  0.15480653440E+03  0.14936728746E+03  0.29437287713E+03  0.00000000000E+00 0. -1.
        -13    1    3    3    0    0  0.26771272029E+03  0.21580940446E+03  0.88869906358E+02  0.35516427173E+03  0.00000000000E+00 0.  1.
          2    1    6    6  502    0 -0.36228156689E+01 -0.13816083595E+02 -0.13083209342E+03  0.13160944353E+03  0.00000000000E+00 0. -1.
          3    1    5    5  503    0 -0.13811443391E+03 -0.53823234262E+02  0.13227674840E+03  0.19866976511E+03  0.00000000000E+00 0. -1.
         -4    1    5    5    0  503 -0.39734146210E+03 -0.29644715383E+03  0.52567242381E+03  0.72255978969E+03  0.00000000000E+00 0.  1.
         -3    1    6    6    0  502  0.70418881108E+02 -0.65294671684E+01 -0.85198370976E+02  0.11072585595E+03  0.00000000000E+00 0.  1.
<mgrwt>
<rscale>  0 0.16806924E+04</rscale>
<asrwt>0</asrwt>
<pdfrwt beam="1">  1        2 0.87149700E-01 0.16806924E+04</pdfrwt>
<pdfrwt beam="2">  1       -2 0.19178907E+00 0.16806924E+04</pdfrwt>
<totfact> 0.76299424E+00</totfact>
</mgrwt>
</event>
<event>
12    1  0.1472088E-007  0.1916039E+04  0.7818608E-02  0.8646913E-01
         -2   -1    0    0    0  501 -0.00000000000E+00  0.00000000000E+00  0.20058967943E+03  0.20058967943E+03  0.00000000000E+00 0.  1.
          2   -1    0    0  501    0  0.00000000000E+00 -0.00000000000E+00 -0.45755182663E+04  0.45755182663E+04  0.00000000000E+00 0. -1.
         23    2    1    2    0    0 -0.58380617465E+03  0.22631957547E+03 -0.71521508221E+03  0.95483812489E+03  0.90183319564E+02 0.  0.
        254    2    1    2    0    0  0.58380617465E+03 -0.22631957547E+03 -0.36597135046E+04  0.38212698208E+04  0.90363151101E+03 0.  0.
        -24    2    4    4    0    0  0.64123083031E+03 -0.49130916018E+03 -0.25518728129E+04  0.26778674860E+04  0.79735505949E+02 0.  0.
         24    2    4    4    0    0 -0.57424655663E+02  0.26498958471E+03 -0.11078406917E+04  0.11434023348E+04  0.80875397063E+02 0.  0.
         11    1    3    3    0    0 -0.21572979527E+03  0.13038604686E+03 -0.27470110891E+03  0.37282779540E+03  0.00000000000E+00 0. -1.
        -11    1    3    3    0    0 -0.36807637938E+03  0.95933528611E+02 -0.44051397329E+03  0.58201032949E+03  0.00000000000E+00 0.  1.
          2    1    6    6  502    0  0.19384353533E+02  0.36281214170E+02 -0.18804715305E+03  0.19249366595E+03  0.00000000000E+00 0. -1.
          3    1    5    5  503    0  0.90064674364E+02 -0.78624076570E+02 -0.47590174747E+03  0.49068917272E+03  0.00000000000E+00 0. -1.
         -4    1    5    5    0  503  0.55116615595E+03 -0.41268508361E+03 -0.20759710654E+04  0.21871783133E+04  0.00000000000E+00 0.  1.
         -1    1    6    6    0  502 -0.76809009196E+02  0.22870837054E+03 -0.91979353866E+03  0.95090866881E+03  0.00000000000E+00 0.  1.
<mgrwt>
<rscale>  0 0.19160394E+04</rscale>
<asrwt>0</asrwt>
<pdfrwt beam="1">  1        2 0.70392579E+00 0.19160394E+04</pdfrwt>
<pdfrwt beam="2">  1       -2 0.30859955E-01 0.19160394E+04</pdfrwt>
<totfact> 0.96081507E-01</totfact>
</mgrwt>
</event>
<event>
12    1  0.1472088E-007  0.1228030E+04  0.7818608E-02  0.9088669E-01
         -1   -1    0    0    0  501 -0.00000000000E+00  0.00000000000E+00  0.30865616876E+03  0.30865616876E+03  0.00000000000E+00 0.  1.
          1   -1    0    0  501    0  0.00000000000E+00 -0.00000000000E+00 -0.12214709948E+04  0.12214709948E+04  0.00000000000E+00 0. -1.
         23    2    1    2    0    0 -0.16797713338E+03  0.89484417760E+02  0.31628662438E+02  0.21336574668E+03  0.91108678012E+02 0.  0.
        254    2    1    2    0    0  0.16797713338E+03 -0.89484417760E+02 -0.94444348848E+03  0.13167614169E+04  0.89758751536E+03 0.  0.
        -24    2    4    4    0    0 -0.34262424959E+03 -0.11370914060E+03 -0.23235316814E+03  0.43670699856E+03  0.80024138757E+02 0.  0.
         24    2    4    4    0    0  0.51060138297E+03  0.24224722842E+02 -0.71209032034E+03  0.88005441833E+03  0.78246695850E+02 0.  0.
         13    1    3    3    0    0 -0.35986959171E+02  0.66245567054E+02 -0.11386319728E+01  0.75397830655E+02  0.00000000000E+00 0. -1.
        -13    1    3    3    0    0 -0.13199017421E+03  0.23238850706E+02  0.32767294411E+02  0.13796791602E+03  0.00000000000E+00 0.  1.
          4    1    6    6  502    0  0.95236907064E+02 -0.27641100742E+01 -0.86766787116E+02  0.12886498406E+03  0.00000000000E+00 0. -1.
          1    1    5    5  503    0 -0.16990303427E+02 -0.68703819661E+01  0.59697513538E+01  0.19274607393E+02  0.00000000000E+00 0. -1.
         -2    1    5    5    0  503 -0.32563394616E+03 -0.10683875864E+03 -0.23832291950E+03  0.41743239117E+03  0.00000000000E+00 0.  1.
         -3    1    6    6    0  502  0.41536447591E+03  0.26988832916E+02 -0.62532353323E+03  0.75118943427E+03  0.00000000000E+00 0.  1.
<mgrwt>
<rscale>  0 0.12280302E+04</rscale>
<asrwt>0</asrwt>
<pdfrwt beam="1">  1        1 0.18791861E+00 0.12280302E+04</pdfrwt>
<pdfrwt beam="2">  1       -1 0.47485564E-01 0.12280302E+04</pdfrwt>
<totfact> 0.45051459E+01</totfact>
</mgrwt>
</event>
<event>
12    1  0.1472088E-007  0.1970000E+04  0.7818608E-02  0.8620776E-01
          1   -1    0    0  501    0  0.00000000000E+00  0.00000000000E+00  0.53411482398E+03  0.53411482398E+03  0.00000000000E+00 0. -1.
         -1   -1    0    0    0  501 -0.00000000000E+00 -0.00000000000E+00 -0.18165109965E+04  0.18165109965E+04  0.00000000000E+00 0.  1.
         23    2    1    2    0    0 -0.59197734142E+03  0.42440675765E+03 -0.82670028416E+03  0.11056823843E+04  0.92422435116E+02 0.  0.
        254    2    1    2    0    0  0.59197734142E+03 -0.42440675765E+03 -0.45569588841E+03  0.12449434362E+04  0.90092571720E+03 0.  0.
        -24    2    4    4    0    0  0.43389452456E+03 -0.62532958176E+03 -0.56792021711E+03  0.95329485912E+03  0.83283678831E+02 0.  0.
         24    2    4    4    0    0  0.15808281686E+03  0.20092282411E+03  0.11222432870E+03  0.29164857707E+03  0.84287806488E+02 0.  0.
         11    1    3    3    0    0 -0.36556324805E+02  0.33331889651E+02 -0.96066910848E+02  0.10805661068E+03  0.00000000000E+00 0. -1.
        -11    1    3    3    0    0 -0.55542101661E+03  0.39107486800E+03 -0.73063337331E+03  0.99762577366E+03  0.00000000000E+00 0.  1.
          4    1    6    6  502    0  0.11302644491E+03  0.14747217379E+03  0.12019024161E+03  0.22128875586E+03  0.00000000000E+00 0. -1.
          3    1    5    5  503    0  0.27309624195E+03 -0.32301670133E+03 -0.32604130707E+03  0.53406392934E+03  0.00000000000E+00 0. -1.
         -4    1    5    5    0  503  0.16079828260E+03 -0.30231288043E+03 -0.24187891004E+03  0.41923092978E+03  0.00000000000E+00 0.  1.
         -3    1    6    6    0  502  0.45056371949E+02  0.53450650319E+02 -0.79659129102E+01  0.70359821214E+02  0.00000000000E+00 0.  1.
<mgrwt>
<rscale>  0 0.19700005E+04</rscale>
<asrwt>0</asrwt>
<pdfrwt beam="1">  1        1 0.82171512E-01 0.19700005E+04</pdfrwt>
<pdfrwt beam="2">  1       -1 0.27946323E+00 0.19700005E+04</pdfrwt>
<totfact> 0.16875067E+00</totfact>
</mgrwt>
</event>
<event>
12    1  0.1472088E-007  0.1643720E+04  0.7818608E-02  0.8794130E-01
         -1   -1    0    0    0  501 -0.00000000000E+00  0.00000000000E+00  0.41330995543E+03  0.41330995543E+03  0.00000000000E+00 0.  1.
          1   -1    0    0  501    0  0.00000000000E+00 -0.00000000000E+00 -0.16342552880E+04  0.16342552880E+04  0.00000000000E+00 0. -1.
         23    2    1    2    0    0  0.50461141465E+03  0.10386509402E+02 -0.99867196515E+02  0.52268054949E+03  0.92092021973E+02 0.  0.
        254    2    1    2    0    0 -0.50461141465E+03 -0.10386509402E+02 -0.11210781361E+04  0.15248846939E+04  0.90206240543E+03 0.  0.
        -24    2    4    4    0    0 -0.45221059581E+03 -0.32196655775E+02 -0.65687574045E+02  0.46500418507E+03  0.79893598871E+02 0.  0.
         24    2    4    4    0    0 -0.52400818831E+02  0.21810146373E+02 -0.10553905620E+04  0.10598805089E+04  0.79220744637E+02 0.  0.
         13    1    3    3    0    0  0.26858348890E+03  0.22534657370E+02 -0.96295606380E+01  0.26969914670E+03  0.00000000000E+00 0.  1.
        -13    1    3    3    0    0  0.23602792574E+03 -0.12148147967E+02 -0.90237635877E+02  0.25298140279E+03  0.00000000000E+00 0. -1.
          2    1    6    6  502    0 -0.57937729288E+02 -0.87953344545E-01 -0.96402130190E+03  0.96576076682E+03  0.00000000000E+00 0. -1.
          3    1    5    5  503    0 -0.40948232718E+03 -0.22373895860E+02 -0.35195885857E+02  0.41160067768E+03  0.00000000000E+00 0. -1.
         -4    1    5    5    0  503 -0.42728268638E+02 -0.98227599148E+01 -0.30491688188E+02  0.53403507391E+02  0.00000000000E+00 0.  1.
         -1    1    6    6    0  502  0.55369104568E+01  0.21898099717E+02 -0.91369260124E+02  0.94119742053E+02  0.00000000000E+00 0.  1.
<mgrwt>
<rscale>  0 0.16437201E+04</rscale>
<asrwt>0</asrwt>
<pdfrwt beam="1">  1        1 0.25142389E+00 0.16437201E+04</pdfrwt>
<pdfrwt beam="2">  1       -1 0.63586146E-01 0.16437201E+04</pdfrwt>
<totfact> 0.12676772E+01</totfact>
</mgrwt>
</event>
<event>
12    1  0.1472088E-007  0.3871149E+04  0.7818608E-02  0.8031057E-01
         -1   -1    0    0    0  501 -0.00000000000E+00  0.00000000000E+00  0.27738158156E+04  0.27738158156E+04  0.00000000000E+00 0.  1.
          1   -1    0    0  501    0  0.00000000000E+00 -0.00000000000E+00 -0.13506476858E+04  0.13506476858E+04  0.00000000000E+00 0. -1.
         23    2    1    2    0    0 -0.24281302162E+03 -0.16226733510E+04  0.15368105080E+04  0.22498638356E+04  0.89854181783E+02 0.  0.
        254    2    1    2    0    0  0.24281302162E+03  0.16226733510E+04 -0.11364237819E+03  0.18745996659E+04  0.89954563518E+03 0.  0.
        -24    2    4    4    0    0 -0.50024443943E+02  0.13392514654E+04  0.19563732157E+03  0.13566953467E+04  0.79065602293E+02 0.  0.
         24    2    4    4    0    0  0.29283746557E+03  0.28342188553E+03 -0.30927969976E+03  0.51790431918E+03  0.80555600127E+02 0.  0.
         13    1    3    3    0    0 -0.79902474816E+01 -0.24314097766E+02  0.11537854040E+02  0.28073857605E+02  0.00000000000E+00 0. -1.
        -13    1    3    3    0    0 -0.23482277414E+03 -0.15983592532E+04  0.15252726539E+04  0.22217899780E+04  0.00000000000E+00 0.  1.
          2    1    6    6  502    0  0.14017014472E+02  0.47961074541E+02 -0.45873899694E+02  0.67831821728E+02  0.00000000000E+00 0. -1.
          3    1    5    5  503    0 -0.12156309712E+02  0.31664051418E+03  0.12464886296E+02  0.31711884913E+03  0.00000000000E+00 0. -1.
         -2    1    5    5    0  503 -0.37868134231E+02  0.10226109512E+04  0.18317243527E+03  0.10395764975E+04  0.00000000000E+00 0.  1.
         -1    1    6    6    0  502  0.27882045109E+03  0.23546081098E+03 -0.26340580006E+03  0.45007249745E+03  0.00000000000E+00 0.  1.
<mgrwt>
<rscale>  0 0.38711486E+04</rscale>
<asrwt>0</asrwt>
<pdfrwt beam="1">  1        1 0.20779195E+00 0.38711486E+04</pdfrwt>
<pdfrwt beam="2">  1       -1 0.42674089E+00 0.38711486E+04</pdfrwt>
<totfact> 0.30823355E-02</totfact>
</mgrwt>
</event>
<event>
12    1  0.1472088E-007  0.2453057E+04  0.7818608E-02  0.8419903E-01
          2   -1    0    0  501    0  0.00000000000E+00  0.00000000000E+00  0.10744663465E+04  0.10744663465E+04  0.00000000000E+00 0. -1.
         -2   -1    0    0    0  501 -0.00000000000E+00 -0.00000000000E+00 -0.14001106233E+04  0.14001106233E+04  0.00000000000E+00 0.  1.
         23    2    1    2    0    0  0.46500488735E+03  0.39362918763E+03  0.73164517837E+03  0.95763723257E+03  0.10291219348E+03 0.  0.
        254    2    1    2    0    0 -0.46500488735E+03 -0.39362918763E+03 -0.10572894551E+04  0.15169397372E+04  0.90115020495E+03 0.  0.
        -24    2    4    4    0    0 -0.48294316325E+03 -0.41182533428E+03 -0.11947527699E+04  0.13550969134E+04  0.77583882057E+02 0.  0.
         24    2    4    4    0    0  0.17938275900E+02  0.18196146652E+02  0.13746331480E+03  0.16184282378E+03  0.81511074096E+02 0.  0.
         13    1    3    3    0    0  0.37611804425E+03  0.28421219113E+03  0.50600182098E+03  0.69157732441E+03  0.00000000000E+00 0. -1.
        -13    1    3    3    0    0  0.88886843093E+02  0.10941699649E+03  0.22564335739E+03  0.26605990816E+03  0.00000000000E+00 0.  1.
          4    1    6    6  502    0 -0.19447677003E+02 -0.22034371067E+02  0.60881668092E+02  0.67604017328E+02  0.00000000000E+00 0. -1.
          1    1    5    5  503    0 -0.40415657176E+03 -0.35234713235E+03 -0.10618306516E+04  0.11895273721E+04  0.00000000000E+00 0. -1.
         -2    1    5    5    0  503 -0.78786591490E+02 -0.59478201924E+02 -0.13292211825E+03  0.16556954135E+03  0.00000000000E+00 0.  1.
         -3    1    6    6    0  502  0.37385952903E+02  0.40230517718E+02  0.76581646704E+02  0.94238806456E+02  0.00000000000E+00 0.  1.
<mgrwt>
<rscale>  0 0.24530567E+04</rscale>
<asrwt>0</asrwt>
<pdfrwt beam="1">  1        2 0.16530251E+00 0.24530567E+04</pdfrwt>
<pdfrwt beam="2">  1       -2 0.21540163E+00 0.24530567E+04</pdfrwt>
<totfact> 0.21386031E+00</totfact>
</mgrwt>
</event>
<event>
12    1  0.1472088E-007  0.4352849E+04  0.7818608E-02  0.7936917E-01
          1   -1    0    0  501    0  0.00000000000E+00  0.00000000000E+00  0.20211122395E+04  0.20211122395E+04  0.00000000000E+00 0. -1.
         -1   -1    0    0    0  501 -0.00000000000E+00 -0.00000000000E+00 -0.23436721601E+04  0.23436721601E+04  0.00000000000E+00 0.  1.
         23    2    1    2    0    0  0.10230406867E+04 -0.95069901700E+03 -0.17085141988E+04  0.22084699568E+04  0.88757620156E+02 0.  0.
        254    2    1    2    0    0 -0.10230406867E+04  0.95069901700E+03  0.13859542782E+04  0.21563144428E+04  0.88225951263E+03 0.  0.
        -24    2    4    4    0    0 -0.91143452671E+02  0.65070001090E+03  0.45639068030E+03  0.80402579857E+03  0.80295694481E+02 0.  0.
         24    2    4    4    0    0 -0.93189723401E+03  0.29999900610E+03  0.92956359787E+03  0.13522886443E+04  0.78512651677E+02 0.  0.
         13    1    3    3    0    0  0.85054813741E+03 -0.82859898771E+03 -0.14261530595E+04  0.18557804195E+04  0.00000000000E+00 0.  1.
        -13    1    3    3    0    0  0.17249254927E+03 -0.12210002929E+03 -0.28236113933E+03  0.35268953729E+03  0.00000000000E+00 0. -1.
          2    1    6    6  502    0 -0.49858117417E+03  0.15724516249E+03  0.54993983806E+03  0.75877734142E+03  0.00000000000E+00 0. -1.
          3    1    5    5  503    0 -0.70892975286E+02  0.31968218235E+03  0.18945973822E+03  0.37830874172E+03  0.00000000000E+00 0. -1.
         -4    1    5    5    0  503 -0.20250477385E+02  0.33101782855E+03  0.26693094208E+03  0.42571705685E+03  0.00000000000E+00 0.  1.
         -1    1    6    6    0  502 -0.43331605984E+03  0.14275384361E+03  0.37962375981E+03  0.59351130284E+03  0.00000000000E+00 0.  1.
<mgrwt>
<rscale>  0 0.43528494E+04</rscale>
<asrwt>0</asrwt>
<pdfrwt beam="1">  1        1 0.31094034E+00 0.43528494E+04</pdfrwt>
<pdfrwt beam="2">  1       -1 0.36056495E+00 0.43528494E+04</pdfrwt>
<totfact> 0.28970252E-02</totfact>
</mgrwt>
</event>
<event>
12    1  0.1472088E-007  0.1826770E+04  0.7818608E-02  0.8692192E-01
          2   -1    0    0  501    0  0.00000000000E+00  0.00000000000E+00  0.63090425863E+03  0.63090425863E+03  0.00000000000E+00 0.  1.
         -2   -1    0    0    0  501 -0.00000000000E+00 -0.00000000000E+00 -0.13223430215E+04  0.13223430215E+04  0.00000000000E+00 0. -1.
         23    2    1    2    0    0  0.24543538044E+03  0.32098406712E+03  0.32821711171E+03  0.52940866252E+03  0.96321141098E+02 0.  0.
        254    2    1    2    0    0 -0.24543538044E+03 -0.32098406712E+03 -0.10196558746E+04  0.14238386176E+04  0.90793667679E+03 0.  0.
        -24    2    4    4    0    0 -0.21649376414E+03  0.13390581487E+03 -0.90935681445E+03  0.94764603577E+03  0.79390654135E+02 0.  0.
         24    2    4    4    0    0 -0.28941616300E+02 -0.45488988200E+03 -0.11029906011E+03  0.47619258181E+03  0.82650289844E+02 0.  0.
         13    1    3    3    0    0  0.80446504124E+02  0.72475544729E+02  0.13887479871E+03  0.17609813834E+03  0.00000000000E+00 0. -1.
        -13    1    3    3    0    0  0.16498887631E+03  0.24850852240E+03  0.18934231299E+03  0.35331052418E+03  0.00000000000E+00 0.  1.
          2    1    6    6  502    0 -0.35460146504E+01 -0.14460001385E+03 -0.74823447646E+02  0.16285050367E+03  0.00000000000E+00 0. -1.
          3    1    5    5  503    0 -0.82628459848E+02  0.73641302155E+02 -0.27317998033E+03  0.29475041206E+03  0.00000000000E+00 0. -1.
         -2    1    5    5    0  503 -0.13386530429E+03  0.60264512715E+02 -0.63617683412E+03  0.65289562370E+03  0.00000000000E+00 0.  1.
         -1    1    6    6    0  502 -0.25395601649E+02 -0.31028986814E+03 -0.35475612463E+02  0.31334207814E+03  0.00000000000E+00 0.  1.
<mgrwt>
<rscale>  0 0.18267697E+04</rscale>
<asrwt>0</asrwt>
<pdfrwt beam="1">  1        2 0.97062193E-01 0.18267697E+04</pdfrwt>
<pdfrwt beam="2">  1       -2 0.20343739E+00 0.18267697E+04</pdfrwt>
<totfact> 0.55451870E+00</totfact>
</mgrwt>
</event>
<event>
12    1  0.1472088E-007  0.1322284E+04  0.7818608E-02  0.9012078E-01
          2   -1    0    0  501    0  0.00000000000E+00  0.00000000000E+00  0.38137270161E+03  0.38137270161E+03  0.00000000000E+00 0. -1.
         -2   -1    0    0    0  501 -0.00000000000E+00 -0.00000000000E+00 -0.11461450200E+04  0.11461450200E+04  0.00000000000E+00 0.  1.
         23    2    1    2    0    0 -0.21029805106E+03 -0.24217872754E+03 -0.36341898696E+03  0.49306078193E+03  0.90331435548E+02 0.  0.
        254    2    1    2    0    0  0.21029805106E+03  0.24217872754E+03 -0.40135333144E+03  0.10344569397E+04  0.89785347191E+03 0.  0.
        -24    2    4    4    0    0  0.34040781294E+03 -0.20823196294E+03 -0.38312464341E+03  0.55857543679E+03  0.77356297046E+02 0.  0.
         24    2    4    4    0    0 -0.13010976187E+03  0.45041069048E+03 -0.18228688023E+02  0.47588150288E+03  0.79577506173E+02 0.  0.
         13    1    3    3    0    0  0.57932804983E+01  0.28539955239E+01 -0.83564843780E+01  0.10561165681E+02  0.00000000000E+00 0. -1.
        -13    1    3    3    0    0 -0.21609133156E+03 -0.24503272307E+03 -0.35506250258E+03  0.48249961625E+03  0.00000000000E+00 0.  1.
          4    1    6    6  502    0  0.28138922024E+01  0.81936958964E+02  0.12626885380E+02  0.82951922630E+02  0.00000000000E+00 0. -1.
          3    1    5    5  503    0  0.15252194533E+03 -0.13578200058E+03 -0.21146513694E+03  0.29396802484E+03  0.00000000000E+00 0. -1.
         -4    1    5    5    0  503  0.18788586761E+03 -0.72449962352E+02 -0.17165950648E+03  0.26460741195E+03  0.00000000000E+00 0.  1.
         -3    1    6    6    0  502 -0.13292365408E+03  0.36847373151E+03 -0.30855573403E+02  0.39292958025E+03  0.00000000000E+00 0.  1.
<mgrwt>
<rscale>  0 0.13222835E+04</rscale>
<asrwt>0</asrwt>
<pdfrwt beam="1">  1        2 0.58672722E-01 0.13222835E+04</pdfrwt>
<pdfrwt beam="2">  1       -2 0.17633001E+00 0.13222835E+04</pdfrwt>
<totfact> 0.15773822E+01</totfact>
</mgrwt>
</event>
<event>
12    1  0.1472088E-007  0.3208721E+04  0.7818608E-02  0.8186518E-01
          1   -1    0    0  501    0  0.00000000000E+00  0.00000000000E+00  0.33173408885E+04  0.33173408885E+04  0.00000000000E+00 0. -1.
         -1   -1    0    0    0  501 -0.00000000000E+00 -0.00000000000E+00 -0.77591422142E+03  0.77591422142E+03  0.00000000000E+00 0.  1.
         23    2    1    2    0    0 -0.11614695559E+04 -0.46494963978E+03  0.16928593247E+03  0.12655292605E+04  0.87845804738E+02 0.  0.
        254    2    1    2    0    0  0.11614695559E+04  0.46494963978E+03  0.23721407346E+04  0.28277258494E+04  0.89654454312E+03 0.  0.
        -24    2    4    4    0    0  0.11587802721E+04  0.57296892617E+03  0.23611998777E+04  0.26930659615E+04  0.79210486917E+02 0.  0.
         24    2    4    4    0    0  0.26892838519E+01 -0.10801928639E+03  0.10940856896E+02  0.13465988790E+03  0.79612716201E+02 0.  0.
         13    1    3    3    0    0 -0.19798277514E+03 -0.93692383344E+02  0.60743956717E+02  0.22729995650E+03  0.00000000000E+00 0. -1.
        -13    1    3    3    0    0 -0.96348678077E+03 -0.37125725644E+03  0.10854197575E+03  0.10382293040E+04  0.00000000000E+00 0.  1.
          2    1    6    6  502    0  0.20446582927E+02 -0.84329969152E+02 -0.22852643917E+02  0.89732100079E+02  0.00000000000E+00 0. -1.
          1    1    5    5  503    0  0.76825366238E+03  0.39614859046E+03  0.15057606182E+04  0.17362207333E+04  0.00000000000E+00 0. -1.
         -2    1    5    5    0  503  0.39052660968E+03  0.17682033571E+03  0.85543925952E+03  0.95684522819E+03  0.00000000000E+00 0.  1.
         -1    1    6    6    0  502 -0.17757299076E+02 -0.23689317237E+02  0.33793500813E+02  0.44927787825E+02  0.00000000000E+00 0.  1.
<mgrwt>
<rscale>  0 0.32087206E+04</rscale>
<asrwt>0</asrwt>
<pdfrwt beam="1">  1        1 0.51036013E+00 0.32087206E+04</pdfrwt>
<pdfrwt beam="2">  1       -1 0.11937142E+00 0.32087206E+04</pdfrwt>
<totfact> 0.18140735E-01</totfact>
</mgrwt>
</event>
<event>
12    1  0.1472088E-007  0.1809291E+04  0.7818608E-02  0.8701374E-01
          2   -1    0    0  501    0  0.00000000000E+00  0.00000000000E+00  0.33197370103E+04  0.33197370103E+04  0.00000000000E+00 0. -1.
         -2   -1    0    0    0  501 -0.00000000000E+00 -0.00000000000E+00 -0.24652052690E+03  0.24652052690E+03  0.00000000000E+00 0.  1.
         23    2    1    2    0    0  0.63786964112E+03  0.42762544940E+02  0.73515550570E+03  0.98076758117E+03  0.11289427092E+03 0.  0.
        254    2    1    2    0    0 -0.63786964112E+03 -0.42762544940E+02  0.23380609777E+04  0.25854899560E+04  0.89973488480E+03 0.  0.
        -24    2    4    4    0    0 -0.76654771323E+03 -0.27569261651E+03  0.18717015220E+04  0.20427064182E+04  0.76033599298E+02 0.  0.
         24    2    4    4    0    0  0.12867807212E+03  0.23293007157E+03  0.46635945565E+03  0.54278353773E+03  0.79425200460E+02 0.  0.
         13    1    3    3    0    0  0.31943721475E+02 -0.23385900790E+02  0.48549937002E+02  0.62645016404E+02  0.00000000000E+00 0. -1.
        -13    1    3    3    0    0  0.60592591964E+03  0.66148445730E+02  0.68660556869E+03  0.91812256476E+03  0.00000000000E+00 0.  1.
          4    1    6    6  502    0  0.12238548059E+03  0.14746537146E+03  0.30892240127E+03  0.36353444355E+03  0.00000000000E+00 0. -1.
          3    1    5    5  503    0  0.10398992811E+01  0.12019765114E+01  0.12984104141E+01  0.20523176295E+01  0.00000000000E+00 0. -1.
         -4    1    5    5    0  503 -0.76758761252E+03 -0.27689459302E+03  0.18704031116E+04  0.20406541006E+04  0.00000000000E+00 0.  1.
         -3    1    6    6    0  502  0.62925915335E+01  0.85464700105E+02  0.15743705439E+03  0.17924909419E+03  0.00000000000E+00 0.  1.
<mgrwt>
<rscale>  0 0.18092908E+04</rscale>
<asrwt>0</asrwt>
<pdfrwt beam="1">  1        2 0.51072874E+00 0.18092908E+04</pdfrwt>
<pdfrwt beam="2">  1       -2 0.37926237E-01 0.18092908E+04</pdfrwt>
<totfact> 0.67307823E+00</totfact>
</mgrwt>
</event>
<event>
12    1  0.1472088E-007  0.1254103E+04  0.7818608E-02  0.9066776E-01
         -2   -1    0    0    0  501 -0.00000000000E+00  0.00000000000E+00  0.31735044207E+03  0.31735044207E+03  0.00000000000E+00 0.  1.
          2   -1    0    0  501    0  0.00000000000E+00 -0.00000000000E+00 -0.12389877383E+04  0.12389877383E+04  0.00000000000E+00 0. -1.
         23    2    1    2    0    0 -0.19416555294E+03 -0.51076430355E+02 -0.59879493674E+03  0.63878767165E+03  0.95839707299E+02 0.  0.
        254    2    1    2    0    0  0.19416555294E+03  0.51076430355E+02 -0.32284235947E+03  0.91755050871E+03  0.83508244100E+03 0.  0.
        -24    2    4    4    0    0  0.40322719564E+03 -0.23039977698E+03 -0.29665688048E+03  0.55696516681E+03  0.80800147073E+02 0.  0.
         24    2    4    4    0    0 -0.20906164270E+03  0.28147620734E+03 -0.26185478998E+02  0.36058534190E+03  0.80003023281E+02 0.  0.
         11    1    3    3    0    0 -0.16802876150E+03 -0.28079531779E+02 -0.36970309261E+03  0.40706572133E+03  0.00000000000E+00 0.  1.
        -11    1    3    3    0    0 -0.26136791434E+02 -0.22996898576E+02 -0.22909184413E+03  0.23172195031E+03  0.00000000000E+00 0. -1.
          2    1    6    6  502    0 -0.17682066556E+03  0.24924212364E+03  0.45060501307E+01  0.30562638704E+03  0.00000000000E+00 0. -1.
          1    1    5    5  503    0  0.36597516234E+03 -0.21053326173E+03 -0.23792646672E+03  0.48463499390E+03  0.00000000000E+00 0. -1.
         -4    1    5    5    0  503  0.37252033298E+02 -0.19866515256E+02 -0.58730413758E+02  0.72330172912E+02  0.00000000000E+00 0.  1.
         -1    1    6    6    0  502 -0.32240977145E+02  0.32234083694E+02 -0.30691529129E+02  0.54958954858E+02  0.00000000000E+00 0.  1.
<mgrwt>
<rscale>  0 0.12541026E+04</rscale>
<asrwt>0</asrwt>
<pdfrwt beam="1">  1        2 0.19061350E+00 0.12541026E+04</pdfrwt>
<pdfrwt beam="2">  1       -2 0.48823145E-01 0.12541026E+04</pdfrwt>
<totfact> 0.70108891E+01</totfact>
</mgrwt>
</event>
<event>
12    1  0.1472088E-007  0.1823232E+04  0.7818608E-02  0.8694042E-01
         -2   -1    0    0    0  501 -0.00000000000E+00  0.00000000000E+00  0.70652969209E+03  0.70652969209E+03  0.00000000000E+00 0. -1.
          2   -1    0    0  501    0  0.00000000000E+00 -0.00000000000E+00 -0.11762332902E+04  0.11762332902E+04  0.00000000000E+00 0.  1.
         23    2    1    2    0    0 -0.12910927121E+03  0.11113047101E+03 -0.88739085007E+03  0.90841728593E+03  0.93489352755E+02 0.  0.
        254    2    1    2    0    0  0.12910927121E+03 -0.11113047101E+03  0.41768725194E+03  0.97434569638E+03  0.86363632978E+03 0.  0.
        -24    2    4    4    0    0 -0.16601517852E+03  0.30623546376E+03  0.22591839720E+03  0.42286978119E+03  0.80240456696E+02 0.  0.
         24    2    4    4    0    0  0.29512444973E+03 -0.41736593477E+03  0.19176885474E+03  0.55147591519E+03  0.77830759021E+02 0.  0.
         11    1    3    3    0    0 -0.33956445987E+00 -0.13692992189E+02 -0.95200711327E+02  0.96181020873E+02  0.00000000000E+00 0. -1.
        -11    1    3    3    0    0 -0.12876970675E+03  0.12482346320E+03 -0.79219013875E+03  0.81223626505E+03  0.00000000000E+00 0.  1.
          2    1    6    6  502    0  0.14713962351E+03 -0.26522810954E+03  0.13346427372E+03  0.33137400510E+03  0.00000000000E+00 0. -1.
          3    1    5    5  503    0 -0.84238418616E+02  0.21346950669E+03  0.11473408142E+03  0.25657211637E+03  0.00000000000E+00 0. -1.
         -4    1    5    5    0  503 -0.81776759907E+02  0.92765957065E+02  0.11118431578E+03  0.16629766482E+03  0.00000000000E+00 0.  1.
         -1    1    6    6    0  502  0.14798482622E+03 -0.15213782523E+03  0.58304581029E+02  0.22010191009E+03  0.00000000000E+00 0.  1.
<mgrwt>
<rscale>  0 0.18232320E+04</rscale>
<asrwt>0</asrwt>
<pdfrwt beam="1">  1        2 0.18095897E+00 0.18232320E+04</pdfrwt>
<pdfrwt beam="2">  1       -2 0.10869688E+00 0.18232320E+04</pdfrwt>
<totfact> 0.12475470E+01</totfact>
</mgrwt>
</event>
<event>
12    1  0.1472088E-007  0.2148905E+04  0.7818608E-02  0.8540001E-01
          2   -1    0    0  501    0  0.00000000000E+00  0.00000000000E+00  0.26357805619E+04  0.26357805619E+04  0.00000000000E+00 0.  1.
         -2   -1    0    0    0  501 -0.00000000000E+00 -0.00000000000E+00 -0.43799095098E+03  0.43799095098E+03  0.00000000000E+00 0. -1.
         23    2    1    2    0    0 -0.56085484721E+03 -0.67742872379E+03  0.78275263044E+03  0.11806229002E+04  0.87754866785E+02 0.  0.
        254    2    1    2    0    0  0.56085484721E+03  0.67742872379E+03  0.14150369805E+04  0.18931486127E+04  0.89900732921E+03 0.  0.
        -24    2    4    4    0    0  0.49074506428E+03  0.32779990330E+03  0.20546942845E+03  0.62979813129E+03  0.78386895761E+02 0.  0.
         24    2    4    4    0    0  0.70109782940E+02  0.34962882048E+03  0.12095675520E+04  0.12633504814E+04  0.76453136184E+02 0.  0.
         13    1    3    3    0    0 -0.64078801445E+02 -0.93405336428E+02  0.66270136447E+02  0.13123406819E+03  0.00000000000E+00 0. -1.
        -13    1    3    3    0    0 -0.49677604577E+03 -0.58402338736E+03  0.71648249400E+03  0.10493888321E+04  0.00000000000E+00 0.  1.
          2    1    6    6  502    0  0.25463245589E+02  0.18956052063E+03  0.52051292091E+03  0.55454059247E+03  0.00000000000E+00 0. -1.
          3    1    5    5  503    0  0.45118302439E+03  0.27238218339E+03  0.18736262476E+03  0.55934151328E+03  0.00000000000E+00 0. -1.
         -4    1    5    5    0  503  0.39562039888E+02  0.55417719916E+02  0.18106803685E+02  0.70456618004E+02  0.00000000000E+00 0.  1.
         -1    1    6    6    0  502  0.44646537350E+02  0.16006829985E+03  0.68905463113E+03  0.70880988890E+03  0.00000000000E+00 0.  1.
<mgrwt>
<rscale>  0 0.21489049E+04</rscale>
<asrwt>0</asrwt>
<pdfrwt beam="1">  1        2 0.40550469E+00 0.21489049E+04</pdfrwt>
<pdfrwt beam="2">  1       -2 0.67383225E-01 0.21489049E+04</pdfrwt>
<totfact> 0.53768484E+00</totfact>
</mgrwt>
</event>
<event>
12    1  0.1472088E-007  0.1962255E+04  0.7818608E-02  0.8624474E-01
         -1   -1    0    0    0  501 -0.00000000000E+00  0.00000000000E+00  0.56856267199E+03  0.56856267199E+03  0.00000000000E+00 0.  1.
          1   -1    0    0  501    0  0.00000000000E+00 -0.00000000000E+00 -0.16930615900E+04  0.16930615900E+04  0.00000000000E+00 0. -1.
         23    2    1    2    0    0  0.12470784199E+03 -0.55032198327E+03 -0.10874424928E+04  0.12284561617E+04  0.90371649156E+02 0.  0.
        254    2    1    2    0    0 -0.12470784199E+03  0.55032198327E+03 -0.37056425281E+02  0.10331681003E+04  0.86467150628E+03 0.  0.
        -24    2    4    4    0    0 -0.45732980013E+03  0.24098626006E+03  0.13449846013E+03  0.54110452378E+03  0.86483213695E+02 0.  0.
         24    2    4    4    0    0  0.33262195814E+03  0.30933572321E+03 -0.17155488542E+03  0.49206357656E+03  0.79809322624E+02 0.  0.
         11    1    3    3    0    0  0.10743952980E+03 -0.48955094337E+03 -0.10172473692E+04  0.11340174552E+04  0.00000000000E+00 0. -1.
        -11    1    3    3    0    0  0.17268312191E+02 -0.60771039902E+02 -0.70195123605E+02  0.94438706443E+02  0.00000000000E+00 0.  1.
          4    1    6    6  502    0  0.14159053298E+03  0.18126889436E+03 -0.68132010250E+02  0.23989218810E+03  0.00000000000E+00 0. -1.
          3    1    5    5  503    0 -0.20342991872E+03  0.65117966676E+02  0.76247651952E+02  0.22679899877E+03  0.00000000000E+00 0. -1.
         -4    1    5    5    0  503 -0.25389988141E+03  0.17586829339E+03  0.58250808182E+02  0.31430552501E+03  0.00000000000E+00 0.  1.
         -1    1    6    6    0  502  0.19103142515E+03  0.12806682885E+03 -0.10342287517E+03  0.25217138846E+03  0.00000000000E+00 0.  1.
<mgrwt>
<rscale>  0 0.19622555E+04</rscale>
<asrwt>0</asrwt>
<pdfrwt beam="1">  1        1 0.26047101E+00 0.19622555E+04</pdfrwt>
<pdfrwt beam="2">  1       -1 0.87471182E-01 0.19622555E+04</pdfrwt>
<totfact> 0.57666512E+00</totfact>
</mgrwt>
</event>
<event>
12    1  0.1472088E-007  0.1936410E+04  0.7818608E-02  0.8636942E-01
          2   -1    0    0  501    0  0.00000000000E+00  0.00000000000E+00  0.95325209849E+03  0.95325209849E+03  0.00000000000E+00 0. -1.
         -2   -1    0    0    0  501 -0.00000000000E+00 -0.00000000000E+00 -0.98339283156E+03  0.98339283156E+03  0.00000000000E+00 0.  1.
         23    2    1    2    0    0 -0.26255644273E+03 -0.67484815038E+03 -0.22796703774E+03  0.76454273042E+03  0.90557742030E+02 0.  0.
        254    2    1    2    0    0  0.26255644273E+03  0.67484815038E+03  0.19782630466E+03  0.11721021996E+04  0.90018465210E+03 0.  0.
        -24    2    4    4    0    0 -0.14425997421E+03  0.25519275827E+03 -0.27989189218E+03  0.41297664811E+03  0.79220934990E+02 0.  0.
         24    2    4    4    0    0  0.40681641694E+03  0.41965539211E+03  0.47771819684E+03  0.75912555152E+03  0.80291233368E+02 0.  0.
         11    1    3    3    0    0 -0.22422428737E+03 -0.46503296692E+03 -0.15296600630E+03  0.53845221743E+03  0.00000000000E+00 0.  1.
        -11    1    3    3    0    0 -0.38332155360E+02 -0.20981518346E+03 -0.75001031443E+02  0.22609051299E+03  0.00000000000E+00 0. -1.
          2    1    6    6  502    0  0.38177164247E+03  0.39932522914E+03  0.42377264354E+03  0.69627112466E+03  0.00000000000E+00 0. -1.
          3    1    5    5  503    0 -0.96714705707E+02  0.20582382515E+03 -0.17191342602E+03  0.28508140477E+03  0.00000000000E+00 0. -1.
         -4    1    5    5    0  503 -0.47545268501E+02  0.49368933126E+02 -0.10797846616E+03  0.12789524334E+03  0.00000000000E+00 0.  1.
         -1    1    6    6    0  502  0.25044774471E+02  0.20330162968E+02  0.53945553303E+02  0.62854426859E+02  0.00000000000E+00 0.  1.
<mgrwt>
<rscale>  0 0.19364104E+04</rscale>
<asrwt>0</asrwt>
<pdfrwt beam="1">  1        2 0.14665417E+00 0.19364104E+04</pdfrwt>
<pdfrwt beam="2">  1       -2 0.15129120E+00 0.19364104E+04</pdfrwt>
<totfact> 0.73874941E+00</totfact>
</mgrwt>
</event>
<event>
12    1  0.1472088E-007  0.1565406E+04  0.7818608E-02  0.8842087E-01
         -1   -1    0    0    0  501 -0.00000000000E+00  0.00000000000E+00  0.23917677492E+03  0.23917677492E+03  0.00000000000E+00 0.  1.
          1   -1    0    0  501    0  0.00000000000E+00 -0.00000000000E+00 -0.25613845424E+04  0.25613845424E+04  0.00000000000E+00 0. -1.
         23    2    1    2    0    0 -0.24487595236E+02  0.38552760472E+02 -0.17162295641E+04  0.17191967064E+04  0.90041329024E+02 0.  0.
        254    2    1    2    0    0  0.24487595236E+02 -0.38552760472E+02 -0.60597820337E+03  0.10813646109E+04  0.89445731096E+03 0.  0.
        -24    2    4    4    0    0  0.38485186273E+03  0.19329970960E+03 -0.18495961516E+03  0.47541892005E+03  0.79607514262E+02 0.  0.
         24    2    4    4    0    0 -0.36036426749E+03 -0.23185247007E+03 -0.42101858821E+03  0.60594569086E+03  0.79344536614E+02 0.  0.
         11    1    3    3    0    0 -0.31185955086E+02  0.11365129303E+02 -0.20204713453E+03  0.20475540171E+03  0.00000000000E+00 0.  1.
        -11    1    3    3    0    0  0.66983598500E+01  0.27187631170E+02 -0.15141824296E+04  0.15144413047E+04  0.00000000000E+00 0. -1.
          4    1    6    6  502    0 -0.26713576304E+03 -0.15647541611E+03 -0.34707332931E+03  0.46508705385E+03  0.00000000000E+00 0. -1.
          1    1    5    5  503    0  0.35002894897E+03  0.16160767248E+03 -0.13957711196E+03  0.41002326167E+03  0.00000000000E+00 0. -1.
         -2    1    5    5    0  503  0.34822913757E+02  0.31692037121E+02 -0.45382503201E+02  0.65395658389E+02  0.00000000000E+00 0.  1.
         -3    1    6    6    0  502 -0.93228504456E+02 -0.75377053961E+02 -0.73945258901E+02  0.14085863701E+03  0.00000000000E+00 0.  1.
<mgrwt>
<rscale>  0 0.15654056E+04</rscale>
<asrwt>0</asrwt>
<pdfrwt beam="1">  1        1 0.39405917E+00 0.15654056E+04</pdfrwt>
<pdfrwt beam="2">  1       -1 0.36796426E-01 0.15654056E+04</pdfrwt>
<totfact> 0.83983669E+00</totfact>
</mgrwt>
</event>
<event>
12    1  0.1472088E-007  0.2699250E+04  0.7818608E-02  0.8335248E-01
         -2   -1    0    0    0  501 -0.00000000000E+00  0.00000000000E+00  0.49289080603E+03  0.49289080603E+03  0.00000000000E+00 0.  1.
          2   -1    0    0  501    0  0.00000000000E+00 -0.00000000000E+00 -0.36955190760E+04  0.36955190760E+04  0.00000000000E+00 0. -1.
         23    2    1    2    0    0  0.56178705305E+03 -0.70552165841E+03 -0.27016780730E+04  0.28497292391E+04  0.92340797660E+02 0.  0.
        254    2    1    2    0    0 -0.56178705305E+03  0.70552165841E+03 -0.50095019697E+03  0.13386806429E+04  0.85308221193E+03 0.  0.
        -24    2    4    4    0    0 -0.48242922058E+03  0.26409646527E+02 -0.39432000220E+01  0.48961658738E+03  0.79204996790E+02 0.  0.
         24    2    4    4    0    0 -0.79357832475E+02  0.67911201188E+03 -0.49700699695E+03  0.84906405549E+03  0.80018904422E+02 0.  0.
         11    1    3    3    0    0  0.37306708090E+03 -0.42454688182E+03 -0.17985683354E+04  0.18852764145E+04  0.00000000000E+00 0. -1.
        -11    1    3    3    0    0  0.18871997216E+03 -0.28097477658E+03 -0.90310973757E+03  0.96445282469E+03  0.00000000000E+00 0.  1.
          4    1    6    6  502    0 -0.82201522369E+02  0.56618716787E+03 -0.44446344637E+03  0.72448102424E+03  0.00000000000E+00 0. -1.
          3    1    5    5  503    0 -0.43326928472E+03  0.36513107328E+02 -0.24240054378E+02  0.43548026399E+03  0.00000000000E+00 0. -1.
         -4    1    5    5    0  503 -0.49159935856E+02 -0.10103460801E+02  0.20296854356E+02  0.54136323391E+02  0.00000000000E+00 0.  1.
         -3    1    6    6    0  502  0.28436898943E+01  0.11292484401E+03 -0.52543550581E+02  0.12458303125E+03  0.00000000000E+00 0.  1.
<mgrwt>
<rscale>  0 0.26992498E+04</rscale>
<asrwt>0</asrwt>
<pdfrwt beam="1">  1        2 0.56854137E+00 0.26992498E+04</pdfrwt>
<pdfrwt beam="2">  1       -2 0.75829358E-01 0.26992498E+04</pdfrwt>
<totfact> 0.80459614E-01</totfact>
</mgrwt>
</event>
<event>
12    1  0.1472088E-007  0.1479352E+04  0.7818608E-02  0.8898301E-01
          2   -1    0    0  501    0  0.00000000000E+00  0.00000000000E+00  0.13778092276E+04  0.13778092276E+04  0.00000000000E+00 0. -1.
         -2   -1    0    0    0  501 -0.00000000000E+00 -0.00000000000E+00 -0.39709471686E+03  0.39709471686E+03  0.00000000000E+00 0.  1.
         23    2    1    2    0    0  0.31265059232E+03 -0.26152374402E+03  0.56950548949E+02  0.42163743415E+03  0.91595301683E+02 0.  0.
        254    2    1    2    0    0 -0.31265059232E+03  0.26152374402E+03  0.92376396175E+03  0.13532665103E+04  0.90102459967E+03 0.  0.
        -24    2    4    4    0    0 -0.36428879364E+03  0.45825043922E+03  0.96382026328E+03  0.11304629403E+04  0.79354705975E+02 0.  0.
         24    2    4    4    0    0  0.51638201321E+02 -0.19672669520E+03 -0.40056301532E+02  0.22280356992E+03  0.81664111061E+02 0.  0.
         13    1    3    3    0    0  0.15422752988E+03 -0.16666594939E+03 -0.42281425535E+01  0.22711571246E+03  0.00000000000E+00 0.  1.
        -13    1    3    3    0    0  0.15842306244E+03 -0.94857794627E+02  0.61178691502E+02  0.19452172169E+03  0.00000000000E+00 0. -1.
          4    1    6    6  502    0  0.69151552481E+01 -0.10163354759E+03  0.16923379123E+02  0.10326469934E+03  0.00000000000E+00 0. -1.
          3    1    5    5  503    0 -0.10448460301E+03  0.15251626047E+03  0.24080101065E+03  0.30358420364E+03  0.00000000000E+00 0. -1.
         -4    1    5    5    0  503 -0.25980419063E+03  0.30573417875E+03  0.72301925263E+03  0.82687873670E+03  0.00000000000E+00 0.  1.
         -3    1    6    6    0  502  0.44723046073E+02 -0.95093147611E+02 -0.56979680655E+02  0.11953887058E+03  0.00000000000E+00 0.  1.
<mgrwt>
<rscale>  0 0.14793522E+04</rscale>
<asrwt>0</asrwt>
<pdfrwt beam="1">  1        2 0.21197065E+00 0.14793522E+04</pdfrwt>
<pdfrwt beam="2">  1       -2 0.61091496E-01 0.14793522E+04</pdfrwt>
<totfact> 0.35942174E+01</totfact>
</mgrwt>
</event>
<event>
12    1  0.1472088E-007  0.1317745E+04  0.7818608E-02  0.9015610E-01
          2   -1    0    0  501    0  0.00000000000E+00  0.00000000000E+00  0.10925628801E+04  0.10925628801E+04  0.00000000000E+00 0. -1.
         -2   -1    0    0    0  501 -0.00000000000E+00 -0.00000000000E+00 -0.39733455863E+03  0.39733455863E+03  0.00000000000E+00 0.  1.
         23    2    1    2    0    0 -0.15114843841E+03 -0.26102635590E+03  0.36727312566E+03  0.48195304280E+03  0.80053592828E+02 0.  0.
        254    2    1    2    0    0  0.15114843841E+03  0.26102635590E+03  0.32795519579E+03  0.10079443959E+04  0.90411099200E+03 0.  0.
        -24    2    4    4    0    0 -0.74971656189E+02  0.45512094680E+03  0.47409901977E+03  0.66624992629E+03  0.79770033688E+02 0.  0.
         24    2    4    4    0    0  0.22612009460E+03 -0.19409459090E+03 -0.14614382399E+03  0.34169446961E+03  0.81203976941E+02 0.  0.
         13    1    3    3    0    0 -0.11640851892E+03 -0.24794310494E+03  0.33531497002E+03  0.43296980921E+03  0.00000000000E+00 0.  1.
        -13    1    3    3    0    0 -0.34739919487E+02 -0.13083250969E+02  0.31958155636E+02  0.48983233596E+02  0.00000000000E+00 0. -1.
          4    1    6    6  502    0  0.11427434438E+03 -0.14873328635E+03 -0.78417963085E+02  0.20329681056E+03  0.00000000000E+00 0. -1.
          3    1    5    5  503    0 -0.11444419008E+02  0.26040157190E+03  0.23016436503E+03  0.34772918817E+03  0.00000000000E+00 0. -1.
         -4    1    5    5    0  503 -0.63527237181E+02  0.19471937491E+03  0.24393465474E+03  0.31852073812E+03  0.00000000000E+00 0.  1.
         -3    1    6    6    0  502  0.11184575022E+03 -0.45361304550E+02 -0.67725860904E+02  0.13839765904E+03  0.00000000000E+00 0.  1.
<mgrwt>
<rscale>  0 0.13177450E+04</rscale>
<asrwt>0</asrwt>
<pdfrwt beam="1">  1        2 0.16808660E+00 0.13177450E+04</pdfrwt>
<pdfrwt beam="2">  1       -2 0.61128394E-01 0.13177450E+04</pdfrwt>
<totfact> 0.53667594E+01</totfact>
</mgrwt>
</event>
<event>
12    1  0.1472088E-007  0.1883856E+04  0.7818608E-02  0.8662934E-01
         -1   -1    0    0    0  501 -0.00000000000E+00  0.00000000000E+00  0.47865000389E+03  0.47865000389E+03  0.00000000000E+00 0.  1.
          1   -1    0    0  501    0  0.00000000000E+00 -0.00000000000E+00 -0.18536056353E+04  0.18536056353E+04  0.00000000000E+00 0. -1.
         23    2    1    2    0    0  0.26130418767E+03  0.52392767405E+03 -0.10759522861E+04  0.12283930540E+04  0.92174221264E+02 0.  0.
        254    2    1    2    0    0 -0.26130418767E+03 -0.52392767405E+03 -0.29900334535E+03  0.11038625852E+04  0.88675223168E+03 0.  0.
        -24    2    4    4    0    0  0.30902304502E+03 -0.27104997329E+03 -0.20935817939E+03  0.46858135141E+03  0.82306167680E+02 0.  0.
         24    2    4    4    0    0 -0.57032723269E+03 -0.25287770077E+03 -0.89645165963E+02  0.63528123381E+03  0.79534309344E+02 0.  0.
         13    1    3    3    0    0  0.40097552364E+02  0.35363702239E+02 -0.13712451799E+03  0.14717859415E+03  0.00000000000E+00 0.  1.
        -13    1    3    3    0    0  0.22120663531E+03  0.48856397181E+03 -0.93882776809E+03  0.10812144599E+04  0.00000000000E+00 0. -1.
          4    1    6    6  502    0 -0.15621548136E+03 -0.10912769964E+03 -0.25153384377E+02  0.19221036442E+03  0.00000000000E+00 0. -1.
          1    1    5    5  503    0  0.51260982830E+02 -0.50437450809E+02 -0.40719297064E+01  0.72029198360E+02  0.00000000000E+00 0. -1.
         -2    1    5    5    0  503  0.25776206219E+03 -0.22061252248E+03 -0.20528624969E+03  0.39655215305E+03  0.00000000000E+00 0.  1.
         -3    1    6    6    0  502 -0.41411175133E+03 -0.14375000113E+03 -0.64491781586E+02  0.44307086939E+03  0.00000000000E+00 0.  1.
<mgrwt>
<rscale>  0 0.18838560E+04</rscale>
<asrwt>0</asrwt>
<pdfrwt beam="1">  1        1 0.28517010E+00 0.18838560E+04</pdfrwt>
<pdfrwt beam="2">  1       -1 0.73638462E-01 0.18838560E+04</pdfrwt>
<totfact> 0.65197522E+00</totfact>
</mgrwt>
</event>
<event>
12    1  0.1472088E-007  0.2457364E+04  0.7818608E-02  0.8418334E-01
          1   -1    0    0  501    0  0.00000000000E+00  0.00000000000E+00  0.15709296186E+04  0.15709296186E+04  0.00000000000E+00 0. -1.
         -1   -1    0    0    0  501 -0.00000000000E+00 -0.00000000000E+00 -0.96099750731E+03  0.96099750731E+03  0.00000000000E+00 0.  1.
         23    2    1    2    0    0 -0.17374064545E+03  0.60154047045E+03  0.11438407501E+04  0.13073616372E+04  0.93733875848E+02 0.  0.
        254    2    1    2    0    0  0.17374064545E+03 -0.60154047045E+03 -0.53390863881E+03  0.12245654887E+04  0.90689881021E+03 0.  0.
        -24    2    4    4    0    0  0.44447005441E+03 -0.52781465902E+02 -0.87925471754E+02  0.46295555602E+03  0.79104019187E+02 0.  0.
         24    2    4    4    0    0 -0.27072940897E+03 -0.54875900454E+03 -0.44598316705E+03  0.76160993264E+03  0.81962468607E+02 0.  0.
         13    1    3    3    0    0 -0.16043967040E+03  0.59683385034E+03  0.11275106491E+04  0.12857806176E+04  0.00000000000E+00 0. -1.
        -13    1    3    3    0    0 -0.13300975050E+02  0.47066201061E+01  0.16330100945E+02  0.21581019600E+02  0.00000000000E+00 0.  1.
          2    1    6    6  502    0 -0.16120550974E+03 -0.40954433056E+03 -0.32446596100E+03  0.54680154984E+03  0.00000000000E+00 0. -1.
          1    1    5    5  503    0  0.43710921364E+03 -0.61007595848E+02 -0.78152260920E+02  0.44821219003E+03  0.00000000000E+00 0. -1.
         -2    1    5    5    0  503  0.73608407716E+01  0.82261299458E+01 -0.97732108331E+01  0.14743365991E+02  0.00000000000E+00 0.  1.
         -1    1    6    6    0  502 -0.10952389923E+03 -0.13921467399E+03 -0.12151720605E+03  0.21480838280E+03  0.00000000000E+00 0.  1.
<mgrwt>
<rscale>  0 0.24573640E+04</rscale>
<asrwt>0</asrwt>
<pdfrwt beam="1">  1        1 0.24168148E+00 0.24573640E+04</pdfrwt>
<pdfrwt beam="2">  1       -1 0.14784577E+00 0.24573640E+04</pdfrwt>
<totfact> 0.18900752E+00</totfact>
</mgrwt>
</event>
<event>
12    1  0.1472088E-007  0.1279793E+04  0.7818608E-02  0.9045745E-01
         -1   -1    0    0    0  501 -0.00000000000E+00  0.00000000000E+00  0.28578001589E+03  0.28578001589E+03  0.00000000000E+00 0.  1.
          1   -1    0    0  501    0  0.00000000000E+00 -0.00000000000E+00 -0.14328073231E+04  0.14328073231E+04  0.00000000000E+00 0. -1.
         23    2    1    2    0    0 -0.16589098319E+03 -0.18406551282E+03 -0.54358862814E+03  0.60462285617E+03  0.93167967973E+02 0.  0.
        254    2    1    2    0    0  0.16589098319E+03  0.18406551282E+03 -0.60343867903E+03  0.11139644828E+04  0.90298322145E+03 0.  0.
        -24    2    4    4    0    0  0.19350737729E+03 -0.19595947306E+03 -0.65984512497E+03  0.72044285266E+03  0.88301160013E+02 0.  0.
         24    2    4    4    0    0 -0.27616394102E+02  0.38002498588E+03  0.56406445942E+02  0.39352163011E+03  0.80597339318E+02 0.  0.
         11    1    3    3    0    0 -0.11715356256E+02  0.17923695548E+01 -0.25258663771E+01  0.12117844766E+02  0.00000000000E+00 0.  1.
        -11    1    3    3    0    0 -0.15417562693E+03 -0.18585788237E+03 -0.54106276176E+03  0.59250501141E+03  0.00000000000E+00 0. -1.
          4    1    6    6  502    0 -0.13336630263E+02  0.37341288381E+03  0.52638586663E+02  0.37734052036E+03  0.00000000000E+00 0. -1.
          1    1    5    5  503    0  0.18255079095E+03 -0.17601752430E+03 -0.51752247216E+03  0.57631282246E+03  0.00000000000E+00 0. -1.
         -2    1    5    5    0  503  0.10956586338E+02 -0.19941948762E+02 -0.14232265281E+03  0.14413003021E+03  0.00000000000E+00 0.  1.
         -3    1    6    6    0  502 -0.14279763840E+02  0.66121020686E+01  0.37678592791E+01  0.16181109747E+02  0.00000000000E+00 0.  1.
<mgrwt>
<rscale>  0 0.12797933E+04</rscale>
<asrwt>0</asrwt>
<pdfrwt beam="1">  1        1 0.22043189E+00 0.12797933E+04</pdfrwt>
<pdfrwt beam="2">  1       -1 0.43966157E-01 0.12797933E+04</pdfrwt>
<totfact> 0.36661807E+01</totfact>
</mgrwt>
</event>
<event>
12    1  0.1472088E-007  0.1681034E+04  0.7818608E-02  0.8772256E-01
          1   -1    0    0  501    0  0.00000000000E+00  0.00000000000E+00  0.45673665110E+03  0.45673665110E+03  0.00000000000E+00 0. -1.
         -1   -1    0    0    0  501 -0.00000000000E+00 -0.00000000000E+00 -0.15467755307E+04  0.15467755307E+04  0.00000000000E+00 0.  1.
         23    2    1    2    0    0 -0.99896761607E+02  0.31686658872E+03 -0.80588327873E+03  0.87572722785E+03  0.84062599473E+02 0.  0.
        254    2    1    2    0    0  0.99896761607E+02 -0.31686658872E+03 -0.28415560087E+03  0.11277849539E+04  0.10396012210E+04 0.  0.
        -24    2    4    4    0    0  0.49339261118E+03  0.71174662187E+02 -0.26221050907E+03  0.56900493031E+03  0.80685552295E+02 0.  0.
         24    2    4    4    0    0 -0.39349584958E+03 -0.38804125090E+03 -0.21945091801E+02  0.55878002363E+03  0.79614896305E+02 0.  0.
         11    1    3    3    0    0 -0.98562216449E+01 -0.28887554071E+01 -0.18999779340E+02  0.21598185754E+02  0.00000000000E+00 0. -1.
        -11    1    3    3    0    0 -0.90040539962E+02  0.31975534412E+03 -0.78688349939E+03  0.85412904209E+03  0.00000000000E+00 0.  1.
          2    1    6    6  502    0 -0.33696386596E+03 -0.29893242299E+03 -0.37945595963E+02  0.45204547197E+03  0.00000000000E+00 0. -1.
          1    1    5    5  503    0  0.17380943368E+03  0.51670599446E+02 -0.63237000514E+02  0.19203772629E+03  0.00000000000E+00 0. -1.
         -2    1    5    5    0  503  0.31958317750E+03  0.19504062741E+02 -0.19897350855E+03  0.37696720402E+03  0.00000000000E+00 0.  1.
         -1    1    6    6    0  502 -0.56531983620E+02 -0.89108827912E+02  0.16000504163E+02  0.10673455166E+03  0.00000000000E+00 0.  1.
<mgrwt>
<rscale>  0 0.16810343E+04</rscale>
<asrwt>0</asrwt>
<pdfrwt beam="1">  1        1 0.70267178E-01 0.16810343E+04</pdfrwt>
<pdfrwt beam="2">  1       -1 0.23796546E+00 0.16810343E+04</pdfrwt>
<totfact> 0.39992852E+00</totfact>
</mgrwt>
</event>
<event>
12    1  0.1472088E-007  0.1232725E+04  0.7818608E-02  0.9084685E-01
         -2   -1    0    0    0  501 -0.00000000000E+00  0.00000000000E+00  0.24891337583E+03  0.24891337583E+03  0.00000000000E+00 0.  1.
          2   -1    0    0  501    0  0.00000000000E+00 -0.00000000000E+00 -0.15262444541E+04  0.15262444541E+04  0.00000000000E+00 0. -1.
         23    2    1    2    0    0  0.24628968859E+03 -0.16749767212E+03 -0.41767697424E+03  0.52090534107E+03  0.90411496362E+02 0.  0.
        254    2    1    2    0    0 -0.24628968859E+03  0.16749767212E+03 -0.85965410407E+03  0.12542524889E+04  0.86338290832E+03 0.  0.
        -24    2    4    4    0    0 -0.41426559372E+03 -0.16234589536E+03 -0.72442499128E+03  0.85387778162E+03  0.79646255832E+02 0.  0.
         24    2    4    4    0    0  0.16797590513E+03  0.32984356748E+03 -0.13522911279E+03  0.40037470727E+03  0.70712867025E+02 0.  0.
         13    1    3    3    0    0  0.48358859989E+01 -0.62757236176E+01  0.40542006859E+01  0.88998339041E+01  0.00000000000E+00 0. -1.
        -13    1    3    3    0    0  0.24145380259E+03 -0.16122194850E+03 -0.42173117492E+03  0.51200550716E+03  0.00000000000E+00 0.  1.
          4    1    6    6  502    0  0.81885618076E+02  0.21905693046E+03 -0.61192757898E+02  0.24173486892E+03  0.00000000000E+00 0. -1.
          3    1    5    5  503    0 -0.11527443736E+03 -0.83019092995E+02 -0.20758733730E+03  0.25154098735E+03  0.00000000000E+00 0. -1.
         -4    1    5    5    0  503 -0.29899115636E+03 -0.79326802369E+02 -0.51683765399E+03  0.60233679427E+03  0.00000000000E+00 0.  1.
         -3    1    6    6    0  502  0.86090287057E+02  0.11078663702E+03 -0.74036354893E+02  0.15863983836E+03  0.00000000000E+00 0.  1.
<mgrwt>
<rscale>  0 0.12327249E+04</rscale>
<asrwt>0</asrwt>
<pdfrwt beam="1">  1        2 0.23480685E+00 0.12327249E+04</pdfrwt>
<pdfrwt beam="2">  1       -2 0.38294364E-01 0.12327249E+04</pdfrwt>
<totfact> 0.77750456E+01</totfact>
</mgrwt>
</event>
<event>
12    1  0.1472088E-007  0.1154713E+04  0.7818608E-02  0.9153446E-01
          2   -1    0    0  501    0  0.00000000000E+00  0.00000000000E+00  0.23083479452E+04  0.23083479452E+04  0.00000000000E+00 0. -1.
         -2   -1    0    0    0  501 -0.00000000000E+00 -0.00000000000E+00 -0.14440661918E+03  0.14440661918E+03  0.00000000000E+00 0.  1.
         23    2    1    2    0    0 -0.22605658489E+02  0.72945868224E+02  0.89554385965E+03  0.90344057652E+03  0.91509317958E+02 0.  0.
        254    2    1    2    0    0  0.22605658489E+02 -0.72945868224E+02  0.12683974664E+04  0.15493139879E+04  0.88640260875E+03 0.  0.
        -24    2    4    4    0    0 -0.26436634634E+03  0.29196764545E+03  0.73494072702E+03  0.83763454197E+03  0.79743856145E+02 0.  0.
         24    2    4    4    0    0  0.28697200483E+03 -0.36491351368E+03  0.53345673935E+03  0.71167944589E+03  0.79979603189E+02 0.  0.
         13    1    3    3    0    0 -0.26820665518E+02 -0.16125965387E+01  0.51140068333E+03  0.51210605101E+03  0.00000000000E+00 0. -1.
        -13    1    3    3    0    0  0.42150070293E+01  0.74558464763E+02  0.38414317631E+03  0.39133452551E+03  0.00000000000E+00 0.  1.
          2    1    6    6  502    0  0.93872715997E+02 -0.18353316952E+03  0.23428975367E+03  0.31207082497E+03  0.00000000000E+00 0. -1.
          1    1    5    5  503    0 -0.10520498439E+03  0.62202136882E+02  0.21361412114E+03  0.24610604893E+03  0.00000000000E+00 0. -1.
         -2    1    5    5    0  503 -0.15916136196E+03  0.22976550857E+03  0.52132660589E+03  0.59152849304E+03  0.00000000000E+00 0.  1.
         -1    1    6    6    0  502  0.19309928883E+03 -0.18138034416E+03  0.29916698568E+03  0.39960862093E+03  0.00000000000E+00 0.  1.
<mgrwt>
<rscale>  0 0.11547133E+04</rscale>
<asrwt>0</asrwt>
<pdfrwt beam="1">  1        2 0.35513042E+00 0.11547133E+04</pdfrwt>
<pdfrwt beam="2">  1       -2 0.22216405E-01 0.11547133E+04</pdfrwt>
<totfact> 0.79115669E+01</totfact>
</mgrwt>
</event>
<event>
12    1  0.1472088E-007  0.1138601E+04  0.7818608E-02  0.9168364E-01
          2   -1    0    0  501    0  0.00000000000E+00  0.00000000000E+00  0.99017244363E+03  0.99017244363E+03  0.00000000000E+00 0. -1.
         -2   -1    0    0    0  501 -0.00000000000E+00 -0.00000000000E+00 -0.32731995235E+03  0.32731995235E+03  0.00000000000E+00 0.  1.
         23    2    1    2    0    0  0.10047021016E+03 -0.83518878426E+02  0.31234803223E+03  0.35037391089E+03  0.90171603125E+02 0.  0.
        254    2    1    2    0    0 -0.10047021016E+03  0.83518878426E+02  0.35050445905E+03  0.96711848509E+03  0.89184927101E+03 0.  0.
        -24    2    4    4    0    0 -0.21017703797E+03  0.99134015832E+02  0.61875086309E+03  0.66574732671E+03  0.79780524351E+02 0.  0.
         24    2    4    4    0    0  0.10970682781E+03 -0.15615137405E+02 -0.26824640404E+03  0.30137115837E+03  0.81172786294E+02 0.  0.
         13    1    3    3    0    0  0.73732545409E+02 -0.92103817865E+02  0.29410355880E+03  0.31688563365E+03  0.00000000000E+00 0. -1.
        -13    1    3    3    0    0  0.26737664749E+02  0.85849394385E+01  0.18244473433E+02  0.33488277236E+02  0.00000000000E+00 0.  1.
          2    1    6    6  502    0  0.99608430661E+02  0.17932629281E+02 -0.21502458984E+03  0.23765309358E+03  0.00000000000E+00 0. -1.
          1    1    5    5  503    0 -0.13016134124E+03  0.45918515994E+02  0.45917816893E+03  0.47947374869E+03  0.00000000000E+00 0. -1.
         -2    1    5    5    0  503 -0.80015696736E+02  0.53215499838E+02  0.15957269416E+03  0.18627357802E+03  0.00000000000E+00 0.  1.
         -1    1    6    6    0  502  0.10098397154E+02 -0.33547766686E+02 -0.53221814201E+02  0.63718064798E+02  0.00000000000E+00 0.  1.
<mgrwt>
<rscale>  0 0.11386012E+04</rscale>
<asrwt>0</asrwt>
<pdfrwt beam="1">  1        2 0.15233422E+00 0.11386012E+04</pdfrwt>
<pdfrwt beam="2">  1       -2 0.50356916E-01 0.11386012E+04</pdfrwt>
<totfact> 0.94409068E+01</totfact>
</mgrwt>
</event>
<event>
12    1  0.1472088E-007  0.1799032E+04  0.7818608E-02  0.8706814E-01
          1   -1    0    0  501    0  0.00000000000E+00  0.00000000000E+00  0.20446936935E+04  0.20446936935E+04  0.00000000000E+00 0. -1.
         -1   -1    0    0    0  501 -0.00000000000E+00 -0.00000000000E+00 -0.39572150461E+03  0.39572150461E+03  0.00000000000E+00 0.  1.
         23    2    1    2    0    0 -0.43432524907E+02 -0.12045165860E+03 -0.27526944013E+03  0.31749650550E+03  0.92928897840E+02 0.  0.
        254    2    1    2    0    0  0.43432524907E+02  0.12045165860E+03  0.19242416290E+04  0.21229186926E+04  0.88751503779E+03 0.  0.
        -24    2    4    4    0    0 -0.15958307802E+03  0.79885597132E+02  0.11620224818E+02  0.19746793388E+03  0.83726267483E+02 0.  0.
         24    2    4    4    0    0  0.20301560293E+03  0.40566061465E+02  0.19126214042E+04  0.19254507587E+04  0.79868943363E+02 0.  0.
         13    1    3    3    0    0 -0.55735822183E+00  0.14342422818E+02 -0.45188529296E+02  0.47413277891E+02  0.00000000000E+00 0. -1.
        -13    1    3    3    0    0 -0.42875166685E+02 -0.13479408142E+03 -0.23008091084E+03  0.27008322761E+03  0.00000000000E+00 0.  1.
          2    1    6    6  502    0  0.20625206269E+03  0.46465753857E+02  0.17554948810E+04  0.17681802105E+04  0.00000000000E+00 0. -1.
          1    1    5    5  503    0 -0.16145650513E+03  0.59532548053E+02 -0.33794154814E+01  0.17211550707E+03  0.00000000000E+00 0. -1.
         -2    1    5    5    0  503  0.18734271079E+01  0.20353049079E+02  0.14999640299E+02  0.25352426808E+02  0.00000000000E+00 0.  1.
         -1    1    6    6    0  502 -0.32364597670E+01 -0.58996923914E+01  0.15712652321E+03  0.15727054822E+03  0.00000000000E+00 0.  1.
<mgrwt>
<rscale>  0 0.17990323E+04</rscale>
<asrwt>0</asrwt>
<pdfrwt beam="1">  1        1 0.31456825E+00 0.17990323E+04</pdfrwt>
<pdfrwt beam="2">  1       -1 0.60880233E-01 0.17990323E+04</pdfrwt>
<totfact> 0.71766164E+00</totfact>
</mgrwt>
</event>
<event>
12    1  0.1472088E-007  0.1200598E+04  0.7818608E-02  0.9112333E-01
         -1   -1    0    0    0  501 -0.00000000000E+00  0.00000000000E+00  0.58238209478E+03  0.58238209478E+03  0.00000000000E+00 0. -1.
          1   -1    0    0  501    0  0.00000000000E+00 -0.00000000000E+00 -0.61876700119E+03  0.61876700119E+03  0.00000000000E+00 0.  1.
         23    2    1    2    0    0  0.13796335912E+03 -0.58754528168E+02 -0.25984339729E+03  0.31399194340E+03  0.92662648189E+02 0.  0.
        254    2    1    2    0    0 -0.13796335912E+03  0.58754528168E+02  0.22345849087E+03  0.88715715257E+03  0.84535680820E+03 0.  0.
        -24    2    4    4    0    0 -0.20390725459E+02 -0.24021892706E+03 -0.21841462792E+03  0.33499512693E+03  0.79974188163E+02 0.  0.
         24    2    4    4    0    0 -0.11757263366E+03  0.29897345523E+03  0.44187311879E+03  0.55216202564E+03  0.80141115138E+02 0.  0.
         11    1    3    3    0    0  0.38586491838E+02 -0.72936829321E+01 -0.10443854033E+02  0.40634828043E+02  0.00000000000E+00 0.  1.
        -11    1    3    3    0    0  0.99376867283E+02 -0.51460845236E+02 -0.24939954325E+03  0.27335711536E+03  0.00000000000E+00 0. -1.
          4    1    6    6  502    0 -0.69098649355E+02  0.21157435139E+03  0.35868282739E+03  0.42212758755E+03  0.00000000000E+00 0. -1.
          3    1    5    5  503    0 -0.21954978397E+02 -0.11026896317E+03 -0.15195576674E+03  0.18902862313E+03  0.00000000000E+00 0. -1.
         -4    1    5    5    0  503  0.15642529375E+01 -0.12994996389E+03 -0.66458861177E+02  0.14596650380E+03  0.00000000000E+00 0.  1.
         -3    1    6    6    0  502 -0.48473984307E+02  0.87399103836E+02  0.83190291402E+02  0.13003443809E+03  0.00000000000E+00 0.  1.
<mgrwt>
<rscale>  0 0.12005979E+04</rscale>
<asrwt>0</asrwt>
<pdfrwt beam="1">  1        1 0.95194923E-01 0.12005979E+04</pdfrwt>
<pdfrwt beam="2">  1       -1 0.89597246E-01 0.12005979E+04</pdfrwt>
<totfact> 0.39560897E+01</totfact>
</mgrwt>
</event>
<event>
12    1  0.1472088E-007  0.1845294E+04  0.7818608E-02  0.8682577E-01
         -1   -1    0    0    0  501 -0.00000000000E+00  0.00000000000E+00  0.11728473714E+04  0.11728473714E+04  0.00000000000E+00 0.  1.
          1   -1    0    0  501    0  0.00000000000E+00 -0.00000000000E+00 -0.72582083924E+03  0.72582083924E+03  0.00000000000E+00 0. -1.
         23    2    1    2    0    0 -0.20806789753E+03  0.26197724291E+03  0.80695066509E+03  0.87779357668E+03  0.86185042745E+02 0.  0.
        254    2    1    2    0    0  0.20806789753E+03 -0.26197724291E+03 -0.35992413297E+03  0.10208746339E+04  0.89482697260E+03 0.  0.
        -24    2    4    4    0    0  0.27352359497E+02  0.32277927103E+03 -0.79931251096E+02  0.34302598748E+03  0.79644295500E+02 0.  0.
         24    2    4    4    0    0  0.18071553803E+03 -0.58475651394E+03 -0.27999288187E+03  0.67784864644E+03  0.80526314328E+02 0.  0.
         13    1    3    3    0    0 -0.16978028207E+03  0.16407780202E+03  0.49109692909E+03  0.54490647184E+03  0.00000000000E+00 0.  1.
        -13    1    3    3    0    0 -0.38287615464E+02  0.97899440883E+02  0.31585373600E+03  0.33288710484E+03  0.00000000000E+00 0. -1.
          2    1    6    6  502    0  0.97049724109E+02 -0.20286812854E+03 -0.79790562235E+02  0.23862242214E+03  0.00000000000E+00 0. -1.
          3    1    5    5  503    0  0.17858196354E+02  0.38088224145E+02 -0.34858303582E+02  0.54632676341E+02  0.00000000000E+00 0. -1.
         -4    1    5    5    0  503  0.94941631431E+01  0.28469104689E+03 -0.45072947514E+02  0.28839331114E+03  0.00000000000E+00 0.  1.
         -1    1    6    6    0  502  0.83665813923E+02 -0.38188838540E+03 -0.20020231964E+03  0.43922622430E+03  0.00000000000E+00 0.  1.
<mgrwt>
<rscale>  0 0.18452935E+04</rscale>
<asrwt>0</asrwt>
<pdfrwt beam="1">  1        1 0.11166474E+00 0.18452935E+04</pdfrwt>
<pdfrwt beam="2">  1       -1 0.18043806E+00 0.18452935E+04</pdfrwt>
<totfact> 0.50045794E+00</totfact>
</mgrwt>
</event>
<event>
12    1  0.1472088E-007  0.1917595E+04  0.7818608E-02  0.8646147E-01
         -1   -1    0    0    0  501 -0.00000000000E+00  0.00000000000E+00  0.10567333527E+04  0.10567333527E+04  0.00000000000E+00 0.  1.
          1   -1    0    0  501    0  0.00000000000E+00 -0.00000000000E+00 -0.86993818502E+03  0.86993818502E+03  0.00000000000E+00 0. -1.
         23    2    1    2    0    0 -0.53517946583E+03  0.51274189330E+03  0.14968809408E+03  0.76126621274E+03  0.88308614350E+02 0.  0.
        254    2    1    2    0    0  0.53517946583E+03 -0.51274189330E+03  0.37107073642E+02  0.11654053250E+04  0.89859408347E+03 0.  0.
        -24    2    4    4    0    0  0.25223398786E+03  0.23811848148E+03 -0.17294462718E+02  0.35711149885E+03  0.83109134957E+02 0.  0.
         24    2    4    4    0    0  0.28294547796E+03 -0.75086037479E+03  0.54401536360E+02  0.80829382616E+03  0.80808021406E+02 0.  0.
         11    1    3    3    0    0 -0.35160607259E+03  0.35573914432E+03  0.14050116307E+03  0.51953608720E+03  0.00000000000E+00 0.  1.
        -11    1    3    3    0    0 -0.18357339323E+03  0.15700274898E+03  0.91869310060E+01  0.24173012554E+03  0.00000000000E+00 0. -1.
          4    1    6    6  502    0  0.21088595557E+03 -0.58943368311E+03  0.10353178430E+02  0.62610872965E+03  0.00000000000E+00 0. -1.
          1    1    5    5  503    0  0.53707142235E+02  0.55379285851E+02  0.30737594227E+02  0.83042893297E+02  0.00000000000E+00 0. -1.
         -2    1    5    5    0  503  0.19852684563E+03  0.18273919563E+03 -0.48032056944E+02  0.27406860555E+03  0.00000000000E+00 0.  1.
         -3    1    6    6    0  502  0.72059522395E+02 -0.16142669167E+03  0.44048357930E+02  0.18218509650E+03  0.00000000000E+00 0.  1.
<mgrwt>
<rscale>  0 0.19175951E+04</rscale>
<asrwt>0</asrwt>
<pdfrwt beam="1">  1        1 0.13383664E+00 0.19175951E+04</pdfrwt>
<pdfrwt beam="2">  1       -1 0.16257436E+00 0.19175951E+04</pdfrwt>
<totfact> 0.50307998E+00</totfact>
</mgrwt>
</event>
<event>
12    1  0.1472088E-007  0.2570362E+04  0.7818608E-02  0.8378339E-01
         -2   -1    0    0    0  501 -0.00000000000E+00  0.00000000000E+00  0.47427525331E+03  0.47427525331E+03  0.00000000000E+00 0.  1.
          2   -1    0    0  501    0  0.00000000000E+00 -0.00000000000E+00 -0.34825555532E+04  0.34825555532E+04  0.00000000000E+00 0. -1.
         23    2    1    2    0    0  0.10818399709E+04 -0.30297929674E+03 -0.14647042123E+04  0.18481383689E+04  0.89904527378E+02 0.  0.
        254    2    1    2    0    0 -0.10818399709E+04  0.30297929674E+03 -0.15435760876E+04  0.21086924377E+04  0.89542307400E+03 0.  0.
        -24    2    4    4    0    0 -0.13888093466E+02  0.15036416180E+02  0.97113814758E+02  0.12830631287E+03  0.81316935214E+02 0.  0.
         24    2    4    4    0    0 -0.10679518775E+04  0.28794288056E+03 -0.16406899024E+04  0.19803861248E+04  0.81446500853E+02 0.  0.
         11    1    3    3    0    0  0.73276232751E+03 -0.18894693081E+03 -0.92053264926E+03  0.11916467302E+04  0.00000000000E+00 0.  1.
        -11    1    3    3    0    0  0.34907764341E+03 -0.11403236594E+03 -0.54417156302E+03  0.65649163865E+03  0.00000000000E+00 0. -1.
          2    1    6    6  502    0 -0.79979261877E+02  0.78248642328E+01 -0.91914735342E+02  0.12209107012E+03  0.00000000000E+00 0. -1.
          3    1    5    5  503    0  0.22269936350E+02  0.64298666861E+01 -0.11904599739E+01  0.23210136699E+02  0.00000000000E+00 0. -1.
         -4    1    5    5    0  503 -0.36158029816E+02  0.86065494937E+01  0.98304274732E+02  0.10509617617E+03  0.00000000000E+00 0.  1.
         -1    1    6    6    0  502 -0.98797261558E+03  0.28011801633E+03 -0.15487751670E+04  0.18582950547E+04  0.00000000000E+00 0.  1.
<mgrwt>
<rscale>  0 0.25703618E+04</rscale>
<asrwt>0</asrwt>
<pdfrwt beam="1">  1        2 0.53577779E+00 0.25703618E+04</pdfrwt>
<pdfrwt beam="2">  1       -2 0.72965421E-01 0.25703618E+04</pdfrwt>
<totfact> 0.12592472E+00</totfact>
</mgrwt>
</event>
<event>
12    1  0.1472088E-007  0.1257831E+04  0.7818608E-02  0.9063691E-01
         -2   -1    0    0    0  501 -0.00000000000E+00  0.00000000000E+00  0.14692441297E+04  0.14692441297E+04  0.00000000000E+00 0.  1.
          2   -1    0    0  501    0  0.00000000000E+00 -0.00000000000E+00 -0.26920967003E+03  0.26920967003E+03  0.00000000000E+00 0. -1.
         23    2    1    2    0    0  0.12416211413E+03  0.14390734102E+03  0.59114649277E+03  0.62744555373E+03  0.90045508474E+02 0.  0.
        254    2    1    2    0    0 -0.12416211413E+03 -0.14390734102E+03  0.60888796694E+03  0.11110082461E+04  0.90965334777E+03 0.  0.
        -24    2    4    4    0    0  0.25683613168E+03 -0.24032033993E+03  0.61150311951E+03  0.71027021342E+03  0.82638045577E+02 0.  0.
         24    2    4    4    0    0 -0.38099824582E+03  0.96412998911E+02 -0.26151525605E+01  0.40073803263E+03  0.78287943537E+02 0.  0.
         13    1    3    3    0    0  0.49622860623E+02  0.10753031543E+03  0.43255958740E+03  0.44847853202E+03  0.00000000000E+00 0.  1.
        -13    1    3    3    0    0  0.74539253508E+02  0.36377025590E+02  0.15858690537E+03  0.17896702171E+03  0.00000000000E+00 0. -1.
          2    1    6    6  502    0 -0.15435112698E+03  0.17660364426E+01  0.10942978230E+02  0.15474862861E+03  0.00000000000E+00 0. -1.
          3    1    5    5  503    0  0.22417709675E+02  0.37430624224E+01  0.44193008281E+02  0.49694931374E+02  0.00000000000E+00 0. -1.
         -4    1    5    5    0  503  0.23441842201E+03 -0.24406340236E+03  0.56731011122E+03  0.66057528204E+03  0.00000000000E+00 0.  1.
         -1    1    6    6    0  502 -0.22664711884E+03  0.94646962468E+02 -0.13558130790E+02  0.24598940402E+03  0.00000000000E+00 0.  1.
<mgrwt>
<rscale>  0 0.12578310E+04</rscale>
<asrwt>0</asrwt>
<pdfrwt beam="1">  1        2 0.41416873E-01 0.12578310E+04</pdfrwt>
<pdfrwt beam="2">  1       -2 0.22603755E+00 0.12578310E+04</pdfrwt>
<totfact> 0.11031125E+01</totfact>
</mgrwt>
</event>
<event>
12    1  0.1472088E-007  0.1612936E+04  0.7818608E-02  0.8812640E-01
         -2   -1    0    0    0  501 -0.00000000000E+00  0.00000000000E+00  0.14290480475E+04  0.14290480475E+04  0.00000000000E+00 0.  1.
          2   -1    0    0  501    0  0.00000000000E+00 -0.00000000000E+00 -0.45512133238E+03  0.45512133238E+03  0.00000000000E+00 0. -1.
         23    2    1    2    0    0 -0.70675880360E+02  0.28425238352E+03 -0.21262507242E+03  0.37323975762E+03  0.91126273095E+02 0.  0.
        254    2    1    2    0    0  0.70675880360E+02 -0.28425238352E+03  0.11865517875E+04  0.15109296222E+04  0.88837417863E+03 0.  0.
        -24    2    4    4    0    0 -0.26599694721E+02  0.30365417352E+02 -0.12638476501E+03  0.15507895294E+03  0.80291783436E+02 0.  0.
         24    2    4    4    0    0  0.97275575081E+02 -0.31461780087E+03  0.13129365525E+04  0.13558506693E+04  0.77985564671E+02 0.  0.
         11    1    3    3    0    0 -0.90135316594E+02  0.24701439544E+03 -0.19641096887E+03  0.32820383231E+03  0.00000000000E+00 0. -1.
        -11    1    3    3    0    0  0.19459436233E+02  0.37237988078E+02 -0.16214103550E+02  0.45035925311E+02  0.00000000000E+00 0.  1.
          4    1    6    6  502    0  0.43670382164E+02 -0.44023750395E+02  0.21216378081E+03  0.22103995739E+03  0.00000000000E+00 0. -1.
          1    1    5    5  503    0  0.24954627221E+02  0.22579416561E+02 -0.73377438860E+02  0.80726773784E+02  0.00000000000E+00 0. -1.
         -2    1    5    5    0  503 -0.51554321942E+02  0.77860007911E+01 -0.53007326154E+02  0.74352179156E+02  0.00000000000E+00 0.  1.
         -3    1    6    6    0  502  0.53605192918E+02 -0.27059405048E+03  0.11007727717E+04  0.11348107119E+04  0.00000000000E+00 0.  1.
<mgrwt>
<rscale>  0 0.16129355E+04</rscale>
<asrwt>0</asrwt>
<pdfrwt beam="1">  1        2 0.70018667E-01 0.16129355E+04</pdfrwt>
<pdfrwt beam="2">  1       -2 0.21985354E+00 0.16129355E+04</pdfrwt>
<totfact> 0.65095256E+00</totfact>
</mgrwt>
</event>
<event>
12    1  0.1472088E-007  0.2082552E+04  0.7818608E-02  0.8568969E-01
         -1   -1    0    0    0  501 -0.00000000000E+00  0.00000000000E+00  0.43368851491E+03  0.43368851491E+03  0.00000000000E+00 0.  1.
          1   -1    0    0  501    0  0.00000000000E+00 -0.00000000000E+00 -0.25000783646E+04  0.25000783646E+04  0.00000000000E+00 0. -1.
         23    2    1    2    0    0  0.44188236920E+02 -0.11567511168E+03 -0.20138736105E+04  0.20197464025E+04  0.91407217651E+02 0.  0.
        254    2    1    2    0    0 -0.44188236920E+02  0.11567511168E+03 -0.52516239158E+02  0.91402047701E+03  0.90406976793E+03 0.  0.
        -24    2    4    4    0    0 -0.26566696893E+03 -0.31612968889E+03 -0.20136259150E+01  0.41996053650E+03  0.76458347824E+02 0.  0.
         24    2    4    4    0    0  0.22147873201E+03  0.43180480057E+03 -0.50502613243E+02  0.49405994051E+03  0.77694892673E+02 0.  0.
         13    1    3    3    0    0 -0.24912024383E+02 -0.35474643140E+02 -0.38412381465E+03  0.38656197983E+03  0.00000000000E+00 0.  1.
        -13    1    3    3    0    0  0.69100261303E+02 -0.80200468535E+02 -0.16297497959E+04  0.16331844226E+04  0.00000000000E+00 0. -1.
          4    1    6    6  502    0  0.45545611609E+02  0.48525951650E+02  0.12304679433E+02  0.67679951657E+02  0.00000000000E+00 0. -1.
          3    1    5    5  503    0 -0.60302945328E+02 -0.35491203716E+02 -0.16553860628E+02  0.71903414788E+02  0.00000000000E+00 0. -1.
         -4    1    5    5    0  503 -0.20536402360E+03 -0.28063848518E+03  0.14540234713E+02  0.34805712172E+03  0.00000000000E+00 0.  1.
         -3    1    6    6    0  502  0.17593312040E+03  0.38327884892E+03 -0.62807292677E+02  0.42637998885E+03  0.00000000000E+00 0.  1.
<mgrwt>
<rscale>  0 0.20825516E+04</rscale>
<asrwt>0</asrwt>
<pdfrwt beam="1">  1        1 0.38462744E+00 0.20825516E+04</pdfrwt>
<pdfrwt beam="2">  1       -1 0.66721310E-01 0.20825516E+04</pdfrwt>
<totfact> 0.28403308E+00</totfact>
</mgrwt>
</event>
<event>
12    1  0.1472088E-007  0.1165170E+04  0.7818608E-02  0.9143902E-01
         -1   -1    0    0    0  501 -0.00000000000E+00  0.00000000000E+00  0.14477474000E+04  0.14477474000E+04  0.00000000000E+00 0.  1.
          1   -1    0    0  501    0  0.00000000000E+00 -0.00000000000E+00 -0.23443679248E+03  0.23443679248E+03  0.00000000000E+00 0. -1.
         23    2    1    2    0    0 -0.17442480197E+03 -0.12719582735E+02  0.42472106818E+03  0.46891821861E+03  0.94395501276E+02 0.  0.
        254    2    1    2    0    0  0.17442480197E+03  0.12719582735E+02  0.78858953936E+03  0.12132659739E+04  0.90529280485E+03 0.  0.
        -24    2    4    4    0    0 -0.72717874091E+02  0.20260469488E+03 -0.11312631998E+03  0.25638228097E+03  0.81226585091E+02 0.  0.
         24    2    4    4    0    0  0.24714267606E+03 -0.18988511215E+03  0.90171585934E+03  0.95688369293E+03  0.73478246182E+02 0.  0.
         13    1    3    3    0    0 -0.17680209830E+03 -0.27811765831E+02  0.35525852650E+03  0.39779529526E+03  0.00000000000E+00 0. -1.
        -13    1    3    3    0    0  0.23772963354E+01  0.15092183097E+02  0.69462541683E+02  0.71122923348E+02  0.00000000000E+00 0.  1.
          2    1    6    6  502    0  0.44075235324E+02 -0.12254011837E+02  0.81838121077E+02  0.93756414374E+02  0.00000000000E+00 0. -1.
          3    1    5    5  503    0 -0.30475445686E+02  0.13377467378E+03 -0.29916240754E+02  0.14042577254E+03  0.00000000000E+00 0. -1.
         -4    1    5    5    0  503 -0.42242428405E+02  0.68830021105E+02 -0.83210079223E+02  0.11595650843E+03  0.00000000000E+00 0.  1.
         -1    1    6    6    0  502  0.20306744074E+03 -0.17763110031E+03  0.81987773826E+03  0.86312727855E+03  0.00000000000E+00 0.  1.
<mgrwt>
<rscale>  0 0.11651700E+04</rscale>
<asrwt>0</asrwt>
<pdfrwt beam="1">  1        1 0.36067200E-01 0.11651700E+04</pdfrwt>
<pdfrwt beam="2">  1       -1 0.22273036E+00 0.11651700E+04</pdfrwt>
<totfact> 0.12675968E+01</totfact>
</mgrwt>
</event>
<event>
12    1  0.1472088E-007  0.1031298E+04  0.7818608E-02  0.9274868E-01
         -2   -1    0    0    0  501 -0.00000000000E+00  0.00000000000E+00  0.20598188191E+03  0.20598188191E+03  0.00000000000E+00 0.  1.
          2   -1    0    0  501    0  0.00000000000E+00 -0.00000000000E+00 -0.12908609024E+04  0.12908609024E+04  0.00000000000E+00 0. -1.
         23    2    1    2    0    0 -0.29981349009E+02  0.27959502888E+02 -0.18367518090E+03  0.21087088921E+03  0.95128043952E+02 0.  0.
        254    2    1    2    0    0  0.29981349009E+02 -0.27959502888E+02 -0.90120383954E+03  0.12859718951E+04  0.91644680117E+03 0.  0.
        -24    2    4    4    0    0  0.20249274434E+03 -0.37008227073E+03 -0.17896413460E+03  0.46493896151E+03  0.78586753586E+02 0.  0.
         24    2    4    4    0    0 -0.17251139533E+03  0.34212276784E+03 -0.72223970494E+03  0.82103293354E+03  0.75211147908E+02 0.  0.
         11    1    3    3    0    0 -0.15056878839E+02  0.63381951561E+02 -0.11495966671E+03  0.13213518212E+03  0.00000000000E+00 0.  1.
        -11    1    3    3    0    0 -0.14924470170E+02 -0.35422448674E+02 -0.68715514191E+02  0.78735707087E+02  0.00000000000E+00 0. -1.
          2    1    6    6  502    0 -0.79502181255E+02  0.22461943556E+03 -0.48605887071E+03  0.54132034273E+03  0.00000000000E+00 0. -1.
          3    1    5    5  503    0  0.12588242929E+03 -0.28368358432E+03 -0.10423603968E+03  0.32739565358E+03  0.00000000000E+00 0. -1.
         -4    1    5    5    0  503  0.76610315055E+02 -0.86398686413E+02 -0.74728094924E+02  0.13754330793E+03  0.00000000000E+00 0.  1.
         -1    1    6    6    0  502 -0.93009214080E+02  0.11750333228E+03 -0.23618083423E+03  0.27971259081E+03  0.00000000000E+00 0.  1.
<mgrwt>
<rscale>  0 0.10312981E+04</rscale>
<asrwt>0</asrwt>
<pdfrwt beam="1">  1        2 0.19859398E+00 0.10312981E+04</pdfrwt>
<pdfrwt beam="2">  1       -2 0.31689521E-01 0.10312981E+04</pdfrwt>
<totfact> 0.15415161E+02</totfact>
</mgrwt>
</event>
<event>
12    1  0.1472088E-007  0.2164859E+04  0.7818608E-02  0.8533199E-01
          1   -1    0    0  501    0  0.00000000000E+00  0.00000000000E+00  0.12318935010E+04  0.12318935010E+04  0.00000000000E+00 0. -1.
         -1   -1    0    0    0  501 -0.00000000000E+00 -0.00000000000E+00 -0.95109937668E+03  0.95109937668E+03  0.00000000000E+00 0.  1.
         23    2    1    2    0    0 -0.46615771711E+03 -0.70096751748E+03  0.45847509995E+03  0.96287471921E+03  0.90938604823E+02 0.  0.
        254    2    1    2    0    0  0.46615771711E+03  0.70096751748E+03 -0.17768097561E+03  0.12201181585E+04  0.86513543090E+03 0.  0.
        -24    2    4    4    0    0  0.75999128774E+02 -0.48067843747E+02 -0.33594855395E+03  0.35719744703E+03  0.81499693781E+02 0.  0.
         24    2    4    4    0    0  0.39015858833E+03  0.74903536122E+03  0.15826757834E+03  0.86292071146E+03  0.79409265784E+02 0.  0.
         13    1    3    3    0    0 -0.36083758337E+01 -0.20281396443E+02 -0.42375042844E+00  0.20604246705E+02  0.00000000000E+00 0.  1.
        -13    1    3    3    0    0 -0.46254934127E+03 -0.68068612103E+03  0.45889885038E+03  0.94227047251E+03  0.00000000000E+00 0. -1.
          4    1    6    6  502    0  0.25479853669E+03  0.54329663602E+03  0.13850816576E+03  0.61585553582E+03  0.00000000000E+00 0. -1.
          3    1    5    5  503    0  0.78957957214E+02 -0.63810141323E+02 -0.25101653423E+03  0.27076815470E+03  0.00000000000E+00 0. -1.
         -2    1    5    5    0  503 -0.29588284405E+01  0.15742297576E+02 -0.84932019726E+02  0.86429292335E+02  0.00000000000E+00 0.  1.
         -3    1    6    6    0  502  0.13536005165E+03  0.20573872520E+03  0.19759412579E+02  0.24706517564E+03  0.00000000000E+00 0.  1.
<mgrwt>
<rscale>  0 0.21648586E+04</rscale>
<asrwt>0</asrwt>
<pdfrwt beam="1">  1        1 0.18952208E+00 0.21648586E+04</pdfrwt>
<pdfrwt beam="2">  1       -1 0.14632298E+00 0.21648586E+04</pdfrwt>
<totfact> 0.34546922E+00</totfact>
</mgrwt>
</event>
<event>
12    1  0.1472088E-007  0.1469571E+04  0.7818608E-02  0.8904944E-01
         -2   -1    0    0    0  501 -0.00000000000E+00  0.00000000000E+00  0.72842424522E+03  0.72842424522E+03  0.00000000000E+00 0. -1.
          2   -1    0    0  501    0  0.00000000000E+00 -0.00000000000E+00 -0.74120182092E+03  0.74120182092E+03  0.00000000000E+00 0.  1.
         23    2    1    2    0    0  0.26707124901E+02  0.91833761487E+02  0.43742204407E+03  0.45774295638E+03  0.95099207188E+02 0.  0.
        254    2    1    2    0    0 -0.26707124901E+02 -0.91833761487E+02 -0.45019961977E+03  0.10118831098E+04  0.90115538057E+03 0.  0.
        -24    2    4    4    0    0  0.29561319737E+03 -0.34953711940E+03 -0.34712026117E+03  0.58019388000E+03  0.81049999241E+02 0.  0.
         24    2    4    4    0    0 -0.32232032227E+03  0.25770335791E+03 -0.10307935860E+03  0.43168922977E+03  0.73680568021E+02 0.  0.
         13    1    3    3    0    0  0.28193587732E+02  0.11060778852E+03  0.39814906480E+03  0.41418792724E+03  0.00000000000E+00 0. -1.
        -13    1    3    3    0    0 -0.14864628310E+01 -0.18774027030E+02  0.39272979261E+02  0.43555029132E+02  0.00000000000E+00 0.  1.
          2    1    6    6  502    0 -0.35602144134E+02  0.53031442454E+02 -0.35210308313E+02  0.72935672803E+02  0.00000000000E+00 0. -1.
          1    1    5    5  503    0  0.64962348437E+02 -0.32850561140E+02 -0.46654701687E+02  0.86463444710E+02  0.00000000000E+00 0. -1.
         -2    1    5    5    0  503  0.23065084893E+03 -0.31668655826E+03 -0.30046555948E+03  0.49373043529E+03  0.00000000000E+00 0.  1.
         -1    1    6    6    0  502 -0.28671817814E+03  0.20467191546E+03 -0.67869050289E+02  0.35875355697E+03  0.00000000000E+00 0.  1.
<mgrwt>
<rscale>  0 0.14695705E+04</rscale>
<asrwt>0</asrwt>
<pdfrwt beam="1">  1        2 0.11403105E+00 0.14695705E+04</pdfrwt>
<pdfrwt beam="2">  1       -2 0.11206527E+00 0.14695705E+04</pdfrwt>
<totfact> 0.23158151E+01</totfact>
</mgrwt>
</event>
<event>
12    1  0.1472088E-007  0.3891340E+04  0.7818608E-02  0.8026833E-01
         -2   -1    0    0    0  501 -0.00000000000E+00  0.00000000000E+00  0.12066873572E+04  0.12066873572E+04  0.00000000000E+00 0.  1.
          2   -1    0    0  501    0  0.00000000000E+00 -0.00000000000E+00 -0.31372098990E+04  0.31372098990E+04  0.00000000000E+00 0. -1.
         23    2    1    2    0    0 -0.23353670908E+03  0.15913468071E+04 -0.19144734430E+04  0.25017542097E+04  0.81495438854E+02 0.  0.
        254    2    1    2    0    0  0.23353670908E+03 -0.15913468071E+04 -0.16049098734E+02  0.18421430465E+04  0.89794731202E+03 0.  0.
        -24    2    4    4    0    0  0.45137499760E+02 -0.15878746662E+04 -0.14901305892E+03  0.15975026148E+04  0.80164601212E+02 0.  0.
         24    2    4    4    0    0  0.18839920932E+03 -0.34721409759E+01  0.13296396019E+03  0.24464043170E+03  0.81628477124E+02 0.  0.
         11    1    3    3    0    0 -0.76699814737E+02  0.40124352002E+03 -0.43917421511E+03  0.59979431070E+03  0.00000000000E+00 0. -1.
        -11    1    3    3    0    0 -0.15683689434E+03  0.11901032871E+04 -0.14752992279E+04  0.19019598990E+04  0.00000000000E+00 0.  1.
          4    1    6    6  502    0  0.11220319526E+03 -0.36699785683E+02  0.53381011010E+02  0.12956065619E+03  0.00000000000E+00 0. -1.
          3    1    5    5  503    0 -0.14972007935E+02 -0.38195166584E+03 -0.58486942103E+02  0.38669362350E+03  0.00000000000E+00 0. -1.
         -4    1    5    5    0  503  0.60109507695E+02 -0.12059230003E+04 -0.90526116819E+02  0.12108089913E+04  0.00000000000E+00 0.  1.
         -3    1    6    6    0  502  0.76196014059E+02  0.33227644707E+02  0.79582949178E+02  0.11507977551E+03  0.00000000000E+00 0.  1.
<mgrwt>
<rscale>  0 0.38913399E+04</rscale>
<asrwt>0</asrwt>
<pdfrwt beam="1">  1        2 0.48264767E+00 0.38913399E+04</pdfrwt>
<pdfrwt beam="2">  1       -2 0.18564421E+00 0.38913399E+04</pdfrwt>
<totfact> 0.18784630E-01</totfact>
</mgrwt>
</event>
<event>
12    1  0.1472088E-007  0.1210568E+04  0.7818608E-02  0.9103656E-01
          2   -1    0    0  501    0  0.00000000000E+00  0.00000000000E+00  0.14214653931E+04  0.14214653931E+04  0.00000000000E+00 0. -1.
         -2   -1    0    0    0  501 -0.00000000000E+00 -0.00000000000E+00 -0.25774019158E+03  0.25774019158E+03  0.00000000000E+00 0.  1.
         23    2    1    2    0    0  0.14996414019E+03 -0.28752917554E+02  0.56036028422E+03  0.58791052922E+03  0.91209476621E+02 0.  0.
        254    2    1    2    0    0 -0.14996414019E+03  0.28752917554E+02  0.60336491732E+03  0.10912950555E+04  0.89641491568E+03 0.  0.
        -24    2    4    4    0    0 -0.44994807055E+03  0.17183302195E+03  0.12683401162E+03  0.50475871283E+03  0.81942895043E+02 0.  0.
         24    2    4    4    0    0  0.29998393036E+03 -0.14308010440E+03  0.47653090570E+03  0.58653634265E+03  0.80504052131E+02 0.  0.
         11    1    3    3    0    0  0.30391239910E+02  0.31665327195E+02  0.13963490353E+03  0.14637017009E+03  0.00000000000E+00 0.  1.
        -11    1    3    3    0    0  0.11957290028E+03 -0.60418244748E+02  0.42072538069E+03  0.44154035913E+03  0.00000000000E+00 0. -1.
          4    1    6    6  502    0  0.28868579912E+03 -0.11331673820E+03  0.43127216926E+03  0.53120227573E+03  0.00000000000E+00 0. -1.
          3    1    5    5  503    0 -0.42346164849E+03  0.16892039655E+03  0.13729275546E+03  0.47613356195E+03  0.00000000000E+00 0. -1.
         -4    1    5    5    0  503 -0.26486422062E+02  0.29126254057E+01 -0.10458743839E+02  0.28625150884E+02  0.00000000000E+00 0.  1.
         -3    1    6    6    0  502  0.11298131245E+02 -0.29763366195E+02  0.45258736441E+02  0.55334066912E+02  0.00000000000E+00 0.  1.
<mgrwt>
<rscale>  0 0.12105681E+04</rscale>
<asrwt>0</asrwt>
<pdfrwt beam="1">  1        2 0.21868698E+00 0.12105681E+04</pdfrwt>
<pdfrwt beam="2">  1       -2 0.39652338E-01 0.12105681E+04</pdfrwt>
<totfact> 0.83404344E+01</totfact>
</mgrwt>
</event>
<event>
12    1  0.1472088E-007  0.3066869E+04  0.7818608E-02  0.8224890E-01
         -1   -1    0    0    0  501 -0.00000000000E+00  0.00000000000E+00  0.14165163623E+04  0.14165163623E+04  0.00000000000E+00 0.  1.
          1   -1    0    0  501    0  0.00000000000E+00 -0.00000000000E+00 -0.16600031649E+04  0.16600031649E+04  0.00000000000E+00 0. -1.
         23    2    1    2    0    0  0.80073622840E+03 -0.11079403228E+04 -0.25651753908E+03  0.13938547530E+04  0.91211613227E+02 0.  0.
        254    2    1    2    0    0 -0.80073622840E+03  0.11079403228E+04  0.13030736463E+02  0.16826647742E+04  0.98106099494E+03 0.  0.
        -24    2    4    4    0    0 -0.42495707076E+03  0.80088538380E+03  0.45860075516E+03  0.10190613731E+04  0.78520822565E+02 0.  0.
         24    2    4    4    0    0 -0.37577915763E+03  0.30705493899E+03 -0.44557001870E+03  0.66360340104E+03  0.79649993366E+02 0.  0.
         11    1    3    3    0    0  0.46826341001E+03 -0.61939268649E+03 -0.10288120411E+03  0.78326398066E+03  0.00000000000E+00 0.  1.
        -11    1    3    3    0    0  0.33247281838E+03 -0.48854763630E+03 -0.15363633497E+03  0.61059077238E+03  0.00000000000E+00 0. -1.
          4    1    6    6  502    0 -0.33798839092E+03  0.24326003277E+03 -0.36087971142E+03  0.55104061742E+03  0.00000000000E+00 0. -1.
          3    1    5    5  503    0 -0.39861058215E+03  0.74001728403E+03  0.44602723125E+03  0.95155465838E+03  0.00000000000E+00 0. -1.
         -4    1    5    5    0  503 -0.26346488610E+02  0.60868099767E+02  0.12573523913E+02  0.67506714740E+02  0.00000000000E+00 0.  1.
         -3    1    6    6    0  502 -0.37790766715E+02  0.63794906221E+02 -0.84690307283E+02  0.11256278362E+03  0.00000000000E+00 0.  1.
<mgrwt>
<rscale>  0 0.30668692E+04</rscale>
<asrwt>0</asrwt>
<pdfrwt beam="1">  1        1 0.25538510E+00 0.30668692E+04</pdfrwt>
<pdfrwt beam="2">  1       -1 0.21792559E+00 0.30668692E+04</pdfrwt>
<totfact> 0.48811023E-01</totfact>
</mgrwt>
</event>
<event>
12    1  0.1472088E-007  0.2064524E+04  0.7818608E-02  0.8577034E-01
         -2   -1    0    0    0  501 -0.00000000000E+00  0.00000000000E+00  0.15654473923E+04  0.15654473923E+04  0.00000000000E+00 0.  1.
          2   -1    0    0  501    0  0.00000000000E+00 -0.00000000000E+00 -0.68067734188E+03  0.68067734188E+03  0.00000000000E+00 0. -1.
         23    2    1    2    0    0  0.26092469055E+03 -0.13042102331E+03  0.11937828841E+04  0.12323995165E+04  0.92734332602E+02 0.  0.
        254    2    1    2    0    0 -0.26092469055E+03  0.13042102331E+03 -0.30901283359E+03  0.10137252178E+04  0.92035783711E+03 0.  0.
        -24    2    4    4    0    0 -0.11720649352E+03 -0.23664120301E+03  0.21749762105E+03  0.35096999179E+03  0.78347296641E+02 0.  0.
         24    2    4    4    0    0 -0.14371819703E+03  0.36706222632E+03 -0.52651045464E+03  0.66275522597E+03  0.81496211890E+02 0.  0.
         13    1    3    3    0    0  0.16620976885E+02 -0.33203507926E+02  0.83107645180E+02  0.91025328885E+02  0.00000000000E+00 0. -1.
        -13    1    3    3    0    0  0.24430371367E+03 -0.97217515380E+02  0.11106752389E+04  0.11413741876E+04  0.00000000000E+00 0.  1.
          4    1    6    6  502    0 -0.14374367895E+03  0.34081443888E+03 -0.51506533240E+03  0.63412066961E+03  0.00000000000E+00 0. -1.
          1    1    5    5  503    0 -0.11642063897E+03 -0.18146842508E+03  0.19717326566E+03  0.29216750533E+03  0.00000000000E+00 0. -1.
         -2    1    5    5    0  503 -0.78585455311E+00 -0.55172777937E+02  0.20324355383E+02  0.58802486464E+02  0.00000000000E+00 0.  1.
         -3    1    6    6    0  502  0.25481913213E-01  0.26247787435E+02 -0.11445122241E+02  0.28634556355E+02  0.00000000000E+00 0.  1.
<mgrwt>
<rscale>  0 0.20645237E+04</rscale>
<asrwt>0</asrwt>
<pdfrwt beam="1">  1        2 0.10471959E+00 0.20645237E+04</pdfrwt>
<pdfrwt beam="2">  1       -2 0.24083806E+00 0.20645237E+04</pdfrwt>
<totfact> 0.28705687E+00</totfact>
</mgrwt>
</event>
<event>
12    1  0.1502478E-007  0.2391359E+04  0.7818608E-02  0.8442746E-01
         -2   -1    0    0    0  501 -0.00000000000E+00  0.00000000000E+00  0.76116391410E+03  0.76116391410E+03  0.00000000000E+00 0.  1.
          2   -1    0    0  501    0  0.00000000000E+00 -0.00000000000E+00 -0.18782413356E+04  0.18782413356E+04  0.00000000000E+00 0. -1.
         23    2    1    2    0    0 -0.79957169917E+03  0.46917543660E+03 -0.64743068408E+02  0.93391026600E+03  0.92499878949E+02 0.  0.
        254    2    1    2    0    0  0.79957169917E+03 -0.46917543660E+03 -0.10523343531E+04  0.17054949837E+04  0.97049732421E+03 0.  0.
        -24    2    4    4    0    0  0.14902618901E+03  0.28209493673E+03 -0.15457734821E+03  0.36338621958E+03  0.79806200674E+02 0.  0.
         24    2    4    4    0    0  0.65054551016E+03 -0.75127037333E+03 -0.89775700488E+03  0.13421087641E+04  0.87588014370E+02 0.  0.
         13    1    3    3    0    0 -0.58652503427E+02  0.54951875967E+02 -0.24844736798E+02  0.84125416951E+02  0.00000000000E+00 0.  1.
        -13    1    3    3    0    0 -0.74091919574E+03  0.41422356064E+03 -0.39898331610E+02  0.84978484905E+03  0.00000000000E+00 0. -1.
          4    1    6    6  502    0  0.12293794722E+03 -0.13175848942E+03 -0.12027687850E+03  0.21665771600E+03  0.00000000000E+00 0. -1.
          3    1    5    5  503    0  0.34425393853E+02  0.33356166635E+02 -0.52553321658E+02  0.71130817595E+02  0.00000000000E+00 0. -1.
         -4    1    5    5    0  503  0.11460079516E+03  0.24873877009E+03 -0.10202402655E+03  0.29225540199E+03  0.00000000000E+00 0.  1.
         -3    1    6    6    0  502  0.52760756294E+03 -0.61951188391E+03 -0.77748012638E+03  0.11254510481E+04  0.00000000000E+00 0.  1.
<mgrwt>
<rscale>  0 0.23913591E+04</rscale>
<asrwt>0</asrwt>
<pdfrwt beam="1">  1        2 0.28896020E+00 0.23913591E+04</pdfrwt>
<pdfrwt beam="2">  1       -2 0.11710214E+00 0.23913591E+04</pdfrwt>
<totfact> 0.39632292E+00</totfact>
</mgrwt>
</event>
<event>
12    1  0.1472088E-007  0.1686192E+04  0.7818608E-02  0.8769279E-01
         -1   -1    0    0    0  501 -0.00000000000E+00  0.00000000000E+00  0.27940497477E+03  0.27940497477E+03  0.00000000000E+00 0. -1.
          1   -1    0    0  501    0  0.00000000000E+00 -0.00000000000E+00 -0.25440165893E+04  0.25440165893E+04  0.00000000000E+00 0.  1.
         23    2    1    2    0    0 -0.55742303741E+03 -0.13704318672E+03 -0.51463883969E+03  0.77639913362E+03  0.91876012655E+02 0.  0.
        254    2    1    2    0    0  0.55742303741E+03  0.13704318672E+03 -0.17499727748E+04  0.20470224304E+04  0.89352942897E+03 0.  0.
        -24    2    4    4    0    0  0.18128346205E+03  0.21022571347E+03 -0.40379981946E+02  0.29323007599E+03  0.85409544581E+02 0.  0.
         24    2    4    4    0    0  0.37613957536E+03 -0.73182526753E+02 -0.17095927929E+04  0.17537923545E+04  0.79015458532E+02 0.  0.
         11    1    3    3    0    0 -0.40240318576E+03 -0.11308723446E+03 -0.42324658977E+03  0.59485689225E+03  0.00000000000E+00 0. -1.
        -11    1    3    3    0    0 -0.15501985165E+03 -0.23955952260E+02 -0.91392249922E+02  0.18154224137E+03  0.00000000000E+00 0.  1.
          4    1    6    6  502    0  0.37428027999E+01  0.48117167697E+01 -0.85944824673E+02  0.86160745581E+02  0.00000000000E+00 0. -1.
          3    1    5    5  503    0  0.81365938769E+02  0.13804317089E+03 -0.54287529426E+02  0.16918471820E+03  0.00000000000E+00 0. -1.
         -4    1    5    5    0  503  0.99917523280E+02  0.72182542577E+02  0.13907547480E+02  0.12404535779E+03  0.00000000000E+00 0.  1.
         -3    1    6    6    0  502  0.37239677256E+03 -0.77994243523E+02 -0.16236479682E+04  0.16676316089E+04  0.00000000000E+00 0.  1.
<mgrwt>
<rscale>  0 0.16861920E+04</rscale>
<asrwt>0</asrwt>
<pdfrwt beam="1">  1        1 0.39138719E+00 0.16861920E+04</pdfrwt>
<pdfrwt beam="2">  1       -1 0.42985378E-01 0.16861920E+04</pdfrwt>
<totfact> 0.64268109E+00</totfact>
</mgrwt>
</event>
<event>
12    1  0.1472088E-007  0.1805920E+04  0.7818608E-02  0.8703158E-01
         -2   -1    0    0    0  501 -0.00000000000E+00  0.00000000000E+00  0.61633806241E+03  0.61633806241E+03  0.00000000000E+00 0.  1.
          2   -1    0    0  501    0  0.00000000000E+00 -0.00000000000E+00 -0.13228722881E+04  0.13228722881E+04  0.00000000000E+00 0. -1.
         23    2    1    2    0    0  0.43969599801E+03 -0.12814540640E+03 -0.79595004099E+03  0.92717038554E+03  0.12788526192E+03 0.  0.
        254    2    1    2    0    0 -0.43969599801E+03  0.12814540640E+03  0.89415815265E+02  0.10120399650E+04  0.89804002523E+03 0.  0.
        -24    2    4    4    0    0 -0.35738469719E+03  0.16326993765E+03 -0.36489890349E+03  0.54219046849E+03  0.80239641268E+02 0.  0.
         24    2    4    4    0    0 -0.82311300819E+02 -0.35124531250E+02  0.45431471876E+03  0.46984949651E+03  0.79673099327E+02 0.  0.
         11    1    3    3    0    0  0.41298929413E+03 -0.13992011658E+03 -0.68153098902E+03  0.80908731610E+03  0.00000000000E+00 0. -1.
        -11    1    3    3    0    0  0.26706703880E+02  0.11774710183E+02 -0.11441905197E+03  0.11808306943E+03  0.00000000000E+00 0.  1.
          4    1    6    6  502    0 -0.38972893567E+02 -0.46279775997E+02  0.36467429582E+03  0.36965936500E+03  0.00000000000E+00 0. -1.
          1    1    5    5  503    0 -0.18158942450E+03  0.60268290466E+02 -0.22336777007E+03  0.29410907268E+03  0.00000000000E+00 0. -1.
         -2    1    5    5    0  503 -0.17579527269E+03  0.10300164718E+03 -0.14153113343E+03  0.24808139582E+03  0.00000000000E+00 0.  1.
         -3    1    6    6    0  502 -0.43338407253E+02  0.11155244747E+02  0.89640422934E+02  0.10019013151E+03  0.00000000000E+00 0.  1.
<mgrwt>
<rscale>  0 0.18059198E+04</rscale>
<asrwt>0</asrwt>
<pdfrwt beam="1">  1        2 0.20351881E+00 0.18059198E+04</pdfrwt>
<pdfrwt beam="2">  1       -2 0.94821241E-01 0.18059198E+04</pdfrwt>
<totfact> 0.14163684E+01</totfact>
</mgrwt>
</event>
<event>
12    1  0.1472088E-007  0.1287189E+04  0.7818608E-02  0.9039786E-01
          2   -1    0    0  501    0  0.00000000000E+00  0.00000000000E+00  0.33800899253E+04  0.33800899253E+04  0.00000000000E+00 0. -1.
         -2   -1    0    0    0  501 -0.00000000000E+00 -0.00000000000E+00 -0.12254531497E+03  0.12254531497E+03  0.00000000000E+00 0.  1.
         23    2    1    2    0    0  0.17234950292E+03 -0.15466640418E+03  0.24550296826E+03  0.34974453165E+03  0.91779530713E+02 0.  0.
        254    2    1    2    0    0 -0.17234950292E+03  0.15466640418E+03  0.30120416421E+04  0.31528907087E+04  0.90260673564E+03 0.  0.
        -24    2    4    4    0    0 -0.53770881081E+03  0.93814432996E+02  0.18644743767E+04  0.19443852638E+04  0.80233657112E+02 0.  0.
         24    2    4    4    0    0  0.36535930789E+03  0.60851971180E+02  0.11475672654E+04  0.12085054448E+04  0.79902411180E+02 0.  0.
         11    1    3    3    0    0  0.15641457848E+03 -0.16009395486E+03  0.24640952614E+03  0.33288624080E+03  0.00000000000E+00 0. -1.
        -11    1    3    3    0    0  0.15934924436E+02  0.54275506845E+01 -0.90655787333E+00  0.16858290850E+02  0.00000000000E+00 0.  1.
          2    1    6    6  502    0  0.10819084510E+02  0.78313798107E+01  0.10888728027E+03  0.10970334044E+03  0.00000000000E+00 0. -1.
          3    1    5    5  503    0 -0.19549107686E+03  0.65731590521E+02  0.78315650038E+03  0.80985894279E+03  0.00000000000E+00 0. -1.
         -2    1    5    5    0  503 -0.34221773395E+03  0.28082842476E+02  0.10813178763E+04  0.11345263211E+04  0.00000000000E+00 0.  1.
         -1    1    6    6    0  502  0.35454022338E+03  0.53020591369E+02  0.10386799851E+04  0.10988021044E+04  0.00000000000E+00 0.  1.
<mgrwt>
<rscale>  0 0.12871895E+04</rscale>
<asrwt>0</asrwt>
<pdfrwt beam="1">  1        2 0.52001376E+00 0.12871895E+04</pdfrwt>
<pdfrwt beam="2">  1       -2 0.18853128E-01 0.12871895E+04</pdfrwt>
<totfact> 0.23311126E+01</totfact>
</mgrwt>
</event>
<event>
12    1  0.1472088E-007  0.1190596E+04  0.7818608E-02  0.9121128E-01
         -2   -1    0    0    0  501 -0.00000000000E+00  0.00000000000E+00  0.14480710271E+03  0.14480710271E+03  0.00000000000E+00 0.  1.
          2   -1    0    0  501    0  0.00000000000E+00 -0.00000000000E+00 -0.24472542111E+04  0.24472542111E+04  0.00000000000E+00 0. -1.
         23    2    1    2    0    0 -0.83403662602E+02 -0.20919586094E+03 -0.69329176794E+03  0.73482676242E+03  0.92724409465E+02 0.  0.
        254    2    1    2    0    0  0.83403662602E+02  0.20919586094E+03 -0.16091553405E+04  0.18572345514E+04  0.89956666789E+03 0.  0.
        -24    2    4    4    0    0 -0.38784874101E+03  0.15580975735E+03 -0.56951579641E+03  0.71107306157E+03  0.81076076290E+02 0.  0.
         24    2    4    4    0    0  0.47125240361E+03  0.53386103594E+02 -0.10396395441E+04  0.11461614898E+04  0.88920611897E+02 0.  0.
         13    1    3    3    0    0  0.19646140444E+01  0.88673155473E+01 -0.33497558681E+02  0.34706993977E+02  0.00000000000E+00 0.  1.
        -13    1    3    3    0    0 -0.85368276646E+02 -0.21806317649E+03 -0.65979420926E+03  0.70011976845E+03  0.00000000000E+00 0. -1.
          4    1    6    6  502    0  0.40740175302E+03  0.19007797903E+02 -0.84041563072E+03  0.93414983654E+03  0.00000000000E+00 0. -1.
          1    1    5    5  503    0 -0.24504322187E+03  0.11319218262E+03 -0.30357631263E+03  0.40622312635E+03  0.00000000000E+00 0. -1.
         -2    1    5    5    0  503 -0.14280551914E+03  0.42617574726E+02 -0.26593948378E+03  0.30484993522E+03  0.00000000000E+00 0.  1.
         -3    1    6    6    0  502  0.63850650589E+02  0.34378305692E+02 -0.19922391335E+03  0.21201165330E+03  0.00000000000E+00 0.  1.
<mgrwt>
<rscale>  0 0.11905961E+04</rscale>
<asrwt>0</asrwt>
<pdfrwt beam="1">  1        2 0.37650062E+00 0.11905961E+04</pdfrwt>
<pdfrwt beam="2">  1       -2 0.22278017E-01 0.11905961E+04</pdfrwt>
<totfact> 0.65483152E+01</totfact>
</mgrwt>
</event>
<event>
12    1  0.1472088E-007  0.4092971E+04  0.7818608E-02  0.7986049E-01
         -1   -1    0    0    0  501 -0.00000000000E+00  0.00000000000E+00  0.14135204396E+04  0.14135204396E+04  0.00000000000E+00 0.  1.
          1   -1    0    0  501    0  0.00000000000E+00 -0.00000000000E+00 -0.29628886596E+04  0.29628886596E+04  0.00000000000E+00 0. -1.
         23    2    1    2    0    0  0.54357961566E+03  0.16683717417E+04  0.14843815627E+03  0.17633182369E+04  0.91182516294E+02 0.  0.
        254    2    1    2    0    0 -0.54357961566E+03 -0.16683717417E+04 -0.16978063762E+04  0.26130908622E+04  0.93099639951E+03 0.  0.
        -24    2    4    4    0    0  0.18514363412E+03 -0.89660468567E+03 -0.86139019195E+03  0.12593608906E+04  0.76280156820E+02 0.  0.
         24    2    4    4    0    0 -0.72872324977E+03 -0.77176705604E+03 -0.83641618429E+03  0.13537299716E+04  0.79566570900E+02 0.  0.
         11    1    3    3    0    0  0.16193438276E+02  0.10269099136E+03 -0.50760000371E+01  0.10408377840E+03  0.00000000000E+00 0. -1.
        -11    1    3    3    0    0  0.52738617738E+03  0.15656807503E+04  0.15351415631E+03  0.16592344585E+04  0.00000000000E+00 0.  1.
          4    1    6    6  502    0 -0.25921418392E+02 -0.11811368002E+02 -0.14373483252E+02  0.31906509780E+02  0.00000000000E+00 0. -1.
          1    1    5    5  503    0  0.68511681526E+01 -0.74850520738E+02 -0.99196694805E+02  0.12445691311E+03  0.00000000000E+00 0. -1.
         -2    1    5    5    0  503  0.17829246596E+03 -0.82175416493E+03 -0.76219349715E+03  0.11349039775E+04  0.00000000000E+00 0.  1.
         -3    1    6    6    0  502 -0.70280183138E+03 -0.75995568803E+03 -0.82204270104E+03  0.13218234619E+04  0.00000000000E+00 0.  1.
<mgrwt>
<rscale>  0 0.40929714E+04</rscale>
<asrwt>0</asrwt>
<pdfrwt beam="1">  1        1 0.45582902E+00 0.40929714E+04</pdfrwt>
<pdfrwt beam="2">  1       -1 0.21746469E+00 0.40929714E+04</pdfrwt>
<totfact> 0.56528810E-02</totfact>
</mgrwt>
</event>
<event>
12    1  0.1472088E-007  0.1171442E+04  0.7818608E-02  0.9138227E-01
         -2   -1    0    0    0  501 -0.00000000000E+00  0.00000000000E+00  0.22604628317E+03  0.22604628317E+03  0.00000000000E+00 0.  1.
          2   -1    0    0  501    0  0.00000000000E+00 -0.00000000000E+00 -0.15176942314E+04  0.15176942314E+04  0.00000000000E+00 0. -1.
         23    2    1    2    0    0  0.27930345013E+01  0.61724127330E+02  0.57704670886E+02  0.12449556219E+03  0.91387346102E+02 0.  0.
        254    2    1    2    0    0 -0.27930345013E+01 -0.61724127330E+02 -0.13493526191E+04  0.16192449523E+04  0.89296363650E+03 0.  0.
        -24    2    4    4    0    0  0.42887715547E+03  0.41357700987E+02 -0.56957932186E+03  0.71870316950E+03  0.80421191509E+02 0.  0.
         24    2    4    4    0    0 -0.43167018998E+03 -0.10308182832E+03 -0.77977329722E+03  0.90054178283E+03  0.77227529594E+02 0.  0.
         13    1    3    3    0    0  0.92911801732E+01  0.60851442406E+02 -0.47108059017E+01  0.61736664667E+02  0.00000000000E+00 0.  1.
        -13    1    3    3    0    0 -0.64981456719E+01  0.87268492352E+00  0.62415476788E+02  0.62758897527E+02  0.00000000000E+00 0. -1.
          4    1    6    6  502    0 -0.72371336297E+02  0.91193488363E+00 -0.86383159813E+02  0.11269646064E+03  0.00000000000E+00 0. -1.
          3    1    5    5  503    0  0.17766749006E+03  0.57055582893E+02 -0.24098037253E+03  0.30478290062E+03  0.00000000000E+00 0. -1.
         -4    1    5    5    0  503  0.25120966541E+03 -0.15697881906E+02 -0.32859894932E+03  0.41392026888E+03  0.00000000000E+00 0.  1.
         -3    1    6    6    0  502 -0.35929885368E+03 -0.10399376320E+03 -0.69339013740E+03  0.78784532219E+03  0.00000000000E+00 0.  1.
<mgrwt>
<rscale>  0 0.11714421E+04</rscale>
<asrwt>0</asrwt>
<pdfrwt beam="1">  1        2 0.23349142E+00 0.11714421E+04</pdfrwt>
<pdfrwt beam="2">  1       -2 0.34776352E-01 0.11714421E+04</pdfrwt>
<totfact> 0.95047447E+01</totfact>
</mgrwt>
</event>
<event>
12    1  0.1472088E-007  0.1696408E+04  0.7818608E-02  0.8763416E-01
         -2   -1    0    0    0  501 -0.00000000000E+00  0.00000000000E+00  0.21183164645E+04  0.21183164645E+04  0.00000000000E+00 0.  1.
          2   -1    0    0  501    0  0.00000000000E+00 -0.00000000000E+00 -0.33963293410E+03  0.33963293410E+03  0.00000000000E+00 0. -1.
         23    2    1    2    0    0 -0.23075809940E+03  0.40953879093E+03  0.10733259083E+03  0.49221352858E+03  0.98906779037E+02 0.  0.
        254    2    1    2    0    0  0.23075809940E+03 -0.40953879093E+03  0.16713509396E+04  0.19657358700E+04  0.92180921334E+03 0.  0.
        -24    2    4    4    0    0  0.50858630148E+03 -0.51332312505E+03  0.11417808769E+04  0.13536170283E+04  0.80341967706E+02 0.  0.
         24    2    4    4    0    0 -0.27782820208E+03  0.10378433412E+03  0.52957006267E+03  0.61211884169E+03  0.79280055538E+02 0.  0.
         11    1    3    3    0    0 -0.18375915960E+03  0.29802598988E+03  0.12097464072E+03  0.37043458678E+03  0.00000000000E+00 0.  1.
        -11    1    3    3    0    0 -0.46998939796E+02  0.11151280105E+03 -0.13642049887E+02  0.12177894180E+03  0.00000000000E+00 0. -1.
          4    1    6    6  502    0 -0.66181569719E+01 -0.10001197123E+02  0.31333853789E+02  0.33550474495E+02  0.00000000000E+00 0. -1.
          3    1    5    5  503    0  0.86487937063E+02 -0.55587074204E+02  0.13222206881E+03  0.16748958641E+03  0.00000000000E+00 0. -1.
         -2    1    5    5    0  503  0.42209836441E+03 -0.45773605085E+03  0.10095588081E+04  0.11861274419E+04  0.00000000000E+00 0.  1.
         -3    1    6    6    0  502 -0.27121004510E+03  0.11378553124E+03  0.49823620888E+03  0.57856836720E+03  0.00000000000E+00 0.  1.
<mgrwt>
<rscale>  0 0.16964080E+04</rscale>
<asrwt>0</asrwt>
<pdfrwt beam="1">  1        2 0.52251222E-01 0.16964080E+04</pdfrwt>
<pdfrwt beam="2">  1       -2 0.32589483E+00 0.16964080E+04</pdfrwt>
<totfact> 0.20097519E+00</totfact>
</mgrwt>
</event>
<event>
12    1  0.1472088E-007  0.1516559E+04  0.7818608E-02  0.8873516E-01
          2   -1    0    0  501    0  0.00000000000E+00  0.00000000000E+00  0.61154286992E+03  0.61154286992E+03  0.00000000000E+00 0. -1.
         -2   -1    0    0    0  501 -0.00000000000E+00 -0.00000000000E+00 -0.94022427218E+03  0.94022427218E+03  0.00000000000E+00 0.  1.
         23    2    1    2    0    0 -0.99565139166E+02 -0.10090982505E+03  0.36762530670E+03  0.40443163818E+03  0.91217180972E+02 0.  0.
        254    2    1    2    0    0  0.99565139166E+02  0.10090982505E+03 -0.69630670896E+03  0.11473355039E+04  0.90079948704E+03 0.  0.
        -24    2    4    4    0    0  0.48900450026E+03 -0.73422366492E+00 -0.31244204194E+03  0.58555344717E+03  0.78274322474E+02 0.  0.
         24    2    4    4    0    0 -0.38943936110E+03  0.10164404872E+03 -0.38386466702E+03  0.56178205674E+03  0.79072549427E+02 0.  0.
         11    1    3    3    0    0 -0.10711512076E+03 -0.10325301835E+03  0.36755695800E+03  0.39652610540E+03  0.00000000000E+00 0. -1.
        -11    1    3    3    0    0  0.75499815981E+01  0.23431932985E+01  0.68348707021E-01  0.79055327785E+01  0.00000000000E+00 0.  1.
          2    1    6    6  502    0 -0.11309317033E+03  0.43618409500E+02 -0.71606256461E+02  0.14078382999E+03  0.00000000000E+00 0. -1.
          3    1    5    5  503    0  0.30828817072E+02 -0.11044976495E+02 -0.36776633583E+01  0.32953492616E+02  0.00000000000E+00 0. -1.
         -4    1    5    5    0  503  0.45817568319E+03  0.10310752830E+02 -0.30876437858E+03  0.55259995456E+03  0.00000000000E+00 0.  1.
         -1    1    6    6    0  502 -0.27634619077E+03  0.58025639217E+02 -0.31225841056E+03  0.42099822675E+03  0.00000000000E+00 0.  1.
<mgrwt>
<rscale>  0 0.15165585E+04</rscale>
<asrwt>0</asrwt>
<pdfrwt beam="1">  1        2 0.94083519E-01 0.15165585E+04</pdfrwt>
<pdfrwt beam="2">  1       -2 0.14464989E+00 0.15165585E+04</pdfrwt>
<totfact> 0.15411517E+01</totfact>
</mgrwt>
</event>
<event>
12    1  0.1472088E-007  0.2092033E+04  0.7818608E-02  0.8564761E-01
         -2   -1    0    0    0  501 -0.00000000000E+00  0.00000000000E+00  0.16470821251E+04  0.16470821251E+04  0.00000000000E+00 0.  1.
          2   -1    0    0  501    0  0.00000000000E+00 -0.00000000000E+00 -0.66429616603E+03  0.66429616603E+03  0.00000000000E+00 0. -1.
         23    2    1    2    0    0  0.19942729534E+03 -0.81418532276E+03  0.52671398696E+03  0.99410177940E+03  0.90231578899E+02 0.  0.
        254    2    1    2    0    0 -0.19942729534E+03  0.81418532276E+03  0.45607197212E+03  0.13172765117E+04  0.90804558185E+03 0.  0.
        -24    2    4    4    0    0 -0.22897239539E+03  0.59881057521E+03 -0.15442345244E+03  0.66428234783E+03  0.80137208235E+02 0.  0.
         24    2    4    4    0    0  0.29545100054E+02  0.21537474755E+03  0.61049542456E+03  0.65299416391E+03  0.80234156540E+02 0.  0.
         11    1    3    3    0    0  0.10676004901E+03 -0.56785214407E+03  0.39397948818E+03  0.69933797459E+03  0.00000000000E+00 0. -1.
        -11    1    3    3    0    0  0.92667246323E+02 -0.24633317868E+03  0.13273449878E+03  0.29476380481E+03  0.00000000000E+00 0.  1.
          2    1    6    6  502    0  0.60797031036E+01  0.17437253543E+03  0.54493379822E+03  0.57218492496E+03  0.00000000000E+00 0. -1.
          1    1    5    5  503    0 -0.20877292815E+03  0.49207223788E+03 -0.15160670487E+03  0.55561300901E+03  0.00000000000E+00 0. -1.
         -2    1    5    5    0  503 -0.20199467238E+02  0.10673833733E+03 -0.28167475694E+01  0.10866933882E+03  0.00000000000E+00 0.  1.
         -1    1    6    6    0  502  0.23465396951E+02  0.41002212114E+02  0.65561626335E+02  0.80809238952E+02  0.00000000000E+00 0.  1.
<mgrwt>
<rscale>  0 0.20920328E+04</rscale>
<asrwt>0</asrwt>
<pdfrwt beam="1">  1        2 0.10219941E+00 0.20920328E+04</pdfrwt>
<pdfrwt beam="2">  1       -2 0.25339725E+00 0.20920328E+04</pdfrwt>
<totfact> 0.24711358E+00</totfact>
</mgrwt>
</event>
<event>
12    1  0.1472088E-007  0.1382616E+04  0.7818608E-02  0.8966499E-01
         -2   -1    0    0    0  501 -0.00000000000E+00  0.00000000000E+00  0.26256666526E+03  0.26256666526E+03  0.00000000000E+00 0.  1.
          2   -1    0    0  501    0  0.00000000000E+00 -0.00000000000E+00 -0.18201353054E+04  0.18201353054E+04  0.00000000000E+00 0. -1.
         23    2    1    2    0    0  0.92824008066E+02 -0.78682392311E+01 -0.10858534120E+04  0.10936293189E+04  0.90935412036E+02 0.  0.
        254    2    1    2    0    0 -0.92824008066E+02  0.78682392311E+01 -0.47171522820E+03  0.98907265182E+03  0.86433283427E+03 0.  0.
        -24    2    4    4    0    0 -0.35610667114E+03 -0.28762695389E+03 -0.23270568469E+03  0.51943417447E+03  0.78222120243E+02 0.  0.
         24    2    4    4    0    0  0.26328266307E+03  0.29549519312E+03 -0.23900954352E+03  0.46963847735E+03  0.82459491160E+02 0.  0.
         11    1    3    3    0    0  0.15391302443E+02 -0.26380034630E+02 -0.99842313110E+02  0.10440922328E+03  0.00000000000E+00 0.  1.
        -11    1    3    3    0    0  0.77432705623E+02  0.18511795399E+02 -0.98601109885E+03  0.98922009560E+03  0.00000000000E+00 0. -1.
          4    1    6    6  502    0  0.22966524796E+03  0.26142516841E+03 -0.23832953211E+03  0.42177032930E+03  0.00000000000E+00 0. -1.
          1    1    5    5  503    0 -0.12987677833E+03 -0.59022236577E+02 -0.76786549542E+02  0.16201165437E+03  0.00000000000E+00 0. -1.
         -2    1    5    5    0  503 -0.22622989281E+03 -0.22860471731E+03 -0.15591913514E+03  0.35742252011E+03  0.00000000000E+00 0.  1.
         -3    1    6    6    0  502  0.33617415116E+02  0.34070024701E+02 -0.68001140923E+00  0.47868148050E+02  0.00000000000E+00 0.  1.
<mgrwt>
<rscale>  0 0.13826162E+04</rscale>
<asrwt>0</asrwt>
<pdfrwt beam="1">  1        2 0.28002081E+00 0.13826162E+04</pdfrwt>
<pdfrwt beam="2">  1       -2 0.40394872E-01 0.13826162E+04</pdfrwt>
<totfact> 0.47547878E+01</totfact>
</mgrwt>
</event>
<event>
12    1  0.1472088E-007  0.3629958E+04  0.7818608E-02  0.8083664E-01
         -2   -1    0    0    0  501 -0.00000000000E+00  0.00000000000E+00  0.93635664914E+03  0.93635664914E+03  0.00000000000E+00 0.  1.
          2   -1    0    0  501    0  0.00000000000E+00 -0.00000000000E+00 -0.35180485455E+04  0.35180485455E+04  0.00000000000E+00 0. -1.
         23    2    1    2    0    0 -0.17846541915E+03  0.87698867711E+03  0.56392611001E+03  0.10618442528E+04  0.92420312223E+02 0.  0.
        254    2    1    2    0    0  0.17846541915E+03 -0.87698867711E+03 -0.31456180064E+04  0.33925609418E+04  0.90199670524E+03 0.  0.
        -24    2    4    4    0    0  0.31832171656E+03  0.45496576567E+02 -0.72116275333E+03  0.79356388272E+03  0.79178693158E+02 0.  0.
         24    2    4    4    0    0 -0.13985629741E+03 -0.92248525367E+03 -0.24244552530E+04  0.25989970591E+04  0.79142984535E+02 0.  0.
         13    1    3    3    0    0 -0.74845755635E+02  0.19473684246E+03  0.10988288495E+03  0.23579349727E+03  0.00000000000E+00 0. -1.
        -13    1    3    3    0    0 -0.10361966351E+03  0.68225183464E+03  0.45404322506E+03  0.82605075556E+03  0.00000000000E+00 0.  1.
          2    1    6    6  502    0  0.60235977839E+01 -0.10931255557E+02 -0.46258959801E+02  0.47913123883E+02  0.00000000000E+00 0. -1.
          1    1    5    5  503    0  0.17339671417E+02  0.17882275035E+02 -0.95887027081E+02  0.99069480304E+02  0.00000000000E+00 0. -1.
         -2    1    5    5    0  503  0.30098204514E+03  0.27614301532E+02 -0.62527572625E+03  0.69449440242E+03  0.00000000000E+00 0.  1.
         -1    1    6    6    0  502 -0.14587989519E+03 -0.91155399812E+03 -0.23781962932E+04  0.25510839352E+04  0.00000000000E+00 0.  1.
<mgrwt>
<rscale>  0 0.36299577E+04</rscale>
<asrwt>0</asrwt>
<pdfrwt beam="1">  1        2 0.54123824E+00 0.36299577E+04</pdfrwt>
<pdfrwt beam="2">  1       -2 0.14405487E+00 0.36299577E+04</pdfrwt>
<totfact> 0.21363028E-01</totfact>
</mgrwt>
</event>
<event>
12    1  0.1472088E-007  0.1526864E+04  0.7818608E-02  0.8866783E-01
         -2   -1    0    0    0  501 -0.00000000000E+00  0.00000000000E+00  0.68765462629E+03  0.68765462629E+03  0.00000000000E+00 0.  1.
          2   -1    0    0  501    0  0.00000000000E+00 -0.00000000000E+00 -0.84755927904E+03  0.84755927904E+03  0.00000000000E+00 0. -1.
         23    2    1    2    0    0 -0.25542970323E+02 -0.17908665627E+03  0.41045734309E+03  0.45840950941E+03  0.94549320629E+02 0.  0.
        254    2    1    2    0    0  0.25542970323E+02  0.17908665627E+03 -0.57036199584E+03  0.10768043959E+04  0.89524880731E+03 0.  0.
        -24    2    4    4    0    0 -0.58454111600E+02  0.46254038092E+02  0.23275712716E+03  0.25469412236E+03  0.71672146040E+02 0.  0.
         24    2    4    4    0    0  0.83997081923E+02  0.13283261817E+03 -0.80311912300E+03  0.82211027355E+03  0.78517271541E+02 0.  0.
         11    1    3    3    0    0 -0.33926727999E+02 -0.37802699606E+02  0.18803671515E+03  0.19477646987E+03  0.00000000000E+00 0.  1.
        -11    1    3    3    0    0  0.83837576756E+01 -0.14128395666E+03  0.22242062794E+03  0.26363303954E+03  0.00000000000E+00 0. -1.
          2    1    6    6  502    0  0.79005091154E+02  0.60285581268E+02 -0.37957177209E+03  0.39236575527E+03  0.00000000000E+00 0. -1.
          1    1    5    5  503    0  0.13820845919E+01 -0.31998159014E+01 -0.41345353141E+01  0.54077131845E+01  0.00000000000E+00 0. -1.
         -2    1    5    5    0  503 -0.59836196192E+02  0.49453853994E+02  0.23689166248E+03  0.24928640918E+03  0.00000000000E+00 0.  1.
         -1    1    6    6    0  502  0.49919907693E+01  0.72547036906E+02 -0.42354735091E+03  0.42974451829E+03  0.00000000000E+00 0.  1.
<mgrwt>
<rscale>  0 0.15268635E+04</rscale>
<asrwt>0</asrwt>
<pdfrwt beam="1">  1        2 0.13039374E+00 0.15268635E+04</pdfrwt>
<pdfrwt beam="2">  1       -2 0.10579302E+00 0.15268635E+04</pdfrwt>
<totfact> 0.22183613E+01</totfact>
</mgrwt>
</event>
<event>
12    1  0.1472088E-007  0.1323148E+04  0.7818608E-02  0.9011408E-01
          1   -1    0    0  501    0  0.00000000000E+00  0.00000000000E+00  0.10602257407E+04  0.10602257407E+04  0.00000000000E+00 0. -1.
         -1   -1    0    0    0  501 -0.00000000000E+00 -0.00000000000E+00 -0.41281776994E+03  0.41281776994E+03  0.00000000000E+00 0.  1.
         23    2    1    2    0    0 -0.88337283488E+02 -0.74700163175E+02 -0.19642791546E+03  0.23860183247E+03  0.70450822949E+02 0.  0.
        254    2    1    2    0    0  0.88337283488E+02  0.74700163175E+02  0.84383588619E+03  0.12344416781E+04  0.89353436634E+03 0.  0.
        -24    2    4    4    0    0  0.19785847695E+03  0.73450996502E+02 -0.12298611729E+03  0.25816308470E+03  0.83543805674E+02 0.  0.
         24    2    4    4    0    0 -0.10952119347E+03  0.12491666729E+01  0.96682200348E+03  0.97627859342E+03  0.79866471876E+02 0.  0.
         11    1    3    3    0    0 -0.61158298698E+01 -0.46380656946E+02 -0.51417701063E+02  0.69515096895E+02  0.00000000000E+00 0. -1.
        -11    1    3    3    0    0 -0.82221453618E+02 -0.28319506229E+02 -0.14501021440E+03  0.16908673558E+03  0.00000000000E+00 0.  1.
          2    1    6    6  502    0 -0.64131338355E+02 -0.38684851907E+02  0.50827846025E+03  0.51376681430E+03  0.00000000000E+00 0. -1.
          3    1    5    5  503    0  0.15649976097E+03  0.90924467262E+02 -0.10830627296E+03  0.21092577532E+03  0.00000000000E+00 0. -1.
         -4    1    5    5    0  503  0.41358715984E+02 -0.17473470760E+02 -0.14679844326E+02  0.47237309382E+02  0.00000000000E+00 0.  1.
         -1    1    6    6    0  502 -0.45389855111E+02  0.39934018579E+02  0.45854354323E+03  0.46251177912E+03  0.00000000000E+00 0.  1.
<mgrwt>
<rscale>  0 0.13231478E+04</rscale>
<asrwt>0</asrwt>
<pdfrwt beam="1">  1        1 0.16311165E+00 0.13231478E+04</pdfrwt>
<pdfrwt beam="2">  1       -1 0.63510427E-01 0.13231478E+04</pdfrwt>
<totfact> 0.33521698E+01</totfact>
</mgrwt>
</event>
<event>
12    1  0.1472088E-007  0.1245068E+04  0.7818608E-02  0.9074298E-01
          2   -1    0    0  501    0  0.00000000000E+00  0.00000000000E+00  0.14683597061E+04  0.14683597061E+04  0.00000000000E+00 0. -1.
         -2   -1    0    0    0  501 -0.00000000000E+00 -0.00000000000E+00 -0.26393318914E+03  0.26393318914E+03  0.00000000000E+00 0.  1.
         23    2    1    2    0    0 -0.16156639433E+03  0.14028383822E+03  0.55741010410E+03  0.60308118073E+03  0.84956643950E+02 0.  0.
        254    2    1    2    0    0  0.16156639433E+03 -0.14028383822E+03  0.64701641284E+03  0.11292117145E+04  0.90039191611E+03 0.  0.
        -24    2    4    4    0    0  0.11632904328E+03 -0.13557833712E+03  0.86753836043E+03  0.88938961077E+03  0.80480687855E+02 0.  0.
         24    2    4    4    0    0  0.45237351049E+02 -0.47055011043E+01 -0.22052194759E+03  0.23982210372E+03  0.82559992677E+02 0.  0.
         13    1    3    3    0    0 -0.50907734074E+01  0.45780246718E+02  0.87840171679E+02  0.99184891612E+02  0.00000000000E+00 0.  1.
        -13    1    3    3    0    0 -0.15647562092E+03  0.94503591505E+02  0.46956993243E+03  0.50389628912E+03  0.00000000000E+00 0. -1.
          4    1    6    6  502    0 -0.19413884397E+02  0.26974553480E+01 -0.16329739667E+02  0.25511479187E+02  0.00000000000E+00 0. -1.
          3    1    5    5  503    0  0.46346889966E+02 -0.47268314444E+02  0.16352735704E+03  0.17641860520E+03  0.00000000000E+00 0. -1.
         -4    1    5    5    0  503  0.69982153315E+02 -0.88310022675E+02  0.70401100339E+03  0.71297100557E+03  0.00000000000E+00 0.  1.
         -3    1    6    6    0  502  0.64651235446E+02 -0.74029564523E+01 -0.20419220792E+03  0.21431062453E+03  0.00000000000E+00 0.  1.
<mgrwt>
<rscale>  0 0.12450684E+04</rscale>
<asrwt>0</asrwt>
<pdfrwt beam="1">  1        2 0.22590149E+00 0.12450684E+04</pdfrwt>
<pdfrwt beam="2">  1       -2 0.40605107E-01 0.12450684E+04</pdfrwt>
<totfact> 0.74698965E+01</totfact>
</mgrwt>
</event>
<event>
12    1  0.1472088E-007  0.1295309E+04  0.7818608E-02  0.9033293E-01
          2   -1    0    0  501    0  0.00000000000E+00  0.00000000000E+00  0.24175909279E+04  0.24175909279E+04  0.00000000000E+00 0. -1.
         -2   -1    0    0    0  501 -0.00000000000E+00 -0.00000000000E+00 -0.17350189810E+03  0.17350189810E+03  0.00000000000E+00 0.  1.
         23    2    1    2    0    0  0.19344487111E+02  0.22285461190E+03  0.11460810699E+03  0.26765774266E+03  0.92017725420E+02 0.  0.
        254    2    1    2    0    0 -0.19344487111E+02 -0.22285461190E+03  0.21294809228E+04  0.23234350834E+04  0.90201064222E+03 0.  0.
        -24    2    4    4    0    0 -0.30627743369E+03  0.18886415226E+03  0.12946898125E+04  0.13460582199E+04  0.78584263137E+02 0.  0.
         24    2    4    4    0    0  0.28693294658E+03 -0.41171876416E+03  0.83479111031E+03  0.97737686343E+03  0.80910312803E+02 0.  0.
         13    1    3    3    0    0  0.29448546566E+02  0.22343644996E+03  0.12089096450E+03  0.25574536039E+03  0.00000000000E+00 0. -1.
        -13    1    3    3    0    0 -0.10104059454E+02 -0.58183805731E+00 -0.62828575025E+01  0.11912382271E+02  0.00000000000E+00 0.  1.
          2    1    6    6  502    0  0.41866366390E+02 -0.53350594864E+02  0.17375336508E+03  0.18651892795E+03  0.00000000000E+00 0. -1.
          1    1    5    5  503    0  0.32149232061E+01  0.10637086374E+02  0.35298379945E+02  0.37006201703E+02  0.00000000000E+00 0. -1.
         -2    1    5    5    0  503 -0.30949235690E+03  0.17822706588E+03  0.12593914326E+04  0.13090520182E+04  0.00000000000E+00 0.  1.
         -1    1    6    6    0  502  0.24506658019E+03 -0.35836816929E+03  0.66103774524E+03  0.79085793548E+03  0.00000000000E+00 0.  1.
<mgrwt>
<rscale>  0 0.12953094E+04</rscale>
<asrwt>0</asrwt>
<pdfrwt beam="1">  1        2 0.37193704E+00 0.12953094E+04</pdfrwt>
<pdfrwt beam="2">  1       -2 0.26692601E-01 0.12953094E+04</pdfrwt>
<totfact> 0.48673772E+01</totfact>
</mgrwt>
</event>
<event>
12    1  0.1472088E-007  0.1451104E+04  0.7818608E-02  0.8917635E-01
         -2   -1    0    0    0  501 -0.00000000000E+00  0.00000000000E+00  0.14838689643E+03  0.14838689643E+03  0.00000000000E+00 0.  1.
          2   -1    0    0  501    0  0.00000000000E+00 -0.00000000000E+00 -0.35476574732E+04  0.35476574732E+04  0.00000000000E+00 0. -1.
         23    2    1    2    0    0 -0.41719499468E+03  0.10300597419E+03 -0.12759065394E+04  0.13495744881E+04  0.93551630288E+02 0.  0.
        254    2    1    2    0    0  0.41719499468E+03 -0.10300597419E+03 -0.21233640374E+04  0.23464698814E+04  0.90143450959E+03 0.  0.
        -24    2    4    4    0    0  0.37214002877E+03 -0.16373128080E+03 -0.28498303304E+03  0.50451272724E+03  0.89563550025E+02 0.  0.
         24    2    4    4    0    0  0.45054965908E+02  0.60725306609E+02 -0.18383810043E+04  0.18419571542E+04  0.86278201774E+02 0.  0.
         13    1    3    3    0    0 -0.21283601277E+03  0.67468781168E+02 -0.52408024944E+03  0.56965894412E+03  0.00000000000E+00 0. -1.
        -13    1    3    3    0    0 -0.20435898191E+03  0.35537193027E+02 -0.75182628992E+03  0.77991554402E+03  0.00000000000E+00 0.  1.
          4    1    6    6  502    0  0.21942404324E+01  0.24119908280E+02 -0.13675333218E+04  0.13677477731E+04  0.00000000000E+00 0. -1.
          1    1    5    5  503    0  0.36775934903E+03 -0.14213138333E+03 -0.26930801661E+03  0.47746735672E+03  0.00000000000E+00 0. -1.
         -4    1    5    5    0  503  0.43806797414E+01 -0.21599897478E+02 -0.15675016439E+02  0.27045370517E+02  0.00000000000E+00 0.  1.
         -3    1    6    6    0  502  0.42860725475E+02  0.36605398328E+02 -0.47084768256E+03  0.47420938112E+03  0.00000000000E+00 0.  1.
<mgrwt>
<rscale>  0 0.14511042E+04</rscale>
<asrwt>0</asrwt>
<pdfrwt beam="1">  1        2 0.54579340E+00 0.14511042E+04</pdfrwt>
<pdfrwt beam="2">  1       -2 0.22828756E-01 0.14511042E+04</pdfrwt>
<totfact> 0.12536548E+01</totfact>
</mgrwt>
</event>
<event>
12    1  0.1472088E-007  0.1262691E+04  0.7818608E-02  0.9059686E-01
         -2   -1    0    0    0  501 -0.00000000000E+00  0.00000000000E+00  0.22030643843E+03  0.22030643843E+03  0.00000000000E+00 0.  1.
          2   -1    0    0  501    0  0.00000000000E+00 -0.00000000000E+00 -0.18092849343E+04  0.18092849343E+04  0.00000000000E+00 0. -1.
         23    2    1    2    0    0 -0.10590525388E+03 -0.71799963102E+02  0.38857138266E+02  0.16375278188E+03  0.94519515849E+02 0.  0.
        254    2    1    2    0    0  0.10590525388E+03  0.71799963102E+02 -0.16278356341E+04  0.18658385909E+04  0.90284751638E+03 0.  0.
        -24    2    4    4    0    0 -0.37131508561E+03  0.72964904322E+02 -0.45498376215E+03  0.59705874686E+03  0.79184299640E+02 0.  0.
         24    2    4    4    0    0  0.47722033949E+03 -0.11649412198E+01 -0.11728518720E+04  0.12687798440E+04  0.80499499375E+02 0.  0.
         11    1    3    3    0    0 -0.20393700252E+02 -0.70538344355E+02  0.21222585625E+02  0.76432710111E+02  0.00000000000E+00 0.  1.
        -11    1    3    3    0    0 -0.85511553630E+02 -0.12616187473E+01  0.17634552642E+02  0.87320071764E+02  0.00000000000E+00 0. -1.
          4    1    6    6  502    0  0.13318074756E+03  0.71749042481E+01 -0.24152284392E+03  0.27590192987E+03  0.00000000000E+00 0. -1.
          1    1    5    5  503    0 -0.18003930668E+03  0.71215013917E+02 -0.25695125989E+03  0.32172920308E+03  0.00000000000E+00 0. -1.
         -2    1    5    5    0  503 -0.19127577893E+03  0.17498904052E+01 -0.19803250226E+03  0.27532954377E+03  0.00000000000E+00 0.  1.
         -3    1    6    6    0  502  0.34403959193E+03 -0.83398454679E+01 -0.93132902807E+03  0.99287791413E+03  0.00000000000E+00 0.  1.
<mgrwt>
<rscale>  0 0.12626910E+04</rscale>
<asrwt>0</asrwt>
<pdfrwt beam="1">  1        2 0.27835152E+00 0.12626910E+04</pdfrwt>
<pdfrwt beam="2">  1       -2 0.33893300E-01 0.12626910E+04</pdfrwt>
<totfact> 0.68265268E+01</totfact>
</mgrwt>
</event>
<event>
12    1  0.1472088E-007  0.1315763E+04  0.7818608E-02  0.9017157E-01
         -1   -1    0    0    0  501 -0.00000000000E+00  0.00000000000E+00  0.72026488471E+03  0.72026488471E+03  0.00000000000E+00 0.  1.
          1   -1    0    0  501    0  0.00000000000E+00 -0.00000000000E+00 -0.60090129923E+03  0.60090129923E+03  0.00000000000E+00 0. -1.
         23    2    1    2    0    0 -0.72332756905E+02  0.64034467426E+02 -0.28603926226E+03  0.31478807918E+03  0.89110237920E+02 0.  0.
        254    2    1    2    0    0  0.72332756905E+02 -0.64034467426E+02  0.40540284774E+03  0.10063781048E+04  0.91603110211E+03 0.  0.
        -24    2    4    4    0    0  0.29297080948E+03 -0.34285549016E+03  0.44729943530E+03  0.63993212902E+03  0.77811069894E+02 0.  0.
         24    2    4    4    0    0 -0.22063805257E+03  0.27882102273E+03 -0.41896587559E+02  0.36644597573E+03  0.78134602605E+02 0.  0.
         13    1    3    3    0    0 -0.78870062559E+02  0.25890833081E+02 -0.13175927480E+03  0.15572838053E+03  0.00000000000E+00 0. -1.
        -13    1    3    3    0    0  0.65373056538E+01  0.38143634345E+02 -0.15427998746E+03  0.15905969866E+03  0.00000000000E+00 0.  1.
          2    1    6    6  502    0 -0.13703920815E+03  0.14696755494E+03 -0.58901439420E+02  0.20940054045E+03  0.00000000000E+00 0. -1.
          3    1    5    5  503    0  0.59760692110E+02 -0.82119955691E+02  0.59665201955E+02  0.11779203610E+03  0.00000000000E+00 0. -1.
         -4    1    5    5    0  503  0.23321011737E+03 -0.26073553446E+03  0.38763423335E+03  0.52214009292E+03  0.00000000000E+00 0.  1.
         -1    1    6    6    0  502 -0.83598844426E+02  0.13185346779E+03  0.17004851861E+02  0.15704543529E+03  0.00000000000E+00 0.  1.
<mgrwt>
<rscale>  0 0.13157631E+04</rscale>
<asrwt>0</asrwt>
<pdfrwt beam="1">  1        1 0.92446354E-01 0.13157631E+04</pdfrwt>
<pdfrwt beam="2">  1       -1 0.11080998E+00 0.13157631E+04</pdfrwt>
<totfact> 0.25165369E+01</totfact>
</mgrwt>
</event>
<event>
12    1  0.1472088E-007  0.1904443E+04  0.7818608E-02  0.8652648E-01
         -2   -1    0    0    0  501 -0.00000000000E+00  0.00000000000E+00  0.55281281473E+03  0.55281281473E+03  0.00000000000E+00 0.  1.
          2   -1    0    0  501    0  0.00000000000E+00 -0.00000000000E+00 -0.16402036315E+04  0.16402036315E+04  0.00000000000E+00 0. -1.
         23    2    1    2    0    0  0.29310114244E+03  0.16236584392E+03 -0.11765376540E+04  0.12267323071E+04  0.91434977086E+02 0.  0.
        254    2    1    2    0    0 -0.29310114244E+03 -0.16236584392E+03  0.89146837205E+02  0.96628413915E+03  0.90193510411E+03 0.  0.
        -24    2    4    4    0    0 -0.52368422746E+03 -0.35311226525E+03  0.14266839537E+03  0.65245162558E+03  0.80033809897E+02 0.  0.
         24    2    4    4    0    0  0.23058308502E+03  0.19074642133E+03 -0.53521558169E+02  0.31383251357E+03  0.77932875222E+02 0.  0.
         11    1    3    3    0    0  0.18230496166E+03  0.14301993207E+03 -0.86565638523E+03  0.89613100454E+03  0.00000000000E+00 0. -1.
        -11    1    3    3    0    0  0.11079618078E+03  0.19345911856E+02 -0.31088126876E+03  0.33060130255E+03  0.00000000000E+00 0.  1.
          4    1    6    6  502    0  0.22581617492E+03  0.19709496249E+03 -0.46665996072E+02  0.30334317906E+03  0.00000000000E+00 0. -1.
          3    1    5    5  503    0 -0.25006731681E+03 -0.20743901773E+03  0.48656798094E+02  0.32853020107E+03  0.00000000000E+00 0. -1.
         -4    1    5    5    0  503 -0.27361691065E+03 -0.14567324752E+03  0.94011597280E+02  0.32392142451E+03  0.00000000000E+00 0.  1.
         -3    1    6    6    0  502  0.47669100977E+01 -0.63485411629E+01 -0.68555620964E+01  0.10489334509E+02  0.00000000000E+00 0.  1.
<mgrwt>
<rscale>  0 0.19044428E+04</rscale>
<asrwt>0</asrwt>
<pdfrwt beam="1">  1        2 0.25233901E+00 0.19044428E+04</pdfrwt>
<pdfrwt beam="2">  1       -2 0.85048128E-01 0.19044428E+04</pdfrwt>
<totfact> 0.11929889E+01</totfact>
</mgrwt>
</event>
<event>
12    1  0.1472088E-007  0.1953077E+04  0.7818608E-02  0.8628879E-01
         -2   -1    0    0    0  501 -0.00000000000E+00  0.00000000000E+00  0.97235563981E+03  0.97235563981E+03  0.00000000000E+00 0.  1.
          2   -1    0    0  501    0  0.00000000000E+00 -0.00000000000E+00 -0.98073908662E+03  0.98073908662E+03  0.00000000000E+00 0. -1.
         23    2    1    2    0    0 -0.69017136924E+03  0.29139543683E+03 -0.16103966406E+03  0.77187310755E+03  0.92771230617E+02 0.  0.
        254    2    1    2    0    0  0.69017136924E+03 -0.29139543683E+03  0.15265621725E+03  0.11812216189E+04  0.90040700393E+03 0.  0.
        -24    2    4    4    0    0  0.82329430752E+03 -0.30427963492E+03  0.33373436554E+03  0.94247638358E+03  0.80520145544E+02 0.  0.
         24    2    4    4    0    0 -0.13312293828E+03  0.12884198088E+02 -0.18107814829E+03  0.23874523530E+03  0.79512718073E+02 0.  0.
         13    1    3    3    0    0 -0.39779589600E+03  0.21705189416E+03 -0.92383054757E+02  0.46247997626E+03  0.00000000000E+00 0.  1.
        -13    1    3    3    0    0 -0.29237547324E+03  0.74343542677E+02 -0.68656609305E+02  0.30939313130E+03  0.00000000000E+00 0. -1.
          4    1    6    6  502    0  0.82810891560E+01 -0.31296189975E+01 -0.54771650986E+00  0.88696643710E+01  0.00000000000E+00 0. -1.
          1    1    5    5  503    0  0.25284007472E+03 -0.57137478617E+02  0.83745896043E+02  0.27240809450E+03  0.00000000000E+00 0. -1.
         -2    1    5    5    0  503  0.57045423280E+03 -0.24714215630E+03  0.24998846950E+03  0.67006828908E+03  0.00000000000E+00 0.  1.
         -3    1    6    6    0  502 -0.14140402744E+03  0.16013817085E+02 -0.18053043178E+03  0.22987557093E+03  0.00000000000E+00 0.  1.
<mgrwt>
<rscale>  0 0.19530767E+04</rscale>
<asrwt>0</asrwt>
<pdfrwt beam="1">  1        2 0.15088293E+00 0.19530767E+04</pdfrwt>
<pdfrwt beam="2">  1       -2 0.14959318E+00 0.19530767E+04</pdfrwt>
<totfact> 0.72942870E+00</totfact>
</mgrwt>
</event>
<event>
12    1  0.1472088E-007  0.3043740E+04  0.7818608E-02  0.8231350E-01
         -2   -1    0    0    0  501 -0.00000000000E+00  0.00000000000E+00  0.13561563534E+04  0.13561563534E+04  0.00000000000E+00 0.  1.
          2   -1    0    0  501    0  0.00000000000E+00 -0.00000000000E+00 -0.17078327716E+04  0.17078327716E+04  0.00000000000E+00 0. -1.
         23    2    1    2    0    0 -0.67170897630E+03  0.11163529839E+04 -0.64458241332E+03  0.14564607887E+04  0.91403544724E+02 0.  0.
        254    2    1    2    0    0  0.67170897630E+03 -0.11163529839E+04  0.29290599514E+03  0.16075283363E+04  0.89493938157E+03 0.  0.
        -24    2    4    4    0    0  0.25769174712E+02 -0.12522870840E+03  0.38967097744E+03  0.41788249870E+03  0.80224885734E+02 0.  0.
         24    2    4    4    0    0  0.64593980158E+03 -0.99112427547E+03 -0.96764982294E+02  0.11896458376E+04  0.79549987397E+02 0.  0.
         11    1    3    3    0    0 -0.29576879259E+03  0.53105938612E+03 -0.34617242856E+03  0.69952741229E+03  0.00000000000E+00 0. -1.
        -11    1    3    3    0    0 -0.37594018371E+03  0.58529359775E+03 -0.29840998476E+03  0.75693337639E+03  0.00000000000E+00 0.  1.
          4    1    6    6  502    0  0.56278579272E+02 -0.12492190275E+03  0.30214600437E+01  0.13704703387E+03  0.00000000000E+00 0. -1.
          3    1    5    5  503    0 -0.28621380343E+02 -0.56058513260E+02  0.16136349118E+03  0.17320484002E+03  0.00000000000E+00 0. -1.
         -4    1    5    5    0  503  0.54390555056E+02 -0.69170195137E+02  0.22830748626E+03  0.24467765868E+03  0.00000000000E+00 0.  1.
         -3    1    6    6    0  502  0.58966122231E+03 -0.86620237272E+03 -0.99786442338E+02  0.10525988038E+04  0.00000000000E+00 0.  1.
<mgrwt>
<rscale>  0 0.30437400E+04</rscale>
<asrwt>0</asrwt>
<pdfrwt beam="1">  1        2 0.26274350E+00 0.30437400E+04</pdfrwt>
<pdfrwt beam="2">  1       -2 0.20863944E+00 0.30437400E+04</pdfrwt>
<totfact> 0.96771579E-01</totfact>
</mgrwt>
</event>
<event>
12    1  0.1472088E-007  0.1942089E+04  0.7818608E-02  0.8634185E-01
          1   -1    0    0  501    0  0.00000000000E+00  0.00000000000E+00  0.23876114650E+04  0.23876114650E+04  0.00000000000E+00 0. -1.
         -1   -1    0    0    0  501 -0.00000000000E+00 -0.00000000000E+00 -0.39492516290E+03  0.39492516290E+03  0.00000000000E+00 0.  1.
         23    2    1    2    0    0  0.23381063478E+03  0.68153278379E+03  0.45969314444E+03  0.86002496071E+03  0.95764281811E+02 0.  0.
        254    2    1    2    0    0 -0.23381063478E+03 -0.68153278379E+03  0.15329931577E+04  0.19225116672E+04  0.90930123766E+03 0.  0.
        -24    2    4    4    0    0  0.14708754934E+03  0.17209239070E+02 -0.25112233548E+02  0.17113637977E+03  0.82012993646E+02 0.  0.
         24    2    4    4    0    0 -0.38089818413E+03 -0.69874202286E+03  0.15581053912E+04  0.17513752875E+04  0.79367160416E+02 0.  0.
         13    1    3    3    0    0  0.21277173756E+03  0.64659124386E+03  0.45545557662E+03  0.81901882226E+03  0.00000000000E+00 0.  1.
        -13    1    3    3    0    0  0.21038897226E+02  0.34941539935E+02  0.42375678199E+01  0.41006138449E+02  0.00000000000E+00 0. -1.
          4    1    6    6  502    0 -0.67384037358E+02 -0.16879699436E+03  0.41296911837E+03  0.45119455507E+03  0.00000000000E+00 0. -1.
          3    1    5    5  503    0  0.35629368471E+02  0.21326987165E+02 -0.41143662240E+02  0.58455908356E+02  0.00000000000E+00 0. -1.
         -4    1    5    5    0  503  0.11145818087E+03 -0.41177480956E+01  0.16031428693E+02  0.11268047142E+03  0.00000000000E+00 0.  1.
         -3    1    6    6    0  502 -0.31351414677E+03 -0.52994502850E+03  0.11451362729E+04  0.13001807324E+04  0.00000000000E+00 0.  1.
<mgrwt>
<rscale>  0 0.19420894E+04</rscale>
<asrwt>0</asrwt>
<pdfrwt beam="1">  1        1 0.36732483E+00 0.19420894E+04</pdfrwt>
<pdfrwt beam="2">  1       -1 0.60757719E-01 0.19420894E+04</pdfrwt>
<totfact> 0.41513839E+00</totfact>
</mgrwt>
</event>
<event>
12    1  0.1472088E-007  0.1938987E+04  0.7818608E-02  0.8635690E-01
          2   -1    0    0  501    0  0.00000000000E+00  0.00000000000E+00  0.26674451232E+04  0.26674451232E+04  0.00000000000E+00 0.  1.
         -2   -1    0    0    0  501 -0.00000000000E+00 -0.00000000000E+00 -0.35236623261E+03  0.35236623261E+03  0.00000000000E+00 0. -1.
         23    2    1    2    0    0 -0.37004613419E+03  0.28943984735E+03 -0.20934972725E+02  0.48147458033E+03  0.10329536175E+03 0.  0.
        254    2    1    2    0    0  0.37004613419E+03 -0.28943984735E+03  0.23360138634E+04  0.25383367755E+04  0.87491899594E+03 0.  0.
        -24    2    4    4    0    0  0.12826952422E+03 -0.15850822368E+03  0.39527688678E+02  0.22413190454E+03  0.84230307169E+02 0.  0.
         24    2    4    4    0    0  0.24177660998E+03 -0.13093162367E+03  0.22964861747E+04  0.23142048710E+04  0.78079543439E+02 0.  0.
         11    1    3    3    0    0 -0.94604548493E+02  0.24723257200E+02 -0.18079787315E+02  0.99439120831E+02  0.00000000000E+00 0.  1.
        -11    1    3    3    0    0 -0.27544158570E+03  0.26471659015E+03 -0.28551854099E+01  0.38203545950E+03  0.00000000000E+00 0. -1.
          2    1    6    6  502    0  0.22785972937E+03 -0.14146635243E+03  0.21739558812E+04  0.21904376180E+04  0.00000000000E+00 0. -1.
          1    1    5    5  503    0  0.97876200788E+02 -0.13401775626E+03 -0.35624675026E+01  0.16599156860E+03  0.00000000000E+00 0. -1.
         -4    1    5    5    0  503  0.30393323427E+02 -0.24490467422E+02  0.43090156180E+02  0.58140335939E+02  0.00000000000E+00 0.  1.
         -1    1    6    6    0  502  0.13916880609E+02  0.10534728760E+02  0.12253029348E+03  0.12376725293E+03  0.00000000000E+00 0.  1.
<mgrwt>
<rscale>  0 0.19389869E+04</rscale>
<asrwt>0</asrwt>
<pdfrwt beam="1">  1        2 0.41037616E+00 0.19389869E+04</pdfrwt>
<pdfrwt beam="2">  1       -2 0.54210191E-01 0.19389869E+04</pdfrwt>
<totfact> 0.83159952E+00</totfact>
</mgrwt>
</event>
<event>
12    1  0.1472088E-007  0.1838656E+04  0.7818608E-02  0.8686008E-01
          1   -1    0    0  501    0  0.00000000000E+00  0.00000000000E+00  0.16291627763E+04  0.16291627763E+04  0.00000000000E+00 0. -1.
         -1   -1    0    0    0  501 -0.00000000000E+00 -0.00000000000E+00 -0.51877212243E+03  0.51877212243E+03  0.00000000000E+00 0.  1.
         23    2    1    2    0    0  0.39984275667E+02 -0.13040199306E+03 -0.37781929940E+03  0.41176654182E+03  0.90558488696E+02 0.  0.
        254    2    1    2    0    0 -0.39984275667E+02  0.13040199306E+03  0.14882099532E+04  0.17361683569E+04  0.88369014728E+03 0.  0.
        -24    2    4    4    0    0  0.26965287609E+02 -0.21271305177E+03  0.13191465715E+04  0.13391032351E+04  0.84117940560E+02 0.  0.
         24    2    4    4    0    0 -0.66949563276E+02  0.34311504482E+03  0.16906338171E+03  0.39706512179E+03  0.82874036321E+02 0.  0.
         11    1    3    3    0    0  0.22332819204E+02  0.72081858248E+01 -0.76979648718E+02  0.80477195982E+02  0.00000000000E+00 0. -1.
        -11    1    3    3    0    0  0.17651456463E+02 -0.13761017888E+03 -0.30083965068E+03  0.33128934584E+03  0.00000000000E+00 0.  1.
          4    1    6    6  502    0  0.39834788826E+01  0.12446399142E+03  0.91254045591E+02  0.15438411220E+03  0.00000000000E+00 0. -1.
          3    1    5    5  503    0 -0.21106841567E+02 -0.72715332596E+02  0.30749044064E+03  0.31667552706E+03  0.00000000000E+00 0. -1.
         -4    1    5    5    0  503  0.48072129176E+02 -0.13999771917E+03  0.10116561309E+04  0.10224277080E+04  0.00000000000E+00 0.  1.
         -3    1    6    6    0  502 -0.70933042158E+02  0.21865105341E+03  0.77809336121E+02  0.24268100959E+03  0.00000000000E+00 0.  1.
<mgrwt>
<rscale>  0 0.18386563E+04</rscale>
<asrwt>0</asrwt>
<pdfrwt beam="1">  1        1 0.25064042E+00 0.18386563E+04</pdfrwt>
<pdfrwt beam="2">  1       -1 0.79811097E-01 0.18386563E+04</pdfrwt>
<totfact> 0.78565363E+00</totfact>
</mgrwt>
</event>
<event>
12    1  0.1472088E-007  0.2711050E+04  0.7818608E-02  0.8331429E-01
          2   -1    0    0  501    0  0.00000000000E+00  0.00000000000E+00  0.23266543057E+04  0.23266543057E+04  0.00000000000E+00 0. -1.
         -2   -1    0    0    0  501 -0.00000000000E+00 -0.00000000000E+00 -0.78973819963E+03  0.78973819963E+03  0.00000000000E+00 0.  1.
         23    2    1    2    0    0 -0.18294412626E+03 -0.11577459139E+04  0.94256496166E+03  0.15068791157E+04  0.91715908358E+02 0.  0.
        254    2    1    2    0    0  0.18294412626E+03  0.11577459139E+04  0.59435114439E+03  0.16095133896E+04  0.92921252367E+03 0.  0.
        -24    2    4    4    0    0 -0.34319250397E+03  0.34465279118E+03  0.49354130814E+02  0.49538959534E+03  0.80052355967E+02 0.  0.
         24    2    4    4    0    0  0.52613663023E+03  0.81309312271E+03  0.54499701357E+03  0.11141237943E+04  0.79434906459E+02 0.  0.
         13    1    3    3    0    0 -0.44002092295E+02 -0.18395415856E+03  0.19254085553E+03  0.26990238536E+03  0.00000000000E+00 0. -1.
        -13    1    3    3    0    0 -0.13894203397E+03 -0.97379175533E+03  0.75002410614E+03  0.12369767303E+04  0.00000000000E+00 0.  1.
          2    1    6    6  502    0  0.23624927149E+02  0.21405471741E+02  0.32423041027E+02  0.45470704775E+02  0.00000000000E+00 0. -1.
          3    1    5    5  503    0 -0.12140130840E+03  0.11463708496E+03  0.55039498099E+02  0.17581036739E+03  0.00000000000E+00 0. -1.
         -4    1    5    5    0  503 -0.22179119557E+03  0.23001570622E+03 -0.56853672852E+01  0.31957922795E+03  0.00000000000E+00 0.  1.
         -1    1    6    6    0  502  0.50251170308E+03  0.79168765097E+03  0.51257397255E+03  0.10686530895E+04  0.00000000000E+00 0.  1.
<mgrwt>
<rscale>  0 0.27110498E+04</rscale>
<asrwt>0</asrwt>
<pdfrwt beam="1">  1        2 0.35794681E+00 0.27110498E+04</pdfrwt>
<pdfrwt beam="2">  1       -2 0.12149819E+00 0.27110498E+04</pdfrwt>
<totfact> 0.19753870E+00</totfact>
</mgrwt>
</event>
<event>
12    1  0.1472088E-007  0.3289832E+04  0.7818608E-02  0.8165488E-01
          2   -1    0    0  501    0  0.00000000000E+00  0.00000000000E+00  0.12351489442E+04  0.12351489442E+04  0.00000000000E+00 0. -1.
         -2   -1    0    0    0  501 -0.00000000000E+00 -0.00000000000E+00 -0.21906249069E+04  0.21906249069E+04  0.00000000000E+00 0.  1.
         23    2    1    2    0    0  0.10308935429E+04  0.54091690104E+03 -0.14528501305E+04  0.18639974633E+04  0.91544801584E+02 0.  0.
        254    2    1    2    0    0 -0.10308935429E+04 -0.54091690104E+03  0.49737416783E+03  0.15617763879E+04  0.91456647233E+03 0.  0.
        -24    2    4    4    0    0 -0.64365592817E+03 -0.13374406888E+03 -0.17192920272E+03  0.68407373871E+03  0.78846682950E+02 0.  0.
         24    2    4    4    0    0 -0.38723761474E+03 -0.40717283217E+03  0.66930337055E+03  0.87770264919E+03  0.81561345256E+02 0.  0.
         13    1    3    3    0    0  0.66652656860E+03  0.32266747891E+03 -0.98146147548E+03  0.12294871274E+04  0.00000000000E+00 0.  1.
        -13    1    3    3    0    0  0.36436697431E+03  0.21824942213E+03 -0.47138865503E+03  0.63451033587E+03  0.00000000000E+00 0. -1.
          4    1    6    6  502    0 -0.42482969758E+02 -0.31278654135E+02  0.10191475939E+03  0.11475964058E+03  0.00000000000E+00 0. -1.
          1    1    5    5  503    0 -0.13293714489E+03 -0.59736989993E+02 -0.29088297608E+02  0.14861669329E+03  0.00000000000E+00 0. -1.
         -2    1    5    5    0  503 -0.51071878328E+03 -0.74007078885E+02 -0.14284090511E+03  0.53545704542E+03  0.00000000000E+00 0.  1.
         -3    1    6    6    0  502 -0.34475464498E+03 -0.37589417803E+03  0.56738861116E+03  0.76294300861E+03  0.00000000000E+00 0.  1.
<mgrwt>
<rscale>  0 0.32898316E+04</rscale>
<asrwt>0</asrwt>
<pdfrwt beam="1">  1        2 0.19002291E+00 0.32898316E+04</pdfrwt>
<pdfrwt beam="2">  1       -2 0.33701922E+00 0.32898316E+04</pdfrwt>
<totfact> 0.28309159E-01</totfact>
</mgrwt>
</event>
<event>
12    1  0.1472088E-007  0.1250170E+04  0.7818608E-02  0.9070042E-01
         -1   -1    0    0    0  501 -0.00000000000E+00  0.00000000000E+00  0.47270907678E+03  0.47270907678E+03  0.00000000000E+00 0.  1.
          1   -1    0    0  501    0  0.00000000000E+00 -0.00000000000E+00 -0.82657912172E+03  0.82657912172E+03  0.00000000000E+00 0. -1.
         23    2    1    2    0    0 -0.69951856442E+02 -0.75407253821E+02  0.19343733636E+03  0.23725966671E+03  0.91074860422E+02 0.  0.
        254    2    1    2    0    0  0.69951856442E+02  0.75407253821E+02 -0.54730738129E+03  0.10620285318E+04  0.90431173639E+03 0.  0.
        -24    2    4    4    0    0  0.41601591552E+03 -0.82911915829E+02 -0.55024145457E+02  0.43468481524E+03  0.77327900981E+02 0.  0.
         24    2    4    4    0    0 -0.34606405907E+03  0.15831916965E+03 -0.49228323584E+03  0.62734371655E+03  0.79950371765E+02 0.  0.
         13    1    3    3    0    0 -0.32065229845E+02 -0.72674301153E+02  0.18037561888E+03  0.19709159520E+03  0.00000000000E+00 0.  1.
        -13    1    3    3    0    0 -0.37886626597E+02 -0.27329526681E+01  0.13061717482E+02  0.40168071509E+02  0.00000000000E+00 0. -1.
          2    1    6    6  502    0 -0.27869716436E+03  0.15132138740E+03 -0.36790689676E+03  0.48572189202E+03  0.00000000000E+00 0. -1.
          3    1    5    5  503    0  0.40660329112E+03 -0.83270724559E+02 -0.65960511793E+02  0.42025116184E+03  0.00000000000E+00 0. -1.
         -2    1    5    5    0  503  0.94126243988E+01  0.35880873034E+00  0.10936366336E+02  0.14433653398E+02  0.00000000000E+00 0.  1.
         -1    1    6    6    0  502 -0.67366894717E+02  0.69977822489E+01 -0.12437633907E+03  0.14162182452E+03  0.00000000000E+00 0.  1.
<mgrwt>
<rscale>  0 0.12501703E+04</rscale>
<asrwt>0</asrwt>
<pdfrwt beam="1">  1        1 0.12716602E+00 0.12501703E+04</pdfrwt>
<pdfrwt beam="2">  1       -1 0.72724474E-01 0.12501703E+04</pdfrwt>
<totfact> 0.39438331E+01</totfact>
</mgrwt>
</event>
<event>
12    1  0.1472088E-007  0.1256185E+04  0.7818608E-02  0.9065051E-01
         -2   -1    0    0    0  501 -0.00000000000E+00  0.00000000000E+00  0.34623681908E+03  0.34623681908E+03  0.00000000000E+00 0.  1.
          2   -1    0    0  501    0  0.00000000000E+00 -0.00000000000E+00 -0.11393939269E+04  0.11393939269E+04  0.00000000000E+00 0. -1.
         23    2    1    2    0    0 -0.75096774765E+02  0.14291842751E+03 -0.50268557393E+03  0.53577250536E+03  0.91072436892E+02 0.  0.
        254    2    1    2    0    0  0.75096774765E+02 -0.14291842751E+03 -0.29047153388E+03  0.94985824061E+03  0.88982681616E+03 0.  0.
        -24    2    4    4    0    0  0.14752035513E+02 -0.43511044337E+03 -0.42455928272E+03  0.61351188164E+03  0.81286677163E+02 0.  0.
         24    2    4    4    0    0  0.60344739253E+02  0.29219201586E+03  0.13408774884E+03  0.33634635897E+03  0.78305089994E+02 0.  0.
         13    1    3    3    0    0 -0.42821263274E+02  0.15716975211E+02 -0.21177293588E+03  0.21662977696E+03  0.00000000000E+00 0.  1.
        -13    1    3    3    0    0 -0.32275511491E+02  0.12720145230E+03 -0.29091263806E+03  0.31914272840E+03  0.00000000000E+00 0. -1.
          2    1    6    6  502    0 -0.15940096864E+02  0.18905826347E+02  0.10910725723E+02  0.27028889982E+02  0.00000000000E+00 0. -1.
          1    1    5    5  503    0  0.23736048154E+02 -0.34883385021E+02 -0.33455780986E+02  0.53847375181E+02  0.00000000000E+00 0. -1.
         -2    1    5    5    0  503 -0.89840126411E+01 -0.40022705835E+03 -0.39110350173E+03  0.55966450646E+03  0.00000000000E+00 0.  1.
         -1    1    6    6    0  502  0.76284836117E+02  0.27328618951E+03  0.12317702311E+03  0.30931746899E+03  0.00000000000E+00 0.  1.
<mgrwt>
<rscale>  0 0.12561849E+04</rscale>
<asrwt>0</asrwt>
<pdfrwt beam="1">  1        2 0.17529137E+00 0.12561849E+04</pdfrwt>
<pdfrwt beam="2">  1       -2 0.53267204E-01 0.12561849E+04</pdfrwt>
<totfact> 0.67298266E+01</totfact>
</mgrwt>
</event>
<event>
12    1  0.1472088E-007  0.1240003E+04  0.7818608E-02  0.9078545E-01
          2   -1    0    0  501    0  0.00000000000E+00  0.00000000000E+00  0.52804775928E+03  0.52804775928E+03  0.00000000000E+00 0. -1.
         -2   -1    0    0    0  501 -0.00000000000E+00 -0.00000000000E+00 -0.72796800084E+03  0.72796800084E+03  0.00000000000E+00 0.  1.
         23    2    1    2    0    0 -0.28366406538E+03  0.31768508229E+02 -0.56704670582E+02  0.30423566548E+03  0.88709528115E+02 0.  0.
        254    2    1    2    0    0  0.28366406538E+03 -0.31768508229E+02 -0.14321557098E+03  0.95178009464E+03  0.89660476726E+03 0.  0.
        -24    2    4    4    0    0  0.18002818614E+03 -0.94743815599E+02  0.36316828024E+03  0.42439669633E+03  0.82672956168E+02 0.  0.
         24    2    4    4    0    0  0.10363587925E+03  0.62975307370E+02 -0.50638385122E+03  0.52738339831E+03  0.83680100604E+02 0.  0.
         13    1    3    3    0    0 -0.18840675417E+03  0.58498377268E+02 -0.18373132338E+02  0.19813312987E+03  0.00000000000E+00 0. -1.
        -13    1    3    3    0    0 -0.95257311209E+02 -0.26729869039E+02 -0.38331538245E+02  0.10610253561E+03  0.00000000000E+00 0.  1.
          2    1    6    6  502    0  0.11171741283E+03  0.47629674061E+02 -0.48434279231E+03  0.49933686690E+03  0.00000000000E+00 0. -1.
          3    1    5    5  503    0  0.17812914920E+03 -0.10635824795E+03  0.34864662245E+03  0.40570498893E+03  0.00000000000E+00 0. -1.
         -4    1    5    5    0  503  0.18990369360E+01  0.11614432352E+02  0.14521657794E+02  0.18691707392E+02  0.00000000000E+00 0.  1.
         -1    1    6    6    0  502 -0.80815335819E+01  0.15345633309E+02 -0.22041058907E+02  0.28046531416E+02  0.00000000000E+00 0.  1.
<mgrwt>
<rscale>  0 0.12400030E+04</rscale>
<asrwt>0</asrwt>
<pdfrwt beam="1">  1        2 0.81238117E-01 0.12400030E+04</pdfrwt>
<pdfrwt beam="2">  1       -2 0.11199508E+00 0.12400030E+04</pdfrwt>
<totfact> 0.35755815E+01</totfact>
</mgrwt>
</event>
<event>
12    1  0.1472088E-007  0.1928177E+04  0.7818608E-02  0.8640957E-01
          1   -1    0    0  501    0  0.00000000000E+00  0.00000000000E+00  0.92206631908E+03  0.92206631908E+03  0.00000000000E+00 0. -1.
         -1   -1    0    0    0  501 -0.00000000000E+00 -0.00000000000E+00 -0.10080258101E+04  0.10080258101E+04  0.00000000000E+00 0.  1.
         23    2    1    2    0    0 -0.35499714445E+03 -0.42024176163E+03  0.48396450214E+03  0.73831191913E+03  0.90866604444E+02 0.  0.
        254    2    1    2    0    0  0.35499714445E+03  0.42024176163E+03 -0.56992399312E+03  0.11917802100E+04  0.89044966184E+03 0.  0.
        -24    2    4    4    0    0  0.15538578676E+03  0.54146165132E+03 -0.67410466530E+00  0.57002302348E+03  0.87179873218E+02 0.  0.
         24    2    4    4    0    0  0.19961135769E+03 -0.12121988969E+03 -0.56924988846E+03  0.62175718655E+03  0.89429344957E+02 0.  0.
         11    1    3    3    0    0 -0.23653862002E+02 -0.54838438204E+02  0.85078681579E+02  0.10394778281E+03  0.00000000000E+00 0. -1.
        -11    1    3    3    0    0 -0.33134328245E+03 -0.36540332343E+03  0.39888582056E+03  0.63436413631E+03  0.00000000000E+00 0.  1.
          4    1    6    6  502    0  0.30649129654E+02 -0.69589687936E+01 -0.17571716579E+03  0.17850579472E+03  0.00000000000E+00 0. -1.
          3    1    5    5  503    0  0.12000966213E+03  0.27763835754E+03  0.19368546746E+02  0.30308499994E+03  0.00000000000E+00 0. -1.
         -4    1    5    5    0  503  0.35376124630E+02  0.26382329378E+03 -0.20042651411E+02  0.26693802354E+03  0.00000000000E+00 0.  1.
         -3    1    6    6    0  502  0.16896222804E+03 -0.11426092090E+03 -0.39353272266E+03  0.44325139182E+03  0.00000000000E+00 0.  1.
<mgrwt>
<rscale>  0 0.19281770E+04</rscale>
<asrwt>0</asrwt>
<pdfrwt beam="1">  1        1 0.14185636E+00 0.19281770E+04</pdfrwt>
<pdfrwt beam="2">  1       -1 0.15508089E+00 0.19281770E+04</pdfrwt>
<totfact> 0.51926940E+00</totfact>
</mgrwt>
</event>
<event>
12    1  0.1472088E-007  0.1144661E+04  0.7818608E-02  0.9162723E-01
         -1   -1    0    0    0  501 -0.00000000000E+00  0.00000000000E+00  0.17902476984E+03  0.17902476984E+03  0.00000000000E+00 0.  1.
          1   -1    0    0  501    0  0.00000000000E+00 -0.00000000000E+00 -0.18297023404E+04  0.18297023404E+04  0.00000000000E+00 0. -1.
         23    2    1    2    0    0 -0.82951872875E+02 -0.32699555473E+02 -0.15627425714E+02  0.14552827879E+03  0.11394730954E+03 0.  0.
        254    2    1    2    0    0  0.82951872875E+02  0.32699555473E+02 -0.16350501449E+04  0.18631988315E+04  0.88891542638E+03 0.  0.
        -24    2    4    4    0    0 -0.14423556862E+03  0.40278806459E+03 -0.98717794685E+03  0.10788816810E+04  0.80145233906E+02 0.  0.
         24    2    4    4    0    0  0.22718744150E+03 -0.37008850912E+03 -0.64787219800E+03  0.78431715051E+03  0.82676293409E+02 0.  0.
         13    1    3    3    0    0  0.19015019864E+02  0.17903090923E+02  0.11454593732E+02  0.28518403928E+02  0.00000000000E+00 0. -1.
        -13    1    3    3    0    0 -0.10196689274E+03 -0.50602646396E+02 -0.27082019446E+02  0.11700987486E+03  0.00000000000E+00 0.  1.
          2    1    6    6  502    0  0.22485347433E+03 -0.36949625105E+03 -0.65022695679E+03  0.78094920436E+03  0.00000000000E+00 0. -1.
          1    1    5    5  503    0 -0.15409585910E+03  0.36454128107E+03 -0.89926017040E+03  0.98249922822E+03  0.00000000000E+00 0. -1.
         -2    1    5    5    0  503  0.98602904772E+01  0.38246783523E+02 -0.87917776451E+02  0.96382452730E+02  0.00000000000E+00 0.  1.
         -1    1    6    6    0  502  0.23339671634E+01 -0.59225807084E+00  0.23547587871E+01  0.33679461527E+01  0.00000000000E+00 0.  1.
<mgrwt>
<rscale>  0 0.11446607E+04</rscale>
<asrwt>0</asrwt>
<pdfrwt beam="1">  1        1 0.28149266E+00 0.11446607E+04</pdfrwt>
<pdfrwt beam="2">  1       -1 0.27542273E-01 0.11446607E+04</pdfrwt>
<totfact> 0.45835464E+01</totfact>
</mgrwt>
</event>
<event>
12    1  0.1472088E-007  0.1965133E+04  0.7818608E-02  0.8623098E-01
         -2   -1    0    0    0  501 -0.00000000000E+00  0.00000000000E+00  0.37347662130E+03  0.37347662130E+03  0.00000000000E+00 0.  1.
          2   -1    0    0  501    0  0.00000000000E+00 -0.00000000000E+00 -0.25849990733E+04  0.25849990733E+04  0.00000000000E+00 0. -1.
         23    2    1    2    0    0 -0.48033296298E+03 -0.33542376885E+02 -0.17823837174E+04  0.18485544091E+04  0.91743344043E+02 0.  0.
        254    2    1    2    0    0  0.48033296298E+03  0.33542376885E+02 -0.42913873464E+03  0.11099212855E+04  0.90328310070E+03 0.  0.
        -24    2    4    4    0    0  0.27861401724E+03 -0.41163214143E+03 -0.94164260741E+02  0.51217898977E+03  0.79960109458E+02 0.  0.
         24    2    4    4    0    0  0.20171894574E+03  0.44517451831E+03 -0.33497447389E+03  0.59774229571E+03  0.78848393089E+02 0.  0.
         13    1    3    3    0    0 -0.36619006804E+03 -0.37789777982E+02 -0.14860422368E+04  0.15309620383E+04  0.00000000000E+00 0. -1.
        -13    1    3    3    0    0 -0.11414289494E+03  0.42474010966E+01 -0.29634148057E+03  0.31759237080E+03  0.00000000000E+00 0.  1.
          2    1    6    6  502    0  0.28463533561E+02  0.17251081242E+02 -0.19378663037E+02  0.38513700522E+02  0.00000000000E+00 0. -1.
          3    1    5    5  503    0  0.58865075269E+02 -0.10105011355E+03  0.10970151197E+02  0.11745878746E+03  0.00000000000E+00 0. -1.
         -4    1    5    5    0  503  0.21974894197E+03 -0.31058202787E+03 -0.10513441194E+03  0.39472020231E+03  0.00000000000E+00 0.  1.
         -1    1    6    6    0  502  0.17325541218E+03  0.42792343707E+03 -0.31559581086E+03  0.55922859518E+03  0.00000000000E+00 0.  1.
<mgrwt>
<rscale>  0 0.19651328E+04</rscale>
<asrwt>0</asrwt>
<pdfrwt beam="1">  1        2 0.39769217E+00 0.19651328E+04</pdfrwt>
<pdfrwt beam="2">  1       -2 0.57457942E-01 0.19651328E+04</pdfrwt>
<totfact> 0.82170577E+00</totfact>
</mgrwt>
</event>
<event>
12    1  0.1472088E-007  0.1391089E+04  0.7818608E-02  0.8960294E-01
         -1   -1    0    0    0  501 -0.00000000000E+00  0.00000000000E+00  0.58658853740E+03  0.58658853740E+03  0.00000000000E+00 0.  1.
          1   -1    0    0  501    0  0.00000000000E+00 -0.00000000000E+00 -0.82473850505E+03  0.82473850505E+03  0.00000000000E+00 0. -1.
         23    2    1    2    0    0 -0.29185035398E+03 -0.11430139121E+03  0.17163341931E+03  0.36933701003E+03  0.93329305148E+02 0.  0.
        254    2    1    2    0    0  0.29185035398E+03  0.11430139121E+03 -0.40978338696E+03  0.10419900324E+04  0.90530622790E+03 0.  0.
        -24    2    4    4    0    0  0.18308041442E+03 -0.38762784604E+03 -0.15452801873E+03  0.46282274572E+03  0.80945662108E+02 0.  0.
         24    2    4    4    0    0  0.10876993956E+03  0.50192923725E+03 -0.25525536823E+03  0.57916728670E+03  0.80719167603E+02 0.  0.
         11    1    3    3    0    0 -0.18496767364E+03 -0.86903972924E+02  0.61449516145E+02  0.21340427324E+03  0.00000000000E+00 0. -1.
        -11    1    3    3    0    0 -0.10688268034E+03 -0.27397418289E+02  0.11018390316E+03  0.15593273679E+03  0.00000000000E+00 0.  1.
          2    1    6    6  502    0  0.74477942459E+02  0.35539474983E+03 -0.13825846431E+03  0.38854574387E+03  0.00000000000E+00 0. -1.
          3    1    5    5  503    0  0.18135856926E+03 -0.32092201734E+03 -0.11981026863E+03  0.38760336986E+03  0.00000000000E+00 0. -1.
         -4    1    5    5    0  503  0.17218451651E+01 -0.66705828693E+02 -0.34717750098E+02  0.75219375856E+02  0.00000000000E+00 0.  1.
         -1    1    6    6    0  502  0.34291997100E+02  0.14653448741E+03 -0.11699690391E+03  0.19062154283E+03  0.00000000000E+00 0.  1.
<mgrwt>
<rscale>  0 0.13910890E+04</rscale>
<asrwt>0</asrwt>
<pdfrwt beam="1">  1        1 0.12688285E+00 0.13910890E+04</pdfrwt>
<pdfrwt beam="2">  1       -1 0.90244391E-01 0.13910890E+04</pdfrwt>
<totfact> 0.24666153E+01</totfact>
</mgrwt>
</event>
<event>
12    1  0.1472088E-007  0.1668395E+04  0.7818608E-02  0.8779598E-01
          2   -1    0    0  501    0  0.00000000000E+00  0.00000000000E+00  0.11828502883E+04  0.11828502883E+04  0.00000000000E+00 0. -1.
         -2   -1    0    0    0  501 -0.00000000000E+00 -0.00000000000E+00 -0.58831218700E+03  0.58831218700E+03  0.00000000000E+00 0.  1.
         23    2    1    2    0    0  0.17508063973E+03  0.25337700050E+03 -0.32074735708E+03  0.45391001479E+03  0.91116955960E+02 0.  0.
        254    2    1    2    0    0 -0.17508063973E+03 -0.25337700050E+03  0.91528545839E+03  0.13172524605E+04  0.89585346995E+03 0.  0.
        -24    2    4    4    0    0 -0.30299027725E+03 -0.30077976091E+03  0.49514624575E+02  0.43715471563E+03  0.79881003155E+02 0.  0.
         24    2    4    4    0    0  0.12790963752E+03  0.47402760414E+02  0.86577083382E+03  0.88009774490E+03  0.80031286532E+02 0.  0.
         11    1    3    3    0    0  0.71015188688E+01  0.17018507324E+02  0.36574105119E+01  0.18799941847E+02  0.00000000000E+00 0. -1.
        -11    1    3    3    0    0  0.16797912086E+03  0.23635849317E+03 -0.32440476759E+03  0.43511007294E+03  0.00000000000E+00 0.  1.
          4    1    6    6  502    0  0.10030126354E+03  0.62908249276E+02  0.54192548406E+03  0.55470805075E+03  0.00000000000E+00 0. -1.
          1    1    5    5  503    0 -0.24676030431E+03 -0.25238715578E+03  0.70739314363E+02  0.35999163154E+03  0.00000000000E+00 0. -1.
         -2    1    5    5    0  503 -0.56229972944E+02 -0.48392605134E+02 -0.21224689788E+02  0.77163084086E+02  0.00000000000E+00 0.  1.
         -3    1    6    6    0  502  0.27608373979E+02 -0.15505488862E+02  0.32384534976E+03  0.32538969415E+03  0.00000000000E+00 0.  1.
<mgrwt>
<rscale>  0 0.16683947E+04</rscale>
<asrwt>0</asrwt>
<pdfrwt beam="1">  1        2 0.18197697E+00 0.16683947E+04</pdfrwt>
<pdfrwt beam="2">  1       -2 0.90509567E-01 0.16683947E+04</pdfrwt>
<totfact> 0.19301563E+01</totfact>
</mgrwt>
</event>
<event>
12    1  0.1472088E-007  0.1479607E+04  0.7818608E-02  0.8898128E-01
         -2   -1    0    0    0  501 -0.00000000000E+00  0.00000000000E+00  0.61222819955E+03  0.61222819955E+03  0.00000000000E+00 0.  1.
          2   -1    0    0  501    0  0.00000000000E+00 -0.00000000000E+00 -0.89396307187E+03  0.89396307187E+03  0.00000000000E+00 0. -1.
         23    2    1    2    0    0 -0.15170189349E+03 -0.26438179040E+03 -0.44213635034E+03  0.54085448763E+03  0.64248182138E+02 0.  0.
        254    2    1    2    0    0  0.15170189349E+03  0.26438179040E+03  0.16040147802E+03  0.96533678379E+03  0.90179558460E+03 0.  0.
        -24    2    4    4    0    0  0.36744893679E+03 -0.18212485202E+03  0.19567306540E+03  0.46161491811E+03  0.81315442720E+02 0.  0.
         24    2    4    4    0    0 -0.21574704329E+03  0.44650664242E+03 -0.35271587385E+02  0.50372186568E+03  0.81096637899E+02 0.  0.
         11    1    3    3    0    0 -0.10504738896E+03 -0.16006773680E+03 -0.32506331286E+03  0.37725693056E+03  0.00000000000E+00 0.  1.
        -11    1    3    3    0    0 -0.46654504530E+02 -0.10431405360E+03 -0.11707303749E+03  0.16359755707E+03  0.00000000000E+00 0. -1.
          2    1    6    6  502    0 -0.15487031210E+03  0.38830570516E+03 -0.34830022452E+02  0.41949882562E+03  0.00000000000E+00 0. -1.
          1    1    5    5  503    0  0.23460087701E+03 -0.14767397764E+03  0.10167077850E+03  0.29526618900E+03  0.00000000000E+00 0. -1.
         -2    1    5    5    0  503  0.13284805978E+03 -0.34450874378E+02  0.94002286901E+02  0.16634872911E+03  0.00000000000E+00 0.  1.
         -1    1    6    6    0  502 -0.60876731195E+02  0.58200937257E+02 -0.44156493243E+00  0.84223040068E+02  0.00000000000E+00 0.  1.
<mgrwt>
<rscale>  0 0.14796072E+04</rscale>
<asrwt>0</asrwt>
<pdfrwt beam="1">  1        2 0.13753278E+00 0.14796072E+04</pdfrwt>
<pdfrwt beam="2">  1       -2 0.94188954E-01 0.14796072E+04</pdfrwt>
<totfact> 0.27242158E+01</totfact>
</mgrwt>
</event>
<event>
12    1  0.1472088E-007  0.2432280E+04  0.7818608E-02  0.8427516E-01
          2   -1    0    0  501    0  0.00000000000E+00  0.00000000000E+00  0.29553390256E+04  0.29553390256E+04  0.00000000000E+00 0. -1.
         -2   -1    0    0    0  501 -0.00000000000E+00 -0.00000000000E+00 -0.50044910529E+03  0.50044910529E+03  0.00000000000E+00 0.  1.
         23    2    1    2    0    0  0.92482697121E+03  0.38131866227E+03  0.64495019216E+03  0.11936566008E+04  0.90257860842E+02 0.  0.
        254    2    1    2    0    0 -0.92482697121E+03 -0.38131866227E+03  0.18099397281E+04  0.22621315300E+04  0.91686879700E+03 0.  0.
        -24    2    4    4    0    0 -0.85461159700E+03 -0.61428538017E+03  0.11891846513E+04  0.15900079539E+04  0.79105300339E+02 0.  0.
         24    2    4    4    0    0 -0.70215374205E+02  0.23296671789E+03  0.62075507678E+03  0.67212357612E+03  0.84909044311E+02 0.  0.
         11    1    3    3    0    0  0.12175197112E+03  0.75692565283E+02  0.11801935577E+03  0.18569188256E+03  0.00000000000E+00 0. -1.
        -11    1    3    3    0    0  0.80307500009E+03  0.30562609699E+03  0.52693083639E+03  0.10079647183E+04  0.00000000000E+00 0.  1.
          2    1    6    6  502    0 -0.98781484514E+01  0.13798301666E+03  0.26408830286E+03  0.29812668852E+03  0.00000000000E+00 0. -1.
          3    1    5    5  503    0 -0.70045283411E+03 -0.53602114190E+03  0.10127351602E+04  0.13429762999E+04  0.00000000000E+00 0. -1.
         -4    1    5    5    0  503 -0.15415876289E+03 -0.78264238263E+02  0.17644949113E+03  0.24703165402E+03  0.00000000000E+00 0.  1.
         -1    1    6    6    0  502 -0.60337225754E+02  0.94983701235E+02  0.35666677392E+03  0.37399688760E+03  0.00000000000E+00 0.  1.
<mgrwt>
<rscale>  0 0.24322802E+04</rscale>
<asrwt>0</asrwt>
<pdfrwt beam="1">  1        2 0.45466753E+00 0.24322802E+04</pdfrwt>
<pdfrwt beam="2">  1       -2 0.76992172E-01 0.24322802E+04</pdfrwt>
<totfact> 0.25089625E+00</totfact>
</mgrwt>
</event>
<event>
12    1  0.1472088E-007  0.2889123E+04  0.7818608E-02  0.8276121E-01
          2   -1    0    0  501    0  0.00000000000E+00  0.00000000000E+00  0.12032820133E+04  0.12032820133E+04  0.00000000000E+00 0. -1.
         -2   -1    0    0    0  501 -0.00000000000E+00 -0.00000000000E+00 -0.17342213527E+04  0.17342213527E+04  0.00000000000E+00 0.  1.
         23    2    1    2    0    0  0.75122015651E+03  0.72267826409E+03  0.57821562318E+03  0.11952920644E+04  0.88284853479E+02 0.  0.
        254    2    1    2    0    0 -0.75122015651E+03 -0.72267826409E+03 -0.11091549626E+04  0.17422113016E+04  0.84763193158E+03 0.  0.
        -24    2    4    4    0    0 -0.24063601247E+03 -0.34975791150E+01  0.71441731582E+02  0.26640164132E+03  0.89151499855E+02 0.  0.
         24    2    4    4    0    0 -0.51058414404E+03 -0.71918068498E+03 -0.11805966942E+04  0.14758096603E+04  0.79300525160E+02 0.  0.
         11    1    3    3    0    0  0.16348614705E+03  0.20705821678E+03  0.16136005075E+03  0.30925376536E+03  0.00000000000E+00 0.  1.
        -11    1    3    3    0    0  0.58773400947E+03  0.51562004731E+03  0.41685557243E+03  0.88603829902E+03  0.00000000000E+00 0. -1.
          2    1    6    6  502    0 -0.17078366637E+03 -0.30743570706E+03 -0.46474125234E+03  0.58281060929E+03  0.00000000000E+00 0. -1.
          3    1    5    5  503    0 -0.11081223095E+03  0.43121489761E+01  0.78946601316E+02  0.13612681960E+03  0.00000000000E+00 0. -1.
         -4    1    5    5    0  503 -0.12982378153E+03 -0.78097280911E+01 -0.75048697334E+01  0.13027482171E+03  0.00000000000E+00 0.  1.
         -1    1    6    6    0  502 -0.33980047768E+03 -0.41174497792E+03 -0.71585544185E+03  0.89299905101E+03  0.00000000000E+00 0.  1.
<mgrwt>
<rscale>  0 0.28891226E+04</rscale>
<asrwt>0</asrwt>
<pdfrwt beam="1">  1        2 0.18512031E+00 0.28891226E+04</pdfrwt>
<pdfrwt beam="2">  1       -2 0.26680328E+00 0.28891226E+04</pdfrwt>
<totfact> 0.82572678E-01</totfact>
</mgrwt>
</event>
<event>
12    1  0.1472088E-007  0.1668177E+04  0.7818608E-02  0.8779725E-01
         -1   -1    0    0    0  501 -0.00000000000E+00  0.00000000000E+00  0.65680038208E+03  0.65680038208E+03  0.00000000000E+00 0.  1.
          1   -1    0    0  501    0  0.00000000000E+00 -0.00000000000E+00 -0.10592314111E+04  0.10592314111E+04  0.00000000000E+00 0. -1.
         23    2    1    2    0    0  0.29160507121E+03  0.32584208303E+03  0.27177912348E+03  0.52366667207E+03  0.95688613981E+02 0.  0.
        254    2    1    2    0    0 -0.29160507121E+03 -0.32584208303E+03 -0.67421015250E+03  0.11923651211E+04  0.88089083982E+03 0.  0.
        -24    2    4    4    0    0 -0.91222596550E+02 -0.61347536845E+03 -0.42445976095E+03  0.75494654895E+03  0.71446576451E+02 0.  0.
         24    2    4    4    0    0 -0.20038247466E+03  0.28763328542E+03 -0.24975039155E+03  0.43741857217E+03  0.77933985937E+02 0.  0.
         13    1    3    3    0    0  0.10799102734E+03  0.18482943625E+03  0.10566714593E+03  0.23872479599E+03  0.00000000000E+00 0. -1.
        -13    1    3    3    0    0  0.18361404387E+03  0.14101264678E+03  0.16611197755E+03  0.28494187608E+03  0.00000000000E+00 0.  1.
          4    1    6    6  502    0 -0.19757137033E+03  0.25248212970E+03 -0.24102452837E+03  0.40109162977E+03  0.00000000000E+00 0. -1.
          1    1    5    5  503    0 -0.92386301184E+02 -0.59437207879E+03 -0.42377062146E+03  0.73579544461E+03  0.00000000000E+00 0. -1.
         -2    1    5    5    0  503  0.11637046350E+01 -0.19103289657E+02 -0.68913949212E+00  0.19151104340E+02  0.00000000000E+00 0.  1.
         -3    1    6    6    0  502 -0.28111043347E+01  0.35151155717E+02 -0.87258631737E+01  0.36326942397E+02  0.00000000000E+00 0.  1.
<mgrwt>
<rscale>  0 0.16681770E+04</rscale>
<asrwt>0</asrwt>
<pdfrwt beam="1">  1        1 0.16295868E+00 0.16681770E+04</pdfrwt>
<pdfrwt beam="2">  1       -1 0.10104621E+00 0.16681770E+04</pdfrwt>
<totfact> 0.12091838E+01</totfact>
</mgrwt>
</event>
<event>
12    1  0.1472088E-007  0.1324595E+04  0.7818608E-02  0.9010285E-01
          2   -1    0    0  501    0  0.00000000000E+00  0.00000000000E+00  0.79531588073E+03  0.79531588073E+03  0.00000000000E+00 0. -1.
         -2   -1    0    0    0  501 -0.00000000000E+00 -0.00000000000E+00 -0.55152674451E+03  0.55152674451E+03  0.00000000000E+00 0.  1.
         23    2    1    2    0    0 -0.39448502251E+02 -0.90292552304E+02  0.40327545058E+03  0.42536335427E+03  0.92703639522E+02 0.  0.
        254    2    1    2    0    0  0.39448502251E+02  0.90292552304E+02 -0.15948631436E+03  0.92147927098E+03  0.90220797660E+03 0.  0.
        -24    2    4    4    0    0 -0.19345357193E+03 -0.34561249807E+03 -0.34012369611E+02  0.40531605800E+03  0.79069477533E+02 0.  0.
         24    2    4    4    0    0  0.23290207418E+03  0.43590505037E+03 -0.12547394475E+03  0.51616321297E+03  0.80150873485E+02 0.  0.
         11    1    3    3    0    0 -0.19042295520E+02  0.17070894438E+02  0.90558274743E+02  0.94100082784E+02  0.00000000000E+00 0. -1.
        -11    1    3    3    0    0 -0.20406206732E+02 -0.10736344674E+03  0.31271717584E+03  0.33126327148E+03  0.00000000000E+00 0.  1.
          4    1    6    6  502    0  0.12210806186E+03  0.16771058833E+03 -0.80475802954E+02  0.22251646022E+03  0.00000000000E+00 0. -1.
          1    1    5    5  503    0 -0.20520774938E+02 -0.96364138984E+02 -0.25767892789E+02  0.10183876367E+03  0.00000000000E+00 0. -1.
         -2    1    5    5    0  503 -0.17293279699E+03 -0.24924835908E+03 -0.82444768219E+01  0.30347729434E+03  0.00000000000E+00 0.  1.
         -3    1    6    6    0  502  0.11079401232E+03  0.26819446204E+03 -0.44998141793E+02  0.29364675275E+03  0.00000000000E+00 0.  1.
<mgrwt>
<rscale>  0 0.13245950E+04</rscale>
<asrwt>0</asrwt>
<pdfrwt beam="1">  1        2 0.12235629E+00 0.13245950E+04</pdfrwt>
<pdfrwt beam="2">  1       -2 0.84850268E-01 0.13245950E+04</pdfrwt>
<totfact> 0.41112265E+01</totfact>
</mgrwt>
</event>
<event>
12    1  0.1472088E-007  0.1916072E+04  0.7818608E-02  0.8646898E-01
         -2   -1    0    0    0  501 -0.00000000000E+00  0.00000000000E+00  0.10141510429E+04  0.10141510429E+04  0.00000000000E+00 0.  1.
          2   -1    0    0  501    0  0.00000000000E+00 -0.00000000000E+00 -0.90502574312E+03  0.90502574312E+03  0.00000000000E+00 0. -1.
         23    2    1    2    0    0  0.19425071851E+03 -0.58773630247E+03 -0.37018854754E+03  0.72799261818E+03  0.98825039913E+02 0.  0.
        254    2    1    2    0    0 -0.19425071851E+03  0.58773630247E+03  0.47931384732E+03  0.11911841678E+04  0.89778096136E+03 0.  0.
        -24    2    4    4    0    0 -0.23644789237E+03  0.81109339571E+03  0.39059529304E+03  0.93435812646E+03  0.81733244026E+02 0.  0.
         24    2    4    4    0    0  0.42197173855E+02 -0.22335709323E+03  0.88718554274E+02  0.25682604137E+03  0.80122662682E+02 0.  0.
         11    1    3    3    0    0  0.46547948247E+02 -0.29756711117E+03 -0.17285032647E+03  0.34726089975E+03  0.00000000000E+00 0. -1.
        -11    1    3    3    0    0  0.14770277027E+03 -0.29016919131E+03 -0.19733822106E+03  0.38073171843E+03  0.00000000000E+00 0.  1.
          2    1    6    6  502    0 -0.28528095814E+01 -0.13024341280E+03  0.17974237400E+02  0.13150877656E+03  0.00000000000E+00 0. -1.
          3    1    5    5  503    0 -0.17718108895E+03  0.70360502891E+03  0.32282046672E+03  0.79414496707E+03  0.00000000000E+00 0. -1.
         -4    1    5    5    0  503 -0.59266803422E+02  0.10748836679E+03  0.67774826328E+02  0.14021315940E+03  0.00000000000E+00 0.  1.
         -1    1    6    6    0  502  0.45049983436E+02 -0.93113680429E+02  0.70744316874E+02  0.12531726481E+03  0.00000000000E+00 0.  1.
<mgrwt>
<rscale>  0 0.19160718E+04</rscale>
<asrwt>0</asrwt>
<pdfrwt beam="1">  1        2 0.13923473E+00 0.19160718E+04</pdfrwt>
<pdfrwt beam="2">  1       -2 0.15602324E+00 0.19160718E+04</pdfrwt>
<totfact> 0.73370947E+00</totfact>
</mgrwt>
</event>
<event>
12    1  0.1472088E-007  0.1656751E+04  0.7818608E-02  0.8786423E-01
         -2   -1    0    0    0  501 -0.00000000000E+00  0.00000000000E+00  0.52948716984E+03  0.52948716984E+03  0.00000000000E+00 0.  1.
          2   -1    0    0  501    0  0.00000000000E+00 -0.00000000000E+00 -0.12959820347E+04  0.12959820347E+04  0.00000000000E+00 0. -1.
         23    2    1    2    0    0 -0.29984915122E+03 -0.13085509347E+03 -0.78810583702E+03  0.85825462648E+03  0.91965344326E+02 0.  0.
        254    2    1    2    0    0  0.29984915122E+03  0.13085509347E+03  0.21610972137E+02  0.96721457809E+03  0.90994749133E+03 0.  0.
        -24    2    4    4    0    0 -0.12466754238E+03  0.35719998708E+02  0.37334958351E+03  0.40314513212E+03  0.79486927339E+02 0.  0.
         24    2    4    4    0    0  0.42451669359E+03  0.95135094761E+02 -0.35173861137E+03  0.56406944597E+03  0.72035961516E+02 0.  0.
         13    1    3    3    0    0 -0.19352099760E+03 -0.67704625203E+02 -0.37944900662E+03  0.43129553837E+03  0.00000000000E+00 0. -1.
        -13    1    3    3    0    0 -0.10632815361E+03 -0.63150468266E+02 -0.40865683040E+03  0.42695908812E+03  0.00000000000E+00 0.  1.
          2    1    6    6  502    0  0.21898803203E+02 -0.26534394579E+01 -0.25157583211E+01  0.22201967539E+02  0.00000000000E+00 0. -1.
          1    1    5    5  503    0 -0.47514265763E+02 -0.16740238035E+02  0.20039972140E+03  0.20663467608E+03  0.00000000000E+00 0. -1.
         -2    1    5    5    0  503 -0.77153276612E+02  0.52460236743E+02  0.17294986210E+03  0.19651045604E+03  0.00000000000E+00 0.  1.
         -1    1    6    6    0  502  0.40261789039E+03  0.97788534219E+02 -0.34922285305E+03  0.54186747843E+03  0.00000000000E+00 0.  1.
<mgrwt>
<rscale>  0 0.16567509E+04</rscale>
<asrwt>0</asrwt>
<pdfrwt beam="1">  1        2 0.19938185E+00 0.16567509E+04</pdfrwt>
<pdfrwt beam="2">  1       -2 0.81459564E-01 0.16567509E+04</pdfrwt>
<totfact> 0.21060959E+01</totfact>
</mgrwt>
</event>
<event>
12    1  0.1472088E-007  0.2157222E+04  0.7818608E-02  0.8536447E-01
          1   -1    0    0  501    0  0.00000000000E+00  0.00000000000E+00  0.58192745442E+03  0.58192745442E+03  0.00000000000E+00 0. -1.
         -1   -1    0    0    0  501 -0.00000000000E+00 -0.00000000000E+00 -0.19992207175E+04  0.19992207175E+04  0.00000000000E+00 0.  1.
         23    2    1    2    0    0 -0.82998569119E+02  0.62503100060E+03 -0.13532062631E+04  0.14956649292E+04  0.91070718402E+02 0.  0.
        254    2    1    2    0    0  0.82998569119E+02 -0.62503100060E+03 -0.64087000038E+02  0.10854832428E+04  0.88125717733E+03 0.  0.
        -24    2    4    4    0    0  0.20053212115E+03 -0.24628373319E+03 -0.43031635828E+03  0.53995978655E+03  0.74267045442E+02 0.  0.
         24    2    4    4    0    0 -0.11753355203E+03 -0.37874726741E+03  0.36622935824E+03  0.54552345623E+03  0.78792576009E+02 0.  0.
         13    1    3    3    0    0 -0.71185148426E+02  0.61947984035E+03 -0.13325856283E+04  0.14712603627E+04  0.00000000000E+00 0.  1.
        -13    1    3    3    0    0 -0.11813420693E+02  0.55511602497E+01 -0.20620634749E+02  0.24404566500E+02  0.00000000000E+00 0. -1.
          2    1    6    6  502    0 -0.71801858018E+02 -0.24316751410E+03  0.28310652359E+03  0.38004637931E+03  0.00000000000E+00 0. -1.
          1    1    5    5  503    0  0.19149035085E+03 -0.25040603360E+03 -0.40851253444E+03  0.51599828190E+03  0.00000000000E+00 0. -1.
         -2    1    5    5    0  503  0.90417703003E+01  0.41223004089E+01 -0.21803823845E+02  0.23961504650E+02  0.00000000000E+00 0.  1.
         -1    1    6    6    0  502 -0.45731694010E+02 -0.13557975331E+03  0.83122834653E+02  0.16547707692E+03  0.00000000000E+00 0.  1.
<mgrwt>
<rscale>  0 0.21572218E+04</rscale>
<asrwt>0</asrwt>
<pdfrwt beam="1">  1        1 0.89527301E-01 0.21572218E+04</pdfrwt>
<pdfrwt beam="2">  1       -1 0.30757242E+00 0.21572218E+04</pdfrwt>
<totfact> 0.96642972E-01</totfact>
</mgrwt>
</event>
<event>
12    1  0.1472088E-007  0.1733853E+04  0.7818608E-02  0.8742289E-01
          2   -1    0    0  501    0  0.00000000000E+00  0.00000000000E+00  0.12527748474E+04  0.12527748474E+04  0.00000000000E+00 0.  1.
         -2   -1    0    0    0  501 -0.00000000000E+00 -0.00000000000E+00 -0.59991725732E+03  0.59991725732E+03  0.00000000000E+00 0. -1.
         23    2    1    2    0    0  0.32779374828E+03  0.47246496511E+03  0.51741052662E+03  0.77908917858E+03  0.92706043282E+02 0.  0.
        254    2    1    2    0    0 -0.32779374828E+03 -0.47246496511E+03  0.13544706347E+03  0.10736029261E+04  0.89644043380E+03 0.  0.
        -24    2    4    4    0    0  0.18117971681E+02 -0.63449926781E+03 -0.49027202134E+02  0.64155033361E+03  0.79155431003E+02 0.  0.
         24    2    4    4    0    0 -0.34591171996E+03  0.16203430270E+03  0.18447426560E+03  0.43205259253E+03  0.82028377898E+02 0.  0.
         13    1    3    3    0    0  0.29087356465E+03  0.41617168519E+03  0.49234115532E+03  0.70725251176E+03  0.00000000000E+00 0.  1.
        -13    1    3    3    0    0  0.36920183629E+02  0.56293279920E+02  0.25069371303E+02  0.71836666827E+02  0.00000000000E+00 0. -1.
          4    1    6    6  502    0 -0.13709781921E+03  0.10614095958E+03  0.65761428536E+02  0.18543538178E+03  0.00000000000E+00 0. -1.
          1    1    5    5  503    0 -0.25108190404E+02 -0.41281752105E+03 -0.40052974990E+02  0.41551530383E+03  0.00000000000E+00 0. -1.
         -2    1    5    5    0  503  0.43226162085E+02 -0.22168174676E+03 -0.89742271441E+01  0.22603502978E+03  0.00000000000E+00 0.  1.
         -3    1    6    6    0  502 -0.20881390076E+03  0.55893343124E+02  0.11871283706E+03  0.24661721075E+03  0.00000000000E+00 0.  1.
<mgrwt>
<rscale>  0 0.17338526E+04</rscale>
<asrwt>0</asrwt>
<pdfrwt beam="1">  1        2 0.19273459E+00 0.17338526E+04</pdfrwt>
<pdfrwt beam="2">  1       -2 0.92294963E-01 0.17338526E+04</pdfrwt>
<totfact> 0.16674046E+01</totfact>
</mgrwt>
</event>
<event>
12    1  0.1472088E-007  0.2701822E+04  0.7818608E-02  0.8334414E-01
         -1   -1    0    0    0  501 -0.00000000000E+00  0.00000000000E+00  0.83568068630E+03  0.83568068630E+03  0.00000000000E+00 0.  1.
          1   -1    0    0  501    0  0.00000000000E+00 -0.00000000000E+00 -0.21838005399E+04  0.21838005399E+04  0.00000000000E+00 0. -1.
         23    2    1    2    0    0 -0.11212672380E+04  0.41894497595E+03 -0.54074391360E+03  0.13166678716E+04  0.91952118034E+02 0.  0.
        254    2    1    2    0    0  0.11212672380E+04 -0.41894497595E+03 -0.80737594002E+03  0.17028133547E+04  0.90275262416E+03 0.  0.
        -24    2    4    4    0    0  0.12274413004E+04 -0.22828543123E+03 -0.76606432038E+03  0.14669657515E+04  0.80047418173E+02 0.  0.
         24    2    4    4    0    0 -0.10617406240E+03 -0.19065954472E+03 -0.41311619636E+02  0.23584760314E+03  0.79331257848E+02 0.  0.
         13    1    3    3    0    0 -0.26617558979E+03  0.13002417021E+03 -0.10391330986E+03  0.31393264469E+03  0.00000000000E+00 0. -1.
        -13    1    3    3    0    0 -0.85509164821E+03  0.28892080573E+03 -0.43683060374E+03  0.10027352269E+04  0.00000000000E+00 0.  1.
          4    1    6    6  502    0 -0.24228848939E+02 -0.51743874887E+02  0.23828942344E+02  0.61905445660E+02  0.00000000000E+00 0. -1.
          1    1    5    5  503    0  0.67311547416E+03 -0.16179700015E+03 -0.40413575842E+03  0.80161613135E+03  0.00000000000E+00 0. -1.
         -2    1    5    5    0  503  0.55432582624E+03 -0.66488431076E+02 -0.36192856196E+03  0.66534962017E+03  0.00000000000E+00 0.  1.
         -3    1    6    6    0  502 -0.81945213460E+02 -0.13891566983E+03 -0.65140561980E+02  0.17394215748E+03  0.00000000000E+00 0.  1.
<mgrwt>
<rscale>  0 0.27018216E+04</rscale>
<asrwt>0</asrwt>
<pdfrwt beam="1">  1        1 0.33596931E+00 0.27018216E+04</pdfrwt>
<pdfrwt beam="2">  1       -1 0.12856626E+00 0.27018216E+04</pdfrwt>
<totfact> 0.10172260E+00</totfact>
</mgrwt>
</event>
<event>
12    1  0.1472088E-007  0.1779714E+04  0.7818608E-02  0.8717162E-01
         -2   -1    0    0    0  501 -0.00000000000E+00  0.00000000000E+00  0.58144381007E+03  0.58144381007E+03  0.00000000000E+00 0.  1.
          2   -1    0    0  501    0  0.00000000000E+00 -0.00000000000E+00 -0.13618611305E+04  0.13618611305E+04  0.00000000000E+00 0. -1.
         23    2    1    2    0    0  0.34533275220E+03 -0.20958257970E+03 -0.86593242613E+03  0.95979249695E+03  0.90460505863E+02 0.  0.
        254    2    1    2    0    0 -0.34533275220E+03  0.20958257970E+03  0.85515105729E+02  0.98351244359E+03  0.89263896730E+03 0.  0.
        -24    2    4    4    0    0 -0.55764129416E+03 -0.11137541440E+03 -0.28368334075E+02  0.57465305359E+03  0.77801502129E+02 0.  0.
         24    2    4    4    0    0  0.21230854196E+03  0.32095799410E+03  0.11388343980E+03  0.40885939001E+03  0.78151212191E+02 0.  0.
         11    1    3    3    0    0  0.18238066157E+03 -0.11424933420E+03 -0.56435166920E+03  0.60399372730E+03  0.00000000000E+00 0. -1.
        -11    1    3    3    0    0  0.16295209063E+03 -0.95333245501E+02 -0.30158075693E+03  0.35579876966E+03  0.00000000000E+00 0.  1.
          4    1    6    6  502    0  0.88248014043E+01  0.11087638992E+02  0.23255671310E+02  0.27233051726E+02  0.00000000000E+00 0. -1.
          3    1    5    5  503    0 -0.24510043940E+03 -0.46525572350E+02 -0.51063250971E+02  0.25464938617E+03  0.00000000000E+00 0. -1.
         -4    1    5    5    0  503 -0.31254085476E+03 -0.64849842049E+02  0.22694916896E+02  0.32000366742E+03  0.00000000000E+00 0.  1.
         -3    1    6    6    0  502  0.20348374056E+03  0.30987035511E+03  0.90627768495E+02  0.38162633828E+03  0.00000000000E+00 0.  1.
<mgrwt>
<rscale>  0 0.17797143E+04</rscale>
<asrwt>0</asrwt>
<pdfrwt beam="1">  1        2 0.20951709E+00 0.17797143E+04</pdfrwt>
<pdfrwt beam="2">  1       -2 0.89452895E-01 0.17797143E+04</pdfrwt>
<totfact> 0.15426546E+01</totfact>
</mgrwt>
</event>
<event>
12    1  0.1472088E-007  0.1644473E+04  0.7818608E-02  0.8793683E-01
         -1   -1    0    0    0  501 -0.00000000000E+00  0.00000000000E+00  0.34583692737E+03  0.34583692737E+03  0.00000000000E+00 0.  1.
          1   -1    0    0  501    0  0.00000000000E+00 -0.00000000000E+00 -0.19548902053E+04  0.19548902053E+04  0.00000000000E+00 0. -1.
         23    2    1    2    0    0  0.46424480127E+02  0.21932980473E+03 -0.11242301269E+04  0.11495765269E+04  0.85860452418E+02 0.  0.
        254    2    1    2    0    0 -0.46424480127E+02 -0.21932980473E+03 -0.48482315097E+03  0.11511506057E+04  0.10197222336E+04 0.  0.
        -24    2    4    4    0    0 -0.34531722279E+03 -0.34776740611E+03 -0.61602744636E+03  0.79126560230E+03  0.80157879217E+02 0.  0.
         24    2    4    4    0    0  0.29889274267E+03  0.12843760138E+03  0.13120429539E+03  0.35988500344E+03  0.80433572013E+02 0.  0.
         11    1    3    3    0    0  0.35720175188E+01  0.13634392754E+03 -0.49475824117E+03  0.51321354531E+03  0.00000000000E+00 0.  1.
        -11    1    3    3    0    0  0.42852462608E+02  0.82985877190E+02 -0.62947188577E+03  0.63636298159E+03  0.00000000000E+00 0. -1.
          2    1    6    6  502    0  0.12296920356E+03  0.14067215740E+02  0.65333194205E+02  0.13995619975E+03  0.00000000000E+00 0. -1.
          3    1    5    5  503    0 -0.10251160691E+03 -0.14807458392E+03 -0.26031072671E+03  0.31653812787E+03  0.00000000000E+00 0. -1.
         -4    1    5    5    0  503 -0.24280561589E+03 -0.19969282219E+03 -0.35571671965E+03  0.47472747443E+03  0.00000000000E+00 0.  1.
         -1    1    6    6    0  502  0.17592353911E+03  0.11437038564E+03  0.65871101185E+02  0.21992880369E+03  0.00000000000E+00 0.  1.
<mgrwt>
<rscale>  0 0.16444734E+04</rscale>
<asrwt>0</asrwt>
<pdfrwt beam="1">  1        1 0.30075235E+00 0.16444734E+04</pdfrwt>
<pdfrwt beam="2">  1       -1 0.53205680E-01 0.16444734E+04</pdfrwt>
<totfact> 0.10894621E+01</totfact>
</mgrwt>
</event>
<event>
12    1  0.1472088E-007  0.1313873E+04  0.7818608E-02  0.9018636E-01
          1   -1    0    0  501    0  0.00000000000E+00  0.00000000000E+00  0.50933947189E+03  0.50933947189E+03  0.00000000000E+00 0. -1.
         -1   -1    0    0    0  501 -0.00000000000E+00 -0.00000000000E+00 -0.84730384187E+03  0.84730384187E+03  0.00000000000E+00 0.  1.
         23    2    1    2    0    0 -0.21193714288E+03  0.19730528745E+03  0.94629144568E+02  0.31784383962E+03  0.90682426064E+02 0.  0.
        254    2    1    2    0    0  0.21193714288E+03 -0.19730528745E+03 -0.43259351455E+03  0.10387994741E+04  0.89895521003E+03 0.  0.
        -24    2    4    4    0    0 -0.12446039531E+03 -0.46058507136E+03 -0.10655750697E+03  0.49533051091E+03  0.79804854377E+02 0.  0.
         24    2    4    4    0    0  0.33639753820E+03  0.26327978391E+03 -0.32603600758E+03  0.54346896322E+03  0.81114039640E+02 0.  0.
         11    1    3    3    0    0 -0.21516611141E+03  0.16770523850E+03  0.77979272795E+02  0.28372921863E+03  0.00000000000E+00 0. -1.
        -11    1    3    3    0    0  0.32289685275E+01  0.29600048942E+02  0.16649871773E+02  0.34114620988E+02  0.00000000000E+00 0.  1.
          4    1    6    6  502    0  0.47811808634E+02  0.26931035052E+02 -0.12731870498E+02  0.56332497017E+02  0.00000000000E+00 0. -1.
          3    1    5    5  503    0 -0.25884997096E+02 -0.10538378393E+03  0.93324805120E+01  0.10891680395E+03  0.00000000000E+00 0. -1.
         -4    1    5    5    0  503 -0.98575398219E+02 -0.35520128743E+03 -0.11588998748E+03  0.38641370695E+03  0.00000000000E+00 0.  1.
         -3    1    6    6    0  502  0.28858572956E+03  0.23634874886E+03 -0.31330413708E+03  0.48713646621E+03  0.00000000000E+00 0.  1.
<mgrwt>
<rscale>  0 0.13138726E+04</rscale>
<asrwt>0</asrwt>
<pdfrwt beam="1">  1        1 0.78359918E-01 0.13138726E+04</pdfrwt>
<pdfrwt beam="2">  1       -1 0.13035444E+00 0.13138726E+04</pdfrwt>
<totfact> 0.21361606E+01</totfact>
</mgrwt>
</event>
<event>
12    1  0.1472088E-007  0.1341757E+04  0.7818608E-02  0.8997092E-01
          1   -1    0    0  501    0  0.00000000000E+00  0.00000000000E+00  0.57106643197E+03  0.57106643197E+03  0.00000000000E+00 0. -1.
         -1   -1    0    0    0  501 -0.00000000000E+00 -0.00000000000E+00 -0.78813586899E+03  0.78813586899E+03  0.00000000000E+00 0.  1.
         23    2    1    2    0    0 -0.33820527761E+03 -0.43835636785E+02 -0.17276658035E+03  0.39276055988E+03  0.90045506589E+02 0.  0.
        254    2    1    2    0    0  0.33820527761E+03  0.43835636785E+02 -0.44302856670E+02  0.96644174108E+03  0.90318465606E+03 0.  0.
        -24    2    4    4    0    0  0.37428139779E+03 -0.37578726133E+03 -0.15719443481E+02  0.53683373137E+03  0.81490635818E+02 0.  0.
         24    2    4    4    0    0 -0.36076120172E+02  0.41962289811E+03 -0.28583413189E+02  0.42960800971E+03  0.79756927167E+02 0.  0.
         13    1    3    3    0    0 -0.23829622458E+03 -0.46947601680E+02 -0.16261494419E+03  0.29228887770E+03  0.00000000000E+00 0. -1.
        -13    1    3    3    0    0 -0.99909053039E+02  0.31119648942E+01 -0.10151636151E+02  0.10047168219E+03  0.00000000000E+00 0.  1.
          2    1    6    6  502    0  0.56486407802E+01 -0.11508728533E+01 -0.11746014831E+01  0.58831402867E+01  0.00000000000E+00 0. -1.
          1    1    5    5  503    0 -0.87236343608E+00  0.31800227370E+01  0.50551111137E+00  0.33360311833E+01  0.00000000000E+00 0. -1.
         -4    1    5    5    0  503  0.37515376122E+03 -0.37896728407E+03 -0.16224954593E+02  0.53349770019E+03  0.00000000000E+00 0.  1.
         -1    1    6    6    0  502 -0.41724760952E+02  0.42077377097E+03 -0.27408811706E+02  0.42372486943E+03  0.00000000000E+00 0.  1.
<mgrwt>
<rscale>  0 0.13417570E+04</rscale>
<asrwt>0</asrwt>
<pdfrwt beam="1">  1        1 0.87856375E-01 0.13417570E+04</pdfrwt>
<pdfrwt beam="2">  1       -1 0.12125167E+00 0.13417570E+04</pdfrwt>
<totfact> 0.21743102E+01</totfact>
</mgrwt>
</event>
<event>
12    1  0.1472088E-007  0.3613408E+04  0.7818608E-02  0.8087427E-01
          1   -1    0    0  501    0  0.00000000000E+00  0.00000000000E+00  0.32677875047E+04  0.32677875047E+04  0.00000000000E+00 0.  1.
         -1   -1    0    0    0  501 -0.00000000000E+00 -0.00000000000E+00 -0.99889561405E+03  0.99889561405E+03  0.00000000000E+00 0. -1.
         23    2    1    2    0    0  0.46385772575E+03  0.15148827968E+04  0.36697908354E+03  0.16286852703E+04  0.88927971856E+02 0.  0.
        254    2    1    2    0    0 -0.46385772575E+03 -0.15148827968E+04  0.19019128071E+04  0.26379978485E+04  0.91199037547E+03 0.  0.
        -24    2    4    4    0    0  0.16042408901E+03  0.23823280817E+01  0.12775586712E+03  0.22016710343E+03  0.80065148659E+02 0.  0.
         24    2    4    4    0    0 -0.62428181476E+03 -0.15172651249E+04  0.17741569400E+04  0.24178307450E+04  0.80320735552E+02 0.  0.
         11    1    3    3    0    0  0.29916150420E+03  0.94534141483E+03  0.27265685584E+03  0.10283529342E+04  0.00000000000E+00 0. -1.
        -11    1    3    3    0    0  0.16469622155E+03  0.56954138195E+03  0.94322227709E+02  0.60033233612E+03  0.00000000000E+00 0.  1.
          4    1    6    6  502    0 -0.49288203971E+03 -0.12511635382E+04  0.14182641803E+04  0.19544350052E+04  0.00000000000E+00 0. -1.
          3    1    5    5  503    0  0.81948394643E+02  0.40741547985E+02  0.73093807594E+02  0.11712436905E+03  0.00000000000E+00 0. -1.
         -4    1    5    5    0  503  0.78475694364E+02 -0.38359219904E+02  0.54662059525E+02  0.10304273438E+03  0.00000000000E+00 0.  1.
         -3    1    6    6    0  502 -0.13139977505E+03 -0.26610158663E+03  0.35589275964E+03  0.46339573979E+03  0.00000000000E+00 0.  1.
<mgrwt>
<rscale>  0 0.36134076E+04</rscale>
<asrwt>0</asrwt>
<pdfrwt beam="1">  1        1 0.50273653E+00 0.36134076E+04</pdfrwt>
<pdfrwt beam="2">  1       -1 0.15367625E+00 0.36134076E+04</pdfrwt>
<totfact> 0.99647417E-02</totfact>
</mgrwt>
</event>
<event>
12    1  0.1472088E-007  0.1150943E+04  0.7818608E-02  0.9156914E-01
          2   -1    0    0  501    0  0.00000000000E+00  0.00000000000E+00  0.66325449940E+03  0.66325449940E+03  0.00000000000E+00 0. -1.
         -2   -1    0    0    0  501 -0.00000000000E+00 -0.00000000000E+00 -0.49930682654E+03  0.49930682654E+03  0.00000000000E+00 0.  1.
         23    2    1    2    0    0  0.21912111360E+02  0.20012789121E+03  0.83836463306E+02  0.23571644947E+03  0.89456014361E+02 0.  0.
        254    2    1    2    0    0 -0.21912111360E+02 -0.20012789121E+03  0.80111209550E+02  0.92684487647E+03  0.90116164237E+03 0.  0.
        -24    2    4    4    0    0 -0.45277157942E+03 -0.12759099699E+03  0.82076633390E+01  0.47705338874E+03  0.78936710850E+02 0.  0.
         24    2    4    4    0    0  0.43085946806E+03 -0.72536894221E+02  0.71903546211E+02  0.44979148774E+03  0.78998609111E+02 0.  0.
         11    1    3    3    0    0  0.27076153505E+02  0.19425676035E+03  0.51967790442E+02  0.20290258321E+03  0.00000000000E+00 0. -1.
        -11    1    3    3    0    0 -0.51640421454E+01  0.58711308663E+01  0.31868672864E+02  0.32813866262E+02  0.00000000000E+00 0.  1.
          4    1    6    6  502    0  0.11454739098E+03 -0.42630045705E+02  0.47515574983E+02  0.13113411243E+03  0.00000000000E+00 0. -1.
          3    1    5    5  503    0 -0.23616831651E+03 -0.40540297823E+02 -0.26354412480E+02  0.24106751031E+03  0.00000000000E+00 0. -1.
         -4    1    5    5    0  503 -0.21660326291E+03 -0.87050699169E+02  0.34562075819E+02  0.23598587842E+03  0.00000000000E+00 0.  1.
         -3    1    6    6    0  502  0.31631207709E+03 -0.29906848515E+02  0.24387971227E+02  0.31865737531E+03  0.00000000000E+00 0.  1.
<mgrwt>
<rscale>  0 0.11509431E+04</rscale>
<asrwt>0</asrwt>
<pdfrwt beam="1">  1        2 0.10203915E+00 0.11509431E+04</pdfrwt>
<pdfrwt beam="2">  1       -2 0.76816435E-01 0.11509431E+04</pdfrwt>
<totfact> 0.65747431E+01</totfact>
</mgrwt>
</event>
<event>
12    1  0.1472088E-007  0.2393446E+04  0.7818608E-02  0.8441961E-01
          1   -1    0    0  501    0  0.00000000000E+00  0.00000000000E+00  0.33018567296E+04  0.33018567296E+04  0.00000000000E+00 0. -1.
         -1   -1    0    0    0  501 -0.00000000000E+00 -0.00000000000E+00 -0.43373966863E+03  0.43373966863E+03  0.00000000000E+00 0.  1.
         23    2    1    2    0    0 -0.81038257961E+02 -0.10115324044E+04  0.14901261981E+04  0.18052016910E+04  0.92260795974E+02 0.  0.
        254    2    1    2    0    0  0.81038257961E+02  0.10115324044E+04  0.13779908629E+04  0.19303947073E+04  0.89319645270E+03 0.  0.
        -24    2    4    4    0    0 -0.89413920607E+02 -0.13133151021E+03  0.29626520858E+03  0.34558334260E+03  0.80074703240E+02 0.  0.
         24    2    4    4    0    0  0.17045217857E+03  0.11428639146E+04  0.10817256544E+04  0.15848113647E+04  0.79402756654E+02 0.  0.
         11    1    3    3    0    0 -0.33138327901E+02 -0.17924603117E+03  0.21685589553E+03  0.28329095978E+03  0.00000000000E+00 0. -1.
        -11    1    3    3    0    0 -0.47899930060E+02 -0.83228637327E+03  0.12732703025E+04  0.15219107312E+04  0.00000000000E+00 0.  1.
          2    1    6    6  502    0  0.17369335503E+03  0.11070679963E+04  0.10316938500E+04  0.15232075138E+04  0.00000000000E+00 0. -1.
          3    1    5    5  503    0 -0.34608438666E+02 -0.10810857433E+03  0.15354567067E+03  0.19094889592E+03  0.00000000000E+00 0. -1.
         -4    1    5    5    0  503 -0.54805481942E+02 -0.23222935881E+02  0.14271953790E+03  0.15463444668E+03  0.00000000000E+00 0.  1.
         -1    1    6    6    0  502 -0.32411764580E+01  0.35795918377E+02  0.50031804386E+02  0.61603850914E+02  0.00000000000E+00 0.  1.
<mgrwt>
<rscale>  0 0.23934463E+04</rscale>
<asrwt>0</asrwt>
<pdfrwt beam="1">  1        1 0.50797794E+00 0.23934463E+04</pdfrwt>
<pdfrwt beam="2">  1       -1 0.66729182E-01 0.23934463E+04</pdfrwt>
<totfact> 0.72688342E-01</totfact>
</mgrwt>
</event>
<event>
12    1  0.1472088E-007  0.1782283E+04  0.7818608E-02  0.8715778E-01
         -1   -1    0    0    0  501 -0.00000000000E+00  0.00000000000E+00  0.13284848236E+04  0.13284848236E+04  0.00000000000E+00 0.  1.
          1   -1    0    0  501    0  0.00000000000E+00 -0.00000000000E+00 -0.59777394338E+03  0.59777394338E+03  0.00000000000E+00 0. -1.
         23    2    1    2    0    0 -0.11001534831E+02 -0.50732430045E+03 -0.19413141124E+03  0.55087170462E+03  0.90959609266E+02 0.  0.
        254    2    1    2    0    0  0.11001534831E+02  0.50732430045E+03  0.92484229150E+03  0.13753870624E+04  0.88252893873E+03 0.  0.
        -24    2    4    4    0    0 -0.22806079573E+03  0.71900600649E+02  0.82403136843E+03  0.86222840204E+03  0.85021751321E+02 0.  0.
         24    2    4    4    0    0  0.23906233056E+03  0.43542369980E+03  0.10081092307E+03  0.51315866037E+03  0.80152181870E+02 0.  0.
         11    1    3    3    0    0 -0.33939703498E+01 -0.30843259493E+03 -0.16470468648E+03  0.34967101453E+03  0.00000000000E+00 0. -1.
        -11    1    3    3    0    0 -0.76075644812E+01 -0.19889170552E+03 -0.29426724759E+02  0.20120069009E+03  0.00000000000E+00 0.  1.
          4    1    6    6  502    0 -0.29542845969E+01  0.12263835077E+02  0.12472644065E+02  0.17739681459E+02  0.00000000000E+00 0. -1.
          1    1    5    5  503    0 -0.10633888227E+03  0.76136802116E+02  0.38450700868E+03  0.40614087487E+03  0.00000000000E+00 0. -1.
         -2    1    5    5    0  503 -0.12172191346E+03 -0.42362014671E+01  0.43952435975E+03  0.45608752717E+03  0.00000000000E+00 0.  1.
         -3    1    6    6    0  502  0.24201661516E+03  0.42315986473E+03  0.88338279005E+02  0.49541897891E+03  0.00000000000E+00 0.  1.
<mgrwt>
<rscale>  0 0.17822835E+04</rscale>
<asrwt>0</asrwt>
<pdfrwt beam="1">  1        1 0.91965222E-01 0.17822835E+04</pdfrwt>
<pdfrwt beam="2">  1       -1 0.20438228E+00 0.17822835E+04</pdfrwt>
<totfact> 0.45683066E+00</totfact>
</mgrwt>
</event>
<event>
12    1  0.1472088E-007  0.2457758E+04  0.7818608E-02  0.8418191E-01
          1   -1    0    0  501    0  0.00000000000E+00  0.00000000000E+00  0.14010575711E+04  0.14010575711E+04  0.00000000000E+00 0. -1.
         -1   -1    0    0    0  501 -0.00000000000E+00 -0.00000000000E+00 -0.10778595412E+04  0.10778595412E+04  0.00000000000E+00 0.  1.
         23    2    1    2    0    0  0.77775360813E+03  0.81508723402E+02 -0.58840149840E+03  0.98275856388E+03  0.89742546222E+02 0.  0.
        254    2    1    2    0    0 -0.77775360813E+03 -0.81508723402E+02  0.91159952832E+03  0.14961585484E+04  0.89215041054E+03 0.  0.
        -24    2    4    4    0    0 -0.60108107012E+03 -0.23268165682E+03  0.11127200428E+03  0.65900091131E+03  0.80383679230E+02 0.  0.
         24    2    4    4    0    0 -0.17667253800E+03  0.15117293342E+03  0.80032752404E+03  0.83715763711E+03  0.79008367689E+02 0.  0.
         13    1    3    3    0    0  0.41943763460E+01  0.59057166857E+01 -0.15752492217E+02  0.17338145620E+02  0.00000000000E+00 0. -1.
        -13    1    3    3    0    0  0.77355923178E+03  0.75603006717E+02 -0.57264900619E+03  0.96542041826E+03  0.00000000000E+00 0.  1.
          2    1    6    6  502    0 -0.17917431232E+03  0.13819995275E+03  0.69269814126E+03  0.72872036889E+03  0.00000000000E+00 0. -1.
          1    1    5    5  503    0 -0.53042762289E+03 -0.17614122103E+03  0.10046043728E+03  0.56786573442E+03  0.00000000000E+00 0. -1.
         -2    1    5    5    0  503 -0.70653447234E+02 -0.56540435789E+02  0.10811566998E+02  0.91135176887E+02  0.00000000000E+00 0.  1.
         -1    1    6    6    0  502  0.25017743161E+01  0.12972980664E+02  0.10762938278E+03  0.10843726822E+03  0.00000000000E+00 0.  1.
<mgrwt>
<rscale>  0 0.24577577E+04</rscale>
<asrwt>0</asrwt>
<pdfrwt beam="1">  1        1 0.21554732E+00 0.24577577E+04</pdfrwt>
<pdfrwt beam="2">  1       -1 0.16582454E+00 0.24577577E+04</pdfrwt>
<totfact> 0.18070335E+00</totfact>
</mgrwt>
</event>
<event>
12    1  0.1472088E-007  0.3640177E+04  0.7818608E-02  0.8081350E-01
         -1   -1    0    0    0  501 -0.00000000000E+00  0.00000000000E+00  0.14315770148E+04  0.14315770148E+04  0.00000000000E+00 0. -1.
          1   -1    0    0  501    0  0.00000000000E+00 -0.00000000000E+00 -0.23140375343E+04  0.23140375343E+04  0.00000000000E+00 0.  1.
         23    2    1    2    0    0  0.16219636267E+03 -0.16990535189E+04 -0.47328169825E+03  0.17737517872E+04  0.95442739838E+02 0.  0.
        254    2    1    2    0    0 -0.16219636267E+03  0.16990535189E+04 -0.40917882126E+03  0.19718627619E+04  0.89873518019E+03 0.  0.
        -24    2    4    4    0    0 -0.17240297441E+03  0.49626302580E+03  0.26078535095E+03  0.59248813819E+03  0.83865477162E+02 0.  0.
         24    2    4    4    0    0  0.10206611735E+02  0.12027904931E+04 -0.66996417221E+03  0.13793746238E+04  0.83744942928E+02 0.  0.
         11    1    3    3    0    0  0.18734246946E+02 -0.40348640868E+03 -0.14906912390E+03  0.43055064475E+03  0.00000000000E+00 0. -1.
        -11    1    3    3    0    0  0.14346211572E+03 -0.12955671102E+04 -0.32421257435E+03  0.13432011424E+04  0.00000000000E+00 0.  1.
          2    1    6    6  502    0 -0.14386050956E+02  0.59914212741E+03 -0.37605011886E+03  0.70752522160E+03  0.00000000000E+00 0. -1.
          3    1    5    5  503    0 -0.12180980353E+03  0.42411944581E+03  0.19452570554E+03  0.48223975642E+03  0.00000000000E+00 0. -1.
         -4    1    5    5    0  503 -0.50593170879E+02  0.72143579987E+02  0.66259645410E+02  0.11024838177E+03  0.00000000000E+00 0.  1.
         -1    1    6    6    0  502  0.24592662691E+02  0.60364836567E+03 -0.29391405335E+03  0.67184940216E+03  0.00000000000E+00 0.  1.
<mgrwt>
<rscale>  0 0.36401774E+04</rscale>
<asrwt>0</asrwt>
<pdfrwt beam="1">  1        1 0.35600577E+00 0.36401774E+04</pdfrwt>
<pdfrwt beam="2">  1       -1 0.22024262E+00 0.36401774E+04</pdfrwt>
<totfact> 0.16093593E-01</totfact>
</mgrwt>
</event>
<event>
12    1  0.1472088E-007  0.2060477E+04  0.7818608E-02  0.8578856E-01
         -2   -1    0    0    0  501 -0.00000000000E+00  0.00000000000E+00  0.22876072327E+04  0.22876072327E+04  0.00000000000E+00 0.  1.
          2   -1    0    0  501    0  0.00000000000E+00 -0.00000000000E+00 -0.46397443348E+03  0.46397443348E+03  0.00000000000E+00 0. -1.
         23    2    1    2    0    0 -0.38909327405E+03  0.23010489751E+03  0.16715041457E+04  0.17340387577E+04  0.92857226012E+02 0.  0.
        254    2    1    2    0    0  0.38909327405E+03 -0.23010489751E+03  0.15212865352E+03  0.10175429085E+04  0.89883736213E+03 0.  0.
        -24    2    4    4    0    0  0.17754930774E+03  0.21887075299E+03 -0.24207110990E+03  0.37811689428E+03  0.70326384070E+02 0.  0.
         24    2    4    4    0    0  0.21154396630E+03 -0.44897565050E+03  0.39419976342E+03  0.63942601418E+03  0.84511476733E+02 0.  0.
         11    1    3    3    0    0 -0.93660703605E+01  0.22990478013E+02  0.15809713752E+03  0.16003434083E+03  0.00000000000E+00 0. -1.
        -11    1    3    3    0    0 -0.37972720368E+03  0.20711441950E+03  0.15134070082E+04  0.15740044169E+04  0.00000000000E+00 0.  1.
          2    1    6    6  502    0  0.16974450877E+03 -0.30803642023E+03  0.23648186404E+03  0.42381989862E+03  0.00000000000E+00 0. -1.
          1    1    5    5  503    0  0.15355506172E+03  0.21761078708E+03 -0.21908024120E+03  0.34486194879E+03  0.00000000000E+00 0. -1.
         -2    1    5    5    0  503  0.23994246021E+02  0.12599659064E+01 -0.22990868703E+02  0.33254945495E+02  0.00000000000E+00 0.  1.
         -1    1    6    6    0  502  0.41799457534E+02 -0.14093923027E+03  0.15771789938E+03  0.21560611556E+03  0.00000000000E+00 0.  1.
<mgrwt>
<rscale>  0 0.20604769E+04</rscale>
<asrwt>0</asrwt>
<pdfrwt beam="1">  1        2 0.71380683E-01 0.20604769E+04</pdfrwt>
<pdfrwt beam="2">  1       -2 0.35193957E+00 0.20604769E+04</pdfrwt>
<totfact> 0.94097923E-01</totfact>
</mgrwt>
</event>
<event>
12    1  0.1472088E-007  0.1235532E+04  0.7818608E-02  0.9082311E-01
         -1   -1    0    0    0  501 -0.00000000000E+00  0.00000000000E+00  0.29249662540E+03  0.29249662540E+03  0.00000000000E+00 0.  1.
          1   -1    0    0  501    0  0.00000000000E+00 -0.00000000000E+00 -0.13047505526E+04  0.13047505526E+04  0.00000000000E+00 0. -1.
         23    2    1    2    0    0 -0.51906864189E+02  0.22480001335E+03 -0.44156579932E+03  0.50650013224E+03  0.91283406383E+02 0.  0.
        254    2    1    2    0    0  0.51906864189E+02 -0.22480001335E+03 -0.57068812790E+03  0.10907470458E+04  0.90045255844E+03 0.  0.
        -24    2    4    4    0    0  0.42919477840E+03  0.62941881230E+02 -0.33753404994E+03  0.55599082293E+03  0.83825545588E+02 0.  0.
         24    2    4    4    0    0 -0.37728791421E+03 -0.28774189458E+03 -0.23315407796E+03  0.53475622285E+03  0.80385481920E+02 0.  0.
         11    1    3    3    0    0 -0.73352588342E+02  0.19513303988E+03 -0.34329822914E+03  0.40163563039E+03  0.00000000000E+00 0. -1.
        -11    1    3    3    0    0  0.21445724153E+02  0.29666973466E+02 -0.98267570179E+02  0.10486450185E+03  0.00000000000E+00 0.  1.
          4    1    6    6  502    0 -0.24172757166E+02 -0.65868441962E+01 -0.31861899615E+02  0.40532571502E+02  0.00000000000E+00 0. -1.
          3    1    5    5  503    0  0.33577639248E+02 -0.15245796477E+02 -0.15864595872E+02  0.40144458769E+02  0.00000000000E+00 0. -1.
         -4    1    5    5    0  503  0.39561713915E+03  0.78187677707E+02 -0.32166945407E+03  0.51584636416E+03  0.00000000000E+00 0.  1.
         -3    1    6    6    0  502 -0.35311515705E+03 -0.28115505038E+03 -0.20129217834E+03  0.49422365135E+03  0.00000000000E+00 0.  1.
<mgrwt>
<rscale>  0 0.12355325E+04</rscale>
<asrwt>0</asrwt>
<pdfrwt beam="1">  1        1 0.20073085E+00 0.12355325E+04</pdfrwt>
<pdfrwt beam="2">  1       -1 0.44999481E-01 0.12355325E+04</pdfrwt>
<totfact> 0.43378733E+01</totfact>
</mgrwt>
</event>
<event>
12    1  0.1472088E-007  0.2525779E+04  0.7818608E-02  0.8393859E-01
         -2   -1    0    0    0  501 -0.00000000000E+00  0.00000000000E+00  0.93340371657E+03  0.93340371657E+03  0.00000000000E+00 0.  1.
          2   -1    0    0  501    0  0.00000000000E+00 -0.00000000000E+00 -0.17086820195E+04  0.17086820195E+04  0.00000000000E+00 0. -1.
         23    2    1    2    0    0  0.15818481304E+03 -0.86390433909E+03  0.35632689347E+03  0.95211243532E+03  0.90532272142E+02 0.  0.
        254    2    1    2    0    0 -0.15818481304E+03  0.86390433909E+03 -0.11316051964E+04  0.16899733007E+04  0.89673089305E+03 0.  0.
        -24    2    4    4    0    0  0.14677250585E+03  0.80508058859E+02 -0.73338231468E+03  0.75637501057E+03  0.78929215850E+02 0.  0.
         24    2    4    4    0    0 -0.30495731889E+03  0.78339628023E+03 -0.39822288170E+03  0.93359829017E+03  0.79470785026E+02 0.  0.
         11    1    3    3    0    0 -0.34908119704E+01 -0.38530616352E+01 -0.31077455095E+01  0.60572216674E+01  0.00000000000E+00 0. -1.
        -11    1    3    3    0    0  0.16167562501E+03 -0.86005127745E+03  0.35943463898E+03  0.94605521365E+03  0.00000000000E+00 0.  1.
          4    1    6    6  502    0 -0.15628609101E+03  0.30917540791E+03 -0.18596492880E+03  0.39318917818E+03  0.00000000000E+00 0. -1.
          1    1    5    5  503    0  0.11292986253E+03  0.45596563735E+02 -0.36463318737E+03  0.38443407992E+03  0.00000000000E+00 0. -1.
         -2    1    5    5    0  503  0.33842643325E+02  0.34911495125E+02 -0.36874912731E+03  0.37194093064E+03  0.00000000000E+00 0.  1.
         -3    1    6    6    0  502 -0.14867122789E+03  0.47422087232E+03 -0.21225795290E+03  0.54040911198E+03  0.00000000000E+00 0.  1.
<mgrwt>
<rscale>  0 0.25257792E+04</rscale>
<asrwt>0</asrwt>
<pdfrwt beam="1">  1        2 0.26287416E+00 0.25257792E+04</pdfrwt>
<pdfrwt beam="2">  1       -2 0.14360057E+00 0.25257792E+04</pdfrwt>
<totfact> 0.29016701E+00</totfact>
</mgrwt>
</event>
<event>
12    1  0.1472088E-007  0.1785721E+04  0.7818608E-02  0.8713930E-01
         -2   -1    0    0    0  501 -0.00000000000E+00  0.00000000000E+00  0.19936837350E+03  0.19936837350E+03  0.00000000000E+00 0.  1.
          2   -1    0    0  501    0  0.00000000000E+00 -0.00000000000E+00 -0.39986259313E+04  0.39986259313E+04  0.00000000000E+00 0. -1.
         23    2    1    2    0    0  0.18030765591E+03 -0.58600023297E+03 -0.10284559551E+04  0.12011338117E+04  0.95360674448E+02 0.  0.
        254    2    1    2    0    0 -0.18030765591E+03  0.58600023297E+03 -0.27708016028E+04  0.29968604931E+04  0.96328820700E+03 0.  0.
        -24    2    4    4    0    0 -0.32060128091E+03  0.78836126451E+03 -0.18129616919E+04  0.20043437315E+04  0.79151959718E+02 0.  0.
         24    2    4    4    0    0  0.14029362500E+03 -0.20236103154E+03 -0.95783991083E+03  0.99251676170E+03  0.83665639101E+02 0.  0.
         11    1    3    3    0    0  0.76864084351E+02 -0.20594143003E+03 -0.45653933021E+03  0.50670318738E+03  0.00000000000E+00 0. -1.
        -11    1    3    3    0    0  0.10344357156E+03 -0.38005880294E+03 -0.57191662488E+03  0.69443062433E+03  0.00000000000E+00 0.  1.
          4    1    6    6  502    0 -0.10231331196E+02 -0.14304645104E+02 -0.42100536391E+02  0.45626288190E+02  0.00000000000E+00 0. -1.
          3    1    5    5  503    0 -0.14883779814E+03  0.43965209662E+03 -0.92065860132E+03  0.10310474850E+04  0.00000000000E+00 0. -1.
         -4    1    5    5    0  503 -0.17176348277E+03  0.34870916789E+03 -0.89230309060E+03  0.97329624641E+03  0.00000000000E+00 0.  1.
         -3    1    6    6    0  502  0.15052495620E+03 -0.18805638643E+03 -0.91573937444E+03  0.94689047350E+03  0.00000000000E+00 0.  1.
<mgrwt>
<rscale>  0 0.17857206E+04</rscale>
<asrwt>0</asrwt>
<pdfrwt beam="1">  1        2 0.61517315E+00 0.17857206E+04</pdfrwt>
<pdfrwt beam="2">  1       -2 0.30672061E-01 0.17857206E+04</pdfrwt>
<totfact> 0.32374784E+00</totfact>
</mgrwt>
</event>
<event>
12    1  0.1472088E-007  0.1393909E+04  0.7818608E-02  0.8958240E-01
          2   -1    0    0  501    0  0.00000000000E+00  0.00000000000E+00  0.24066100096E+04  0.24066100096E+04  0.00000000000E+00 0.  1.
         -2   -1    0    0    0  501 -0.00000000000E+00 -0.00000000000E+00 -0.20183798360E+03  0.20183798360E+03  0.00000000000E+00 0. -1.
         23    2    1    2    0    0 -0.12962811776E+03  0.33517843953E+03  0.97916671038E+03  0.10463703081E+04  0.83518499390E+02 0.  0.
        254    2    1    2    0    0  0.12962811776E+03 -0.33517843953E+03  0.12256053156E+04  0.15620776851E+04  0.89934991487E+03 0.  0.
        -24    2    4    4    0    0  0.16444732778E+03 -0.60534795830E+03  0.10582336659E+04  0.12327661955E+04  0.79780492404E+02 0.  0.
         24    2    4    4    0    0 -0.34819210016E+02  0.27016951877E+03  0.16737164977E+03  0.32931148961E+03  0.78923011745E+02 0.  0.
         11    1    3    3    0    0 -0.44285552078E+02  0.22045985803E+03  0.63734216900E+03  0.67584672782E+03  0.00000000000E+00 0.  1.
        -11    1    3    3    0    0 -0.85342565685E+02  0.11471858150E+03  0.34182454138E+03  0.37052358029E+03  0.00000000000E+00 0. -1.
          2    1    6    6  502    0 -0.40066142201E+02  0.16153022920E+03  0.13917715238E+03  0.21695066361E+03  0.00000000000E+00 0. -1.
          1    1    5    5  503    0  0.13597835748E+03 -0.47280323478E+03  0.76243191852E+03  0.90737833504E+03  0.00000000000E+00 0. -1.
         -2    1    5    5    0  503  0.28468970298E+02 -0.13254472352E+03  0.29580174736E+03  0.32538786047E+03  0.00000000000E+00 0.  1.
         -1    1    6    6    0  502  0.52469321847E+01  0.10863928957E+03  0.28194497386E+02  0.11236082600E+03  0.00000000000E+00 0.  1.
<mgrwt>
<rscale>  0 0.13939086E+04</rscale>
<asrwt>0</asrwt>
<pdfrwt beam="1">  1        2 0.37024767E+00 0.13939086E+04</pdfrwt>
<pdfrwt beam="2">  1       -2 0.31051999E-01 0.13939086E+04</pdfrwt>
<totfact> 0.36999954E+01</totfact>
</mgrwt>
</event>
<event>
12    1  0.1472088E-007  0.1223142E+04  0.7818608E-02  0.9092839E-01
         -1   -1    0    0    0  501 -0.00000000000E+00  0.00000000000E+00  0.32850796840E+03  0.32850796840E+03  0.00000000000E+00 0.  1.
          1   -1    0    0  501    0  0.00000000000E+00 -0.00000000000E+00 -0.11385379307E+04  0.11385379307E+04  0.00000000000E+00 0. -1.
         23    2    1    2    0    0  0.12932499759E+03  0.22592943571E+03 -0.22333558372E+03  0.35535391996E+03  0.92890045484E+02 0.  0.
        254    2    1    2    0    0 -0.12932499759E+03 -0.22592943571E+03 -0.58669437862E+03  0.11116919792E+04  0.90767819064E+03 0.  0.
        -24    2    4    4    0    0 -0.46232671032E+03  0.74786013133E+02 -0.39322941795E+03  0.61665234292E+03  0.79320880295E+02 0.  0.
         24    2    4    4    0    0  0.33300171274E+03 -0.30071544885E+03 -0.19346496067E+03  0.49503963627E+03  0.79470929324E+02 0.  0.
         11    1    3    3    0    0  0.78528065186E+02  0.15441156174E+03 -0.88592260476E+02  0.19457177605E+03  0.00000000000E+00 0.  1.
        -11    1    3    3    0    0  0.50796932404E+02  0.71517873978E+02 -0.13474332325E+03  0.16078214391E+03  0.00000000000E+00 0. -1.
          4    1    6    6  502    0  0.22452414460E+03 -0.18611571189E+03 -0.85738999961E+02  0.30397586390E+03  0.00000000000E+00 0. -1.
          1    1    5    5  503    0 -0.36448306864E+03  0.66654165221E+02 -0.34884793990E+03  0.50890624897E+03  0.00000000000E+00 0. -1.
         -2    1    5    5    0  503 -0.97843641685E+02  0.81318479114E+01 -0.44381478051E+02  0.10774609396E+03  0.00000000000E+00 0.  1.
         -3    1    6    6    0  502  0.10847756813E+03 -0.11459973695E+03 -0.10772596071E+03  0.19106377236E+03  0.00000000000E+00 0.  1.
<mgrwt>
<rscale>  0 0.12231415E+04</rscale>
<asrwt>0</asrwt>
<pdfrwt beam="1">  1        1 0.17515968E+00 0.12231415E+04</pdfrwt>
<pdfrwt beam="2">  1       -1 0.50539687E-01 0.12231415E+04</pdfrwt>
<totfact> 0.46082513E+01</totfact>
</mgrwt>
</event>
<event>
12    1  0.1472088E-007  0.3655416E+04  0.7818608E-02  0.8077915E-01
         -2   -1    0    0    0  501 -0.00000000000E+00  0.00000000000E+00  0.18403357505E+04  0.18403357505E+04  0.00000000000E+00 0.  1.
          2   -1    0    0  501    0  0.00000000000E+00 -0.00000000000E+00 -0.18151672867E+04  0.18151672867E+04  0.00000000000E+00 0. -1.
         23    2    1    2    0    0 -0.42411729991E+03 -0.11902121794E+04  0.11728786384E+04  0.17265124024E+04  0.93382327376E+02 0.  0.
        254    2    1    2    0    0  0.42411729991E+03  0.11902121794E+04 -0.11477101745E+04  0.19289906348E+04  0.89849079481E+03 0.  0.
        -24    2    4    4    0    0 -0.23197176663E+03  0.51177221266E+03 -0.63547694816E+03  0.85266583344E+03  0.86523833145E+02 0.  0.
         24    2    4    4    0    0  0.65608906655E+03  0.67843996674E+03 -0.51223322638E+03  0.10763248014E+04  0.73202104641E+02 0.  0.
         13    1    3    3    0    0 -0.73557958786E+02 -0.12614666552E+03  0.15286321103E+03  0.21140226065E+03  0.00000000000E+00 0. -1.
        -13    1    3    3    0    0 -0.35055934113E+03 -0.10640655139E+04  0.10200154274E+04  0.15151101417E+04  0.00000000000E+00 0.  1.
          4    1    6    6  502    0  0.54365204829E+03  0.52484832460E+03 -0.42449129575E+03  0.86672727753E+03  0.00000000000E+00 0. -1.
          1    1    5    5  503    0 -0.21551234644E+03  0.43614649200E+03 -0.50680330787E+03  0.70250902259E+03  0.00000000000E+00 0. -1.
         -2    1    5    5    0  503 -0.16459420192E+02  0.75625720665E+02 -0.12867364029E+03  0.15015681085E+03  0.00000000000E+00 0.  1.
         -3    1    6    6    0  502  0.11243701826E+03  0.15359164214E+03 -0.87741930628E+02  0.20959752384E+03  0.00000000000E+00 0.  1.
<mgrwt>
<rscale>  0 0.36554164E+04</rscale>
<asrwt>0</asrwt>
<pdfrwt beam="1">  1        2 0.27925650E+00 0.36554164E+04</pdfrwt>
<pdfrwt beam="2">  1       -2 0.28312858E+00 0.36554164E+04</pdfrwt>
<totfact> 0.27673808E-01</totfact>
</mgrwt>
</event>
<event>
12    1  0.1472088E-007  0.2985625E+04  0.7818608E-02  0.8247848E-01
          1   -1    0    0  501    0  0.00000000000E+00  0.00000000000E+00  0.10042053554E+04  0.10042053554E+04  0.00000000000E+00 0. -1.
         -1   -1    0    0    0  501 -0.00000000000E+00 -0.00000000000E+00 -0.22191569123E+04  0.22191569123E+04  0.00000000000E+00 0.  1.
         23    2    1    2    0    0  0.92875339733E+03  0.75636347504E+03  0.11234578349E+03  0.12064034774E+04  0.90106580052E+02 0.  0.
        254    2    1    2    0    0 -0.92875339733E+03 -0.75636347504E+03 -0.13272973404E+04  0.20169587902E+04  0.93366800968E+03 0.  0.
        -24    2    4    4    0    0 -0.11576739703E+03 -0.35099033514E+03 -0.96394285338E+03  0.10354845721E+04  0.80288037267E+02 0.  0.
         24    2    4    4    0    0 -0.81298600030E+03 -0.40537313990E+03 -0.36335448701E+03  0.98147421813E+03  0.77405028151E+02 0.  0.
         13    1    3    3    0    0  0.48931077832E+03  0.45501264398E+03  0.53357437286E+02  0.67030482624E+03  0.00000000000E+00 0. -1.
        -13    1    3    3    0    0  0.43944261901E+03  0.30135083106E+03  0.58988346207E+02  0.53609865116E+03  0.00000000000E+00 0.  1.
          4    1    6    6  502    0 -0.41017498879E+03 -0.23626842951E+03 -0.21717922500E+03  0.52080044929E+03  0.00000000000E+00 0. -1.
          1    1    5    5  503    0 -0.21315827164E+02 -0.38925160276E+02 -0.60676473458E+02  0.75174244403E+02  0.00000000000E+00 0. -1.
         -2    1    5    5    0  503 -0.94451569865E+02 -0.31206517486E+03 -0.90326637992E+03  0.96031032771E+03  0.00000000000E+00 0.  1.
         -3    1    6    6    0  502 -0.40281101151E+03 -0.16910471039E+03 -0.14617526202E+03  0.46067376884E+03  0.00000000000E+00 0.  1.
<mgrwt>
<rscale>  0 0.29856251E+04</rscale>
<asrwt>0</asrwt>
<pdfrwt beam="1">  1        1 0.15449313E+00 0.29856251E+04</pdfrwt>
<pdfrwt beam="2">  1       -1 0.34140875E+00 0.29856251E+04</pdfrwt>
<totfact> 0.22657042E-01</totfact>
</mgrwt>
</event>
<event>
12    1  0.1472088E-007  0.1286485E+04  0.7818608E-02  0.9040352E-01
          2   -1    0    0  501    0  0.00000000000E+00  0.00000000000E+00  0.15598986333E+04  0.15598986333E+04  0.00000000000E+00 0.  1.
         -2   -1    0    0    0  501 -0.00000000000E+00 -0.00000000000E+00 -0.26524860388E+03  0.26524860388E+03  0.00000000000E+00 0. -1.
         23    2    1    2    0    0  0.20703666032E+03  0.77587250123E+02  0.68887586617E+02  0.24916653229E+03  0.91948361192E+02 0.  0.
        254    2    1    2    0    0 -0.20703666032E+03 -0.77587250123E+02  0.12257624428E+04  0.15759807049E+04  0.96557633355E+03 0.  0.
        -24    2    4    4    0    0  0.33956654264E+03  0.25573556614E+02  0.19220513244E+03  0.39950043690E+03  0.81843402131E+02 0.  0.
         24    2    4    4    0    0 -0.54660320295E+03 -0.10316080674E+03  0.10335573103E+04  0.11764802680E+04  0.80298777376E+02 0.  0.
         11    1    3    3    0    0  0.79966008144E+02  0.75916963011E+01 -0.14811353659E+02  0.81679694591E+02  0.00000000000E+00 0. -1.
        -11    1    3    3    0    0  0.12707065217E+03  0.69995553821E+02  0.83698940277E+02  0.16748683770E+03  0.00000000000E+00 0.  1.
          4    1    6    6  502    0 -0.37367789838E+03 -0.51957263913E+02  0.76523537925E+03  0.85318222829E+03  0.00000000000E+00 0. -1.
          3    1    5    5  503    0  0.27052483407E+03  0.20873011760E+02  0.11191523373E+03  0.29350364224E+03  0.00000000000E+00 0. -1.
         -4    1    5    5    0  503  0.69041708572E+02  0.47005448540E+01  0.80289898709E+02  0.10599679466E+03  0.00000000000E+00 0.  1.
         -3    1    6    6    0  502 -0.17292530458E+03 -0.51203542823E+02  0.26832193107E+03  0.32329803967E+03  0.00000000000E+00 0.  1.
<mgrwt>
<rscale>  0 0.12864850E+04</rscale>
<asrwt>0</asrwt>
<pdfrwt beam="1">  1        2 0.23998440E+00 0.12864850E+04</pdfrwt>
<pdfrwt beam="2">  1       -2 0.40807478E-01 0.12864850E+04</pdfrwt>
<totfact> 0.65499642E+01</totfact>
</mgrwt>
</event>
<event>
12    1  0.1472088E-007  0.1781768E+04  0.7818608E-02  0.8716055E-01
         -1   -1    0    0    0  501 -0.00000000000E+00  0.00000000000E+00  0.88534640887E+03  0.88534640887E+03  0.00000000000E+00 0.  1.
          1   -1    0    0  501    0  0.00000000000E+00 -0.00000000000E+00 -0.89645655995E+03  0.89645655995E+03  0.00000000000E+00 0. -1.
         23    2    1    2    0    0  0.24310922482E+03 -0.60286834623E+03  0.10215926660E+03  0.66601926079E+03  0.10292133843E+03 0.  0.
        254    2    1    2    0    0 -0.24310922482E+03  0.60286834623E+03 -0.11326941768E+03  0.11157837080E+04  0.89977274022E+03 0.  0.
        -24    2    4    4    0    0 -0.53494139390E+03  0.60029175644E+03 -0.82581979937E+02  0.81231980952E+03  0.80815850958E+02 0.  0.
         24    2    4    4    0    0  0.29183216907E+03  0.25765897904E+01 -0.30687437746E+02  0.30346389852E+03  0.77304366930E+02 0.  0.
         11    1    3    3    0    0  0.74543077964E+02 -0.13782524867E+03  0.66074365131E+02  0.17005378964E+03  0.00000000000E+00 0.  1.
        -11    1    3    3    0    0  0.16856614686E+03 -0.46504309757E+03  0.36084901471E+02  0.49596547115E+03  0.00000000000E+00 0. -1.
          2    1    6    6  502    0  0.25505832985E+03  0.19103932190E+02 -0.53160095166E+01  0.25582801217E+03  0.00000000000E+00 0. -1.
          3    1    5    5  503    0 -0.31777882625E+03  0.37160888448E+03 -0.11740359760E+02  0.48909547277E+03  0.00000000000E+00 0. -1.
         -4    1    5    5    0  503 -0.21716256765E+03  0.22868287197E+03 -0.70841620177E+02  0.32322433675E+03  0.00000000000E+00 0.  1.
         -1    1    6    6    0  502  0.36773839219E+02 -0.16527342400E+02 -0.25371428229E+02  0.47635886347E+02  0.00000000000E+00 0.  1.
<mgrwt>
<rscale>  0 0.17817683E+04</rscale>
<asrwt>0</asrwt>
<pdfrwt beam="1">  1        1 0.13791639E+00 0.17817683E+04</pdfrwt>
<pdfrwt beam="2">  1       -1 0.13620714E+00 0.17817683E+04</pdfrwt>
<totfact> 0.77956251E+00</totfact>
</mgrwt>
</event>
<event>
12    1  0.1954905E-007  0.1792488E+04  0.7818608E-02  0.8710305E-01
          2   -1    0    0  501    0  0.00000000000E+00  0.00000000000E+00  0.25654710456E+04  0.25654710456E+04  0.00000000000E+00 0. -1.
         -2   -1    0    0    0  501 -0.00000000000E+00 -0.00000000000E+00 -0.31310156736E+03  0.31310156736E+03  0.00000000000E+00 0.  1.
         23    2    1    2    0    0  0.14136159314E+03  0.38839370878E+02 -0.20111925969E+03  0.26508673854E+03  0.91271165155E+02 0.  0.
        254    2    1    2    0    0 -0.14136159314E+03 -0.38839370878E+02  0.24534887380E+04  0.26134858744E+04  0.88837482622E+03 0.  0.
        -24    2    4    4    0    0 -0.30610803331E+03 -0.26420060680E+03  0.21659132852E+04  0.22050055218E+04  0.85819015955E+02 0.  0.
         24    2    4    4    0    0  0.16474644017E+03  0.22536123593E+03  0.28757545274E+03  0.40848035262E+03  0.78914391900E+02 0.  0.
         11    1    3    3    0    0  0.10970471671E+03 -0.14481172329E+02 -0.13101192935E+03  0.17149039289E+03  0.00000000000E+00 0.  1.
        -11    1    3    3    0    0  0.31656876431E+02  0.53320543206E+02 -0.70107330337E+02  0.93596345656E+02  0.00000000000E+00 0. -1.
          4    1    6    6  502    0  0.15491374879E+03  0.18402650954E+03  0.20684615276E+03  0.31725282771E+03  0.00000000000E+00 0. -1.
          1    1    5    5  503    0 -0.25592669536E+03 -0.19730859589E+03  0.18602535003E+04  0.18881134078E+04  0.00000000000E+00 0. -1.
         -2    1    5    5    0  503 -0.50181337944E+02 -0.66892010914E+02  0.30565978494E+03  0.31689211402E+03  0.00000000000E+00 0.  1.
         -3    1    6    6    0  502  0.98326913754E+01  0.41334726382E+02  0.80729299983E+02  0.91227524906E+02  0.00000000000E+00 0.  1.
<mgrwt>
<rscale>  0 0.17924877E+04</rscale>
<asrwt>0</asrwt>
<pdfrwt beam="1">  1        2 0.39468784E+00 0.17924877E+04</pdfrwt>
<pdfrwt beam="2">  1       -2 0.48169473E-01 0.17924877E+04</pdfrwt>
<totfact> 0.12315280E+01</totfact>
</mgrwt>
</event>
<event>
12    1  0.1472088E-007  0.1757363E+04  0.7818608E-02  0.8729308E-01
          1   -1    0    0  501    0  0.00000000000E+00  0.00000000000E+00  0.20830442155E+04  0.20830442155E+04  0.00000000000E+00 0.  1.
         -1   -1    0    0    0  501 -0.00000000000E+00 -0.00000000000E+00 -0.37065045706E+03  0.37065045706E+03  0.00000000000E+00 0. -1.
         23    2    1    2    0    0 -0.31420250635E+03  0.55562949781E+03  0.76847202630E+03  0.10032163044E+04  0.91903995156E+02 0.  0.
        254    2    1    2    0    0  0.31420250635E+03 -0.55562949781E+03  0.94392173216E+03  0.14504783682E+04  0.89746972447E+03 0.  0.
        -24    2    4    4    0    0  0.39576505600E+03 -0.16441117575E+03  0.94697485741E+03  0.10426177241E+04  0.81420660012E+02 0.  0.
         24    2    4    4    0    0 -0.81562549651E+02 -0.39121832207E+03 -0.30531252502E+01  0.40786064405E+03  0.81466302037E+02 0.  0.
         13    1    3    3    0    0  0.17732202330E+01 -0.19331774425E+01  0.52481781990E-01  0.26237834050E+01  0.00000000000E+00 0. -1.
        -13    1    3    3    0    0 -0.31597572658E+03  0.55756267526E+03  0.76841954452E+03  0.10005925210E+04  0.00000000000E+00 0.  1.
          4    1    6    6  502    0 -0.92147532006E+02 -0.30123447888E+03  0.15427410486E+02  0.31539084311E+03  0.00000000000E+00 0. -1.
          3    1    5    5  503    0  0.23596796153E+03 -0.77188968301E+02  0.45994054809E+03  0.52267037746E+03  0.00000000000E+00 0. -1.
         -4    1    5    5    0  503  0.15979709447E+03 -0.87222207444E+02  0.48703430932E+03  0.51994734668E+03  0.00000000000E+00 0.  1.
         -3    1    6    6    0  502  0.10584982355E+02 -0.89983843188E+02 -0.18480535737E+02  0.92469800948E+02  0.00000000000E+00 0.  1.
<mgrwt>
<rscale>  0 0.17573631E+04</rscale>
<asrwt>0</asrwt>
<pdfrwt beam="1">  1        1 0.32046833E+00 0.17573631E+04</pdfrwt>
<pdfrwt beam="2">  1       -1 0.57023148E-01 0.17573631E+04</pdfrwt>
<totfact> 0.77192593E+00</totfact>
</mgrwt>
</event>
<event>
12    1  0.1472088E-007  0.1501528E+04  0.7818608E-02  0.8883438E-01
          2   -1    0    0  501    0  0.00000000000E+00  0.00000000000E+00  0.14026459173E+04  0.14026459173E+04  0.00000000000E+00 0.  1.
         -2   -1    0    0    0  501 -0.00000000000E+00 -0.00000000000E+00 -0.40184515148E+03  0.40184515148E+03  0.00000000000E+00 0. -1.
         23    2    1    2    0    0  0.92932694429E+01 -0.43237785269E+03  0.91078791180E+02  0.45129075561E+03  0.91274462685E+02 0.  0.
        254    2    1    2    0    0 -0.92932694429E+01  0.43237785269E+03  0.90972197463E+03  0.13532003132E+04  0.90361498663E+03 0.  0.
        -24    2    4    4    0    0 -0.12234680304E+02  0.53287004021E+03  0.11827772975E+03  0.55150610475E+03  0.77905038716E+02 0.  0.
         24    2    4    4    0    0  0.29414108607E+01 -0.10049218752E+03  0.79144424488E+03  0.80169420842E+03  0.78881426169E+02 0.  0.
         13    1    3    3    0    0  0.17867982478E+02 -0.39469162303E+03  0.55903920732E+02  0.39903131511E+03  0.00000000000E+00 0. -1.
        -13    1    3    3    0    0 -0.85747130349E+01 -0.37686229664E+02  0.35174870448E+02  0.52259440496E+02  0.00000000000E+00 0.  1.
          2    1    6    6  502    0 -0.31598871177E+02 -0.27239043104E+02  0.17246115122E+03  0.17743534825E+03  0.00000000000E+00 0. -1.
          3    1    5    5  503    0  0.24757414568E+02  0.33503231993E+03  0.54230489563E+02  0.34029477071E+03  0.00000000000E+00 0. -1.
         -4    1    5    5    0  503 -0.36992094871E+02  0.19783772029E+03  0.64047240185E+02  0.21121133404E+03  0.00000000000E+00 0.  1.
         -1    1    6    6    0  502  0.34540282038E+02 -0.73253144419E+02  0.61898309367E+03  0.62425886017E+03  0.00000000000E+00 0.  1.
<mgrwt>
<rscale>  0 0.15015278E+04</rscale>
<asrwt>0</asrwt>
<pdfrwt beam="1">  1        2 0.21579168E+00 0.15015278E+04</pdfrwt>
<pdfrwt beam="2">  1       -2 0.61822332E-01 0.15015278E+04</pdfrwt>
<totfact> 0.33856445E+01</totfact>
</mgrwt>
</event>
<event>
12    1  0.1472088E-007  0.1220122E+04  0.7818608E-02  0.9095424E-01
         -1   -1    0    0    0  501 -0.00000000000E+00  0.00000000000E+00  0.15222304055E+03  0.15222304055E+03  0.00000000000E+00 0.  1.
          1   -1    0    0  501    0  0.00000000000E+00 -0.00000000000E+00 -0.24449272576E+04  0.24449272576E+04  0.00000000000E+00 0. -1.
         23    2    1    2    0    0 -0.25013336495E+03  0.16494901727E+02 -0.51316348287E+03  0.57831166531E+03  0.90933162477E+02 0.  0.
        254    2    1    2    0    0  0.25013336495E+03 -0.16494901727E+02 -0.17795407342E+04  0.20188386328E+04  0.91983988757E+03 0.  0.
        -24    2    4    4    0    0  0.25940440620E+03  0.27765695534E+03 -0.25584241929E+03  0.46493411994E+03  0.79525854704E+02 0.  0.
         24    2    4    4    0    0 -0.92710412515E+01 -0.29415185707E+03 -0.15236983149E+04  0.15539045129E+04  0.79695753831E+02 0.  0.
         13    1    3    3    0    0 -0.29712103080E+02  0.33421577757E+02 -0.69937349659E+02  0.83012311174E+02  0.00000000000E+00 0.  1.
        -13    1    3    3    0    0 -0.22042126187E+03 -0.16926676030E+02 -0.44322613321E+03  0.49529935414E+03  0.00000000000E+00 0. -1.
          2    1    6    6  502    0 -0.34836995768E+01 -0.42030682273E+01 -0.14172685832E+03  0.14183195801E+03  0.00000000000E+00 0. -1.
          1    1    5    5  503    0  0.74841685791E+02  0.62689720085E+02 -0.28588306033E+02  0.10172792231E+03  0.00000000000E+00 0. -1.
         -2    1    5    5    0  503  0.18456272041E+03  0.21496723526E+03 -0.22725411326E+03  0.36320619762E+03  0.00000000000E+00 0.  1.
         -1    1    6    6    0  502 -0.57873416748E+01 -0.28994878884E+03 -0.13819714566E+04  0.14120725549E+04  0.00000000000E+00 0.  1.
<mgrwt>
<rscale>  0 0.12201217E+04</rscale>
<asrwt>0</asrwt>
<pdfrwt beam="1">  1        1 0.37614264E+00 0.12201217E+04</pdfrwt>
<pdfrwt beam="2">  1       -1 0.23418930E-01 0.12201217E+04</pdfrwt>
<totfact> 0.23022808E+01</totfact>
</mgrwt>
</event>
<event>
12    1  0.1472088E-007  0.1548841E+04  0.7818608E-02  0.8852608E-01
          1   -1    0    0  501    0  0.00000000000E+00  0.00000000000E+00  0.11714919251E+04  0.11714919251E+04  0.00000000000E+00 0. -1.
         -1   -1    0    0    0  501 -0.00000000000E+00 -0.00000000000E+00 -0.51193449806E+03  0.51193449806E+03  0.00000000000E+00 0.  1.
         23    2    1    2    0    0 -0.38337911412E+03  0.93924958114E+02  0.52181567831E+03  0.66089435786E+03  0.93211089595E+02 0.  0.
        254    2    1    2    0    0  0.38337911412E+03 -0.93924958114E+02  0.13774174870E+03  0.10225320653E+04  0.93316536170E+03 0.  0.
        -24    2    4    4    0    0  0.26726558997E+03  0.16464610036E+03  0.47538301994E+03  0.57527512484E+03  0.80082580300E+02 0.  0.
         24    2    4    4    0    0  0.11611352415E+03 -0.25857105847E+03 -0.33764127124E+03  0.44725694043E+03  0.75470523735E+02 0.  0.
         11    1    3    3    0    0 -0.25616578553E+03  0.75131429387E+02  0.41634742722E+03  0.49458146095E+03  0.00000000000E+00 0. -1.
        -11    1    3    3    0    0 -0.12721332859E+03  0.18793528726E+02  0.10546825109E+03  0.16631289692E+03  0.00000000000E+00 0.  1.
          4    1    6    6  502    0  0.10782574551E+03 -0.15197679929E+03 -0.21898339943E+03  0.28753620319E+03  0.00000000000E+00 0. -1.
          3    1    5    5  503    0  0.54850195137E+02  0.64545078022E+02  0.17111804560E+03  0.19093453468E+03  0.00000000000E+00 0. -1.
         -4    1    5    5    0  503  0.21241539483E+03  0.10010102233E+03  0.30426497434E+03  0.38434059016E+03  0.00000000000E+00 0.  1.
         -3    1    6    6    0  502  0.82877786447E+01 -0.10659425917E+03 -0.11865787181E+03  0.15972073725E+03  0.00000000000E+00 0.  1.
<mgrwt>
<rscale>  0 0.15488410E+04</rscale>
<asrwt>0</asrwt>
<pdfrwt beam="1">  1        1 0.18022953E+00 0.15488410E+04</pdfrwt>
<pdfrwt beam="2">  1       -1 0.78759154E-01 0.15488410E+04</pdfrwt>
<totfact> 0.17426773E+01</totfact>
</mgrwt>
</event>
<event>
12    1  0.1472088E-007  0.2934965E+04  0.7818608E-02  0.8262550E-01
         -2   -1    0    0    0  501 -0.00000000000E+00  0.00000000000E+00  0.10370621544E+04  0.10370621544E+04  0.00000000000E+00 0.  1.
          2   -1    0    0  501    0  0.00000000000E+00 -0.00000000000E+00 -0.20765439203E+04  0.20765439203E+04  0.00000000000E+00 0. -1.
         23    2    1    2    0    0  0.51371125252E+03  0.87812211541E+03 -0.13677140153E+04  0.17070030687E+04  0.90665033566E+02 0.  0.
        254    2    1    2    0    0 -0.51371125252E+03 -0.87812211541E+03  0.32823224940E+03  0.14066030060E+04  0.91421983485E+03 0.  0.
        -24    2    4    4    0    0 -0.73396207845E+03 -0.78587808612E+03  0.12960236429E+03  0.10859946964E+04  0.79265433637E+02 0.  0.
         24    2    4    4    0    0  0.22025082592E+03 -0.92244029296E+02  0.19862988510E+03  0.32060830960E+03  0.79476220782E+02 0.  0.
         11    1    3    3    0    0  0.18499483446E+03  0.27042268765E+03 -0.50062563757E+03  0.59831224939E+03  0.00000000000E+00 0. -1.
        -11    1    3    3    0    0  0.32871641807E+03  0.60769942777E+03 -0.86708837775E+03  0.11086908193E+04  0.00000000000E+00 0.  1.
          2    1    6    6  502    0  0.21987592922E+03 -0.10065860423E+03  0.19726523733E+03  0.31207555610E+03  0.00000000000E+00 0. -1.
          3    1    5    5  503    0 -0.39162154519E+03 -0.42990666652E+03  0.30941134057E+02  0.58236116830E+03  0.00000000000E+00 0. -1.
         -4    1    5    5    0  503 -0.34234053326E+03 -0.35597141960E+03  0.98661230237E+02  0.50363352811E+03  0.00000000000E+00 0.  1.
         -1    1    6    6    0  502  0.37489670061E+00  0.84145749323E+01  0.13646477784E+01  0.85327535055E+01  0.00000000000E+00 0.  1.
<mgrwt>
<rscale>  0 0.29349652E+04</rscale>
<asrwt>0</asrwt>
<pdfrwt beam="1">  1        2 0.31946830E+00 0.29349652E+04</pdfrwt>
<pdfrwt beam="2">  1       -2 0.15954802E+00 0.29349652E+04</pdfrwt>
<totfact> 0.13230004E+00</totfact>
</mgrwt>
</event>
<event>
12    1  0.1472088E-007  0.2354198E+04  0.7818608E-02  0.8456853E-01
         -1   -1    0    0    0  501 -0.00000000000E+00  0.00000000000E+00  0.67898244825E+03  0.67898244825E+03  0.00000000000E+00 0.  1.
          1   -1    0    0  501    0  0.00000000000E+00 -0.00000000000E+00 -0.20406456224E+04  0.20406456224E+04  0.00000000000E+00 0. -1.
         23    2    1    2    0    0 -0.18082887617E+03 -0.52734011571E+03 -0.15756085656E+04  0.16738404279E+04  0.91721022412E+02 0.  0.
        254    2    1    2    0    0  0.18082887617E+03  0.52734011571E+03  0.21394539145E+03  0.10457876428E+04  0.85855255119E+03 0.  0.
        -24    2    4    4    0    0  0.25915090331E+03  0.62196017095E+02  0.43706998504E+03  0.51791959688E+03  0.78632065857E+02 0.  0.
         24    2    4    4    0    0 -0.78322027140E+02  0.46514409862E+03 -0.22312459359E+03  0.52786804589E+03  0.79791711302E+02 0.  0.
         11    1    3    3    0    0 -0.17771786995E+03 -0.43808540310E+03 -0.12574552481E+04  0.13433898029E+04  0.00000000000E+00 0. -1.
        -11    1    3    3    0    0 -0.31110062235E+01 -0.89254712614E+02 -0.31815331758E+03  0.33045062501E+03  0.00000000000E+00 0.  1.
          2    1    6    6  502    0 -0.81954928583E+02  0.27339672808E+03 -0.11505814143E+03  0.30773488128E+03  0.00000000000E+00 0. -1.
          3    1    5    5  503    0  0.16127412635E+03  0.63182492112E+02  0.22161744292E+03  0.28127506492E+03  0.00000000000E+00 0. -1.
         -4    1    5    5    0  503  0.97876776964E+02 -0.98647501701E+00  0.21545254212E+03  0.23664453196E+03  0.00000000000E+00 0.  1.
         -1    1    6    6    0  502  0.36329014428E+01  0.19174737054E+03 -0.10806645216E+03  0.22013316461E+03  0.00000000000E+00 0.  1.
<mgrwt>
<rscale>  0 0.23541984E+04</rscale>
<asrwt>0</asrwt>
<pdfrwt beam="1">  1        1 0.31394547E+00 0.23541984E+04</pdfrwt>
<pdfrwt beam="2">  1       -1 0.10445884E+00 0.23541984E+04</pdfrwt>
<totfact> 0.21674832E+00</totfact>
</mgrwt>
</event>
<event>
12    1  0.1472088E-007  0.2279553E+04  0.7818608E-02  0.8486027E-01
         -2   -1    0    0    0  501 -0.00000000000E+00  0.00000000000E+00  0.94515548415E+03  0.94515548415E+03  0.00000000000E+00 0.  1.
          2   -1    0    0  501    0  0.00000000000E+00 -0.00000000000E+00 -0.13744725315E+04  0.13744725315E+04  0.00000000000E+00 0. -1.
         23    2    1    2    0    0 -0.23220149839E+03 -0.64773497073E+03 -0.84422834513E+03  0.10927599500E+04  0.89020680400E+02 0.  0.
        254    2    1    2    0    0  0.23220149839E+03  0.64773497073E+03  0.41491129778E+03  0.12268680656E+04  0.92713307417E+03 0.  0.
        -24    2    4    4    0    0 -0.80663791907E+02 -0.15807792005E+03  0.29232620008E+03  0.35055160252E+03  0.77048962636E+02 0.  0.
         24    2    4    4    0    0  0.31286529030E+03  0.80581289078E+03  0.12258509770E+03  0.87631646308E+03  0.75394512281E+02 0.  0.
         11    1    3    3    0    0 -0.32059135251E+02 -0.27953217758E+02 -0.52336573502E+02  0.67440992446E+02  0.00000000000E+00 0.  1.
        -11    1    3    3    0    0 -0.20014236314E+03 -0.61978175297E+03 -0.79189177163E+03  0.10253189576E+04  0.00000000000E+00 0. -1.
          4    1    6    6  502    0  0.44529090759E+02  0.67591406591E+02  0.25493500515E+02  0.84860808017E+02  0.00000000000E+00 0. -1.
          1    1    5    5  503    0 -0.10090553507E+02  0.59026880361E+01  0.38476818616E+02  0.40213512243E+02  0.00000000000E+00 0. -1.
         -2    1    5    5    0  503 -0.70573238400E+02 -0.16398060808E+03  0.25384938147E+03  0.31033809028E+03  0.00000000000E+00 0.  1.
         -3    1    6    6    0  502  0.26833619954E+03  0.73822148419E+03  0.97091597186E+02  0.79145565507E+03  0.00000000000E+00 0.  1.
<mgrwt>
<rscale>  0 0.22795528E+04</rscale>
<asrwt>0</asrwt>
<pdfrwt beam="1">  1        2 0.21145731E+00 0.22795528E+04</pdfrwt>
<pdfrwt beam="2">  1       -2 0.14540854E+00 0.22795528E+04</pdfrwt>
<totfact> 0.44217941E+00</totfact>
</mgrwt>
</event>
<event>
12    1  0.1472088E-007  0.1542772E+04  0.7818608E-02  0.8856498E-01
         -1   -1    0    0    0  501 -0.00000000000E+00  0.00000000000E+00  0.38691827326E+03  0.38691827326E+03  0.00000000000E+00 0.  1.
          1   -1    0    0  501    0  0.00000000000E+00 -0.00000000000E+00 -0.15378859993E+04  0.15378859993E+04  0.00000000000E+00 0. -1.
         23    2    1    2    0    0  0.41913003503E+02 -0.28821917264E+03  0.10983608193E+03  0.32390837107E+03  0.89586140781E+02 0.  0.
        254    2    1    2    0    0 -0.41913003503E+02  0.28821917264E+03 -0.12608038080E+04  0.16008959015E+04  0.94255740085E+03 0.  0.
        -24    2    4    4    0    0  0.57310906945E+02  0.33876020236E+03 -0.20628937323E+02  0.35326840196E+03  0.79561272052E+02 0.  0.
         24    2    4    4    0    0 -0.99223910449E+02 -0.50541029722E+02 -0.12401748707E+04  0.12476274995E+04  0.78363816389E+02 0.  0.
         13    1    3    3    0    0 -0.45579078237E+01 -0.14972459516E+02  0.32624974787E+02  0.36184776462E+02  0.00000000000E+00 0. -1.
        -13    1    3    3    0    0  0.46470911327E+02 -0.27324671312E+03  0.77211107144E+02  0.28772359461E+03  0.00000000000E+00 0.  1.
          4    1    6    6  502    0 -0.78415778904E+02 -0.54863757410E+02 -0.11787746404E+04  0.11826532540E+04  0.00000000000E+00 0. -1.
          3    1    5    5  503    0  0.69413181033E+02  0.22613154079E+03 -0.34863004340E+02  0.23910059078E+03  0.00000000000E+00 0. -1.
         -4    1    5    5    0  503 -0.12102274088E+02  0.11262866157E+03  0.14234067017E+02  0.11416781117E+03  0.00000000000E+00 0.  1.
         -3    1    6    6    0  502 -0.20808131545E+02  0.43227276878E+01 -0.61400230229E+02  0.64974245553E+02  0.00000000000E+00 0.  1.
<mgrwt>
<rscale>  0 0.15427718E+04</rscale>
<asrwt>0</asrwt>
<pdfrwt beam="1">  1        1 0.23659784E+00 0.15427718E+04</pdfrwt>
<pdfrwt beam="2">  1       -1 0.59525889E-01 0.15427718E+04</pdfrwt>
<totfact> 0.16984364E+01</totfact>
</mgrwt>
</event>
<event>
12    1  0.1472088E-007  0.1510344E+04  0.7818608E-02  0.8877603E-01
         -1   -1    0    0    0  501 -0.00000000000E+00  0.00000000000E+00  0.21276819903E+04  0.21276819903E+04  0.00000000000E+00 0.  1.
          1   -1    0    0  501    0  0.00000000000E+00 -0.00000000000E+00 -0.26803113711E+03  0.26803113711E+03  0.00000000000E+00 0. -1.
         23    2    1    2    0    0  0.26314564127E+03  0.37803227100E+03  0.88075672495E+03  0.10013345381E+04  0.12159120961E+03 0.  0.
        254    2    1    2    0    0 -0.26314564127E+03 -0.37803227100E+03  0.97889412824E+03  0.13943785893E+04  0.87971808527E+03 0.  0.
        -24    2    4    4    0    0 -0.35270690465E+03  0.71627361645E+02  0.73867404254E+02  0.37611313773E+03  0.80449110840E+02 0.  0.
         24    2    4    4    0    0  0.89561263382E+02 -0.44965963264E+03  0.90502672399E+03  0.10182654516E+04  0.87041102941E+02 0.  0.
         11    1    3    3    0    0  0.41737155214E+02  0.72303401245E+01  0.54587873086E+02  0.69094890055E+02  0.00000000000E+00 0.  1.
        -11    1    3    3    0    0  0.22140848605E+03  0.37080193088E+03  0.82616885186E+03  0.93223964806E+03  0.00000000000E+00 0. -1.
          2    1    6    6  502    0  0.74926307085E+02 -0.43867211904E+03  0.88798191380E+03  0.99325679396E+03  0.00000000000E+00 0. -1.
          1    1    5    5  503    0 -0.18791669435E+03  0.42204971484E+02  0.80125027962E+02  0.20860000896E+03  0.00000000000E+00 0. -1.
         -2    1    5    5    0  503 -0.16479021030E+03  0.29422390161E+02 -0.62576237077E+01  0.16751312876E+03  0.00000000000E+00 0.  1.
         -1    1    6    6    0  502  0.14634956297E+02 -0.10987513603E+02  0.17044810189E+02  0.25008657608E+02  0.00000000000E+00 0.  1.
<mgrwt>
<rscale>  0 0.15103444E+04</rscale>
<asrwt>0</asrwt>
<pdfrwt beam="1">  1        1 0.41235561E-01 0.15103444E+04</pdfrwt>
<pdfrwt beam="2">  1       -1 0.32733568E+00 0.15103444E+04</pdfrwt>
<totfact> 0.21595842E+00</totfact>
</mgrwt>
</event>
<event>
12    1  0.1472088E-007  0.1601896E+04  0.7818608E-02  0.8819384E-01
          2   -1    0    0  501    0  0.00000000000E+00  0.00000000000E+00  0.19701367279E+04  0.19701367279E+04  0.00000000000E+00 0. -1.
         -2   -1    0    0    0  501 -0.00000000000E+00 -0.00000000000E+00 -0.32562071643E+03  0.32562071643E+03  0.00000000000E+00 0.  1.
         23    2    1    2    0    0  0.25638401012E+03  0.25901472727E+03 -0.14567251388E-01  0.37591136874E+03  0.92130165252E+02 0.  0.
        254    2    1    2    0    0 -0.25638401012E+03 -0.25901472727E+03  0.16445305787E+04  0.19198460755E+04  0.92114425579E+03 0.  0.
        -24    2    4    4    0    0 -0.15107536205E+03 -0.45522211842E+03  0.16089138973E+04  0.16807540567E+04  0.79242210310E+02 0.  0.
         24    2    4    4    0    0 -0.10530864806E+03  0.19620739115E+03  0.35616681340E+02  0.23909201886E+03  0.79430433672E+02 0.  0.
         11    1    3    3    0    0  0.22060304865E+03  0.23306560486E+03 -0.30285852494E+02  0.32233912903E+03  0.00000000000E+00 0.  1.
        -11    1    3    3    0    0  0.35780961468E+02  0.25949122411E+02  0.30271285242E+02  0.53572239712E+02  0.00000000000E+00 0. -1.
          4    1    6    6  502    0 -0.34703030630E+02  0.21455280516E+02  0.29802987884E+02  0.50525711116E+02  0.00000000000E+00 0. -1.
          3    1    5    5  503    0  0.58040678435E+01 -0.43517069979E+02  0.19030961369E+03  0.19530788935E+03  0.00000000000E+00 0. -1.
         -4    1    5    5    0  503 -0.15687942990E+03 -0.41170504844E+03  0.14186042836E+04  0.14854461673E+04  0.00000000000E+00 0.  1.
         -3    1    6    6    0  502 -0.70605617431E+02  0.17475211063E+03  0.58136934555E+01  0.18856630774E+03  0.00000000000E+00 0.  1.
<mgrwt>
<rscale>  0 0.16018955E+04</rscale>
<asrwt>0</asrwt>
<pdfrwt beam="1">  1        2 0.30309795E+00 0.16018955E+04</pdfrwt>
<pdfrwt beam="2">  1       -2 0.50095496E-01 0.16018955E+04</pdfrwt>
<totfact> 0.25093026E+01</totfact>
</mgrwt>
</event>
<event>
12    1  0.1483831E-007  0.2012031E+04  0.7818608E-02  0.8601016E-01
          1   -1    0    0  501    0  0.00000000000E+00  0.00000000000E+00  0.12785684762E+04  0.12785684762E+04  0.00000000000E+00 0. -1.
         -1   -1    0    0    0  501 -0.00000000000E+00 -0.00000000000E+00 -0.79156302893E+03  0.79156302893E+03  0.00000000000E+00 0.  1.
         23    2    1    2    0    0  0.71784399157E+03  0.40890477753E+01  0.62474848202E+03  0.95616725739E+03  0.92889406101E+02 0.  0.
        254    2    1    2    0    0 -0.71784399157E+03 -0.40890477753E+01 -0.13774303478E+03  0.11139642477E+04  0.84061078092E+03 0.  0.
        -24    2    4    4    0    0 -0.71171844922E+03  0.48330002734E+02  0.21431187412E+03  0.74936326121E+03  0.82077876055E+02 0.  0.
         24    2    4    4    0    0 -0.61255423524E+01 -0.52419050510E+02 -0.35205490891E+03  0.36460098650E+03  0.78777797287E+02 0.  0.
         13    1    3    3    0    0  0.71691216922E+03 -0.86957890926E+00  0.61254119751E+03  0.94295839420E+03  0.00000000000E+00 0. -1.
        -13    1    3    3    0    0  0.93182234709E+00  0.49586266845E+01  0.12207284516E+02  0.13208863189E+02  0.00000000000E+00 0.  1.
          4    1    6    6  502    0 -0.32176578824E+02  0.19655133755E+01 -0.87197076941E+02  0.92965185391E+02  0.00000000000E+00 0. -1.
          3    1    5    5  503    0 -0.34335720081E+01  0.42158413713E+01 -0.41512825373E+01  0.68407515601E+01  0.00000000000E+00 0. -1.
         -4    1    5    5    0  503 -0.70828487721E+03  0.44114161363E+02  0.21846315666E+03  0.74252250965E+03  0.00000000000E+00 0.  1.
         -3    1    6    6    0  502  0.26051036472E+02 -0.54384563885E+02 -0.26485783196E+03  0.27163580111E+03  0.00000000000E+00 0.  1.
<mgrwt>
<rscale>  0 0.20120313E+04</rscale>
<asrwt>0</asrwt>
<pdfrwt beam="1">  1        1 0.19670284E+00 0.20120313E+04</pdfrwt>
<pdfrwt beam="2">  1       -1 0.12177893E+00 0.20120313E+04</pdfrwt>
<totfact> 0.51855668E+00</totfact>
</mgrwt>
</event>
<event>
12    1  0.1472088E-007  0.1640653E+04  0.7818608E-02  0.8795955E-01
         -2   -1    0    0    0  501 -0.00000000000E+00  0.00000000000E+00  0.46997111943E+03  0.46997111943E+03  0.00000000000E+00 0.  1.
          2   -1    0    0  501    0  0.00000000000E+00 -0.00000000000E+00 -0.14318662286E+04  0.14318662286E+04  0.00000000000E+00 0. -1.
         23    2    1    2    0    0 -0.63339810830E+02 -0.88188570976E+02  0.31095874134E+03  0.34165522092E+03  0.90795349423E+02 0.  0.
        254    2    1    2    0    0  0.63339810830E+02  0.88188570976E+02 -0.12728538505E+04  0.15601821272E+04  0.89566857117E+03 0.  0.
        -24    2    4    4    0    0  0.31912724424E+03 -0.33163431926E+02 -0.93392946391E+02  0.34465075296E+03  0.84379427868E+02 0.  0.
         24    2    4    4    0    0 -0.25578743341E+03  0.12135200290E+03 -0.11794609042E+04  0.12155313742E+04  0.78961873897E+02 0.  0.
         13    1    3    3    0    0  0.24573753424E+00 -0.25515361163E+02  0.18787808106E+03  0.18960292029E+03  0.00000000000E+00 0.  1.
        -13    1    3    3    0    0 -0.63585548364E+02 -0.62673209813E+02  0.12308066028E+03  0.15205230062E+03  0.00000000000E+00 0. -1.
          2    1    6    6  502    0 -0.89741341990E+02  0.44133287220E+02 -0.58558785983E+03  0.59406598715E+03  0.00000000000E+00 0. -1.
          1    1    5    5  503    0  0.31876824405E+03 -0.34227259752E+02 -0.10164101312E+03  0.33632661844E+03  0.00000000000E+00 0. -1.
         -2    1    5    5    0  503  0.35900019546E+00  0.10638278264E+01  0.82480667293E+01  0.83241345230E+01  0.00000000000E+00 0.  1.
         -1    1    6    6    0  502 -0.16604609142E+03  0.77218715682E+02 -0.59387304433E+03  0.62146538705E+03  0.00000000000E+00 0.  1.
<mgrwt>
<rscale>  0 0.16406533E+04</rscale>
<asrwt>0</asrwt>
<pdfrwt beam="1">  1        2 0.22028711E+00 0.16406533E+04</pdfrwt>
<pdfrwt beam="2">  1       -2 0.72303249E-01 0.16406533E+04</pdfrwt>
<totfact> 0.22966892E+01</totfact>
</mgrwt>
</event>
<event>
12    1  0.1472088E-007  0.1182194E+04  0.7818608E-02  0.9128587E-01
         -1   -1    0    0    0  501 -0.00000000000E+00  0.00000000000E+00  0.21375793772E+03  0.21375793772E+03  0.00000000000E+00 0.  1.
          1   -1    0    0  501    0  0.00000000000E+00 -0.00000000000E+00 -0.16345381375E+04  0.16345381375E+04  0.00000000000E+00 0. -1.
         23    2    1    2    0    0  0.16944193320E+02 -0.22220569299E+03 -0.48761229493E+03  0.54388496331E+03  0.91556689908E+02 0.  0.
        254    2    1    2    0    0 -0.16944193320E+02  0.22220569299E+03 -0.93316790485E+03  0.13044111119E+04  0.88375535899E+03 0.  0.
        -24    2    4    4    0    0  0.96590153242E+02  0.30261623140E+03  0.29005723573E+02  0.32938582319E+03  0.82142846952E+02 0.  0.
         24    2    4    4    0    0 -0.11353434656E+03 -0.80410538412E+02 -0.96217362842E+03  0.97502528872E+03  0.74433325047E+02 0.  0.
         13    1    3    3    0    0  0.29195519047E+02 -0.95514624119E+02 -0.30767810220E+03  0.32348297687E+03  0.00000000000E+00 0. -1.
        -13    1    3    3    0    0 -0.12251325727E+02 -0.12669106887E+03 -0.17993419273E+03  0.22040198644E+03  0.00000000000E+00 0.  1.
          4    1    6    6  502    0 -0.10741928527E+03 -0.79593962416E+02 -0.95863571402E+03  0.96791349505E+03  0.00000000000E+00 0. -1.
          3    1    5    5  503    0  0.24639912721E+02  0.20393265636E+03  0.27499839994E+02  0.20724838920E+03  0.00000000000E+00 0. -1.
         -2    1    5    5    0  503  0.71950240521E+02  0.98683575042E+02  0.15058835788E+01  0.12213743398E+03  0.00000000000E+00 0.  1.
         -3    1    6    6    0  502 -0.61150612881E+01 -0.81657599613E+00 -0.35379144002E+01  0.71117936710E+01  0.00000000000E+00 0.  1.
<mgrwt>
<rscale>  0 0.11821937E+04</rscale>
<asrwt>0</asrwt>
<pdfrwt beam="1">  1        1 0.25146742E+00 0.11821937E+04</pdfrwt>
<pdfrwt beam="2">  1       -1 0.32885835E-01 0.11821937E+04</pdfrwt>
<totfact> 0.45422339E+01</totfact>
</mgrwt>
</event>
<event>
12    1  0.1472088E-007  0.2073264E+04  0.7818608E-02  0.8573113E-01
         -1   -1    0    0    0  501 -0.00000000000E+00  0.00000000000E+00  0.11112834907E+04  0.11112834907E+04  0.00000000000E+00 0.  1.
          1   -1    0    0  501    0  0.00000000000E+00 -0.00000000000E+00 -0.96699550392E+03  0.96699550392E+03  0.00000000000E+00 0. -1.
         23    2    1    2    0    0 -0.21516724526E+02  0.83918781762E+03  0.10011565896E+02  0.84425140260E+03  0.89224641551E+02 0.  0.
        254    2    1    2    0    0  0.21516724526E+02 -0.83918781762E+03  0.13427642093E+03  0.12340275921E+04  0.89448017200E+03 0.  0.
        -24    2    4    4    0    0 -0.20670634942E+03 -0.71578261141E+02 -0.24989397800E+03  0.34223430885E+03  0.82621786217E+02 0.  0.
         24    2    4    4    0    0  0.22822307394E+03 -0.76760955648E+03  0.38417039893E+03  0.89179328322E+03  0.79988511058E+02 0.  0.
         13    1    3    3    0    0 -0.10188041058E+02  0.57475115701E+03  0.48079463311E+02  0.57684861398E+03  0.00000000000E+00 0. -1.
        -13    1    3    3    0    0 -0.11328683468E+02  0.26443666062E+03 -0.38067897415E+02  0.26740278862E+03  0.00000000000E+00 0.  1.
          4    1    6    6  502    0  0.38420493729E+02 -0.11929155869E+03  0.93599328895E+02  0.15642072971E+03  0.00000000000E+00 0. -1.
          1    1    5    5  503    0 -0.13036121996E+03 -0.83635617622E+02 -0.14693299326E+03  0.21349067594E+03  0.00000000000E+00 0. -1.
         -2    1    5    5    0  503 -0.76345129457E+02  0.12057356481E+02 -0.10296098474E+03  0.12874363291E+03  0.00000000000E+00 0.  1.
         -3    1    6    6    0  502  0.18980258021E+03 -0.64831799779E+03  0.29057107003E+03  0.73537255351E+03  0.00000000000E+00 0.  1.
<mgrwt>
<rscale>  0 0.20732642E+04</rscale>
<asrwt>0</asrwt>
<pdfrwt beam="1">  1        1 0.14876854E+00 0.20732642E+04</pdfrwt>
<pdfrwt beam="2">  1       -1 0.17096669E+00 0.20732642E+04</pdfrwt>
<totfact> 0.35849607E+00</totfact>
</mgrwt>
</event>
<event>
12    1  0.1472088E-007  0.1902020E+04  0.7818608E-02  0.8653852E-01
          1   -1    0    0  501    0  0.00000000000E+00  0.00000000000E+00  0.14680415658E+04  0.14680415658E+04  0.00000000000E+00 0. -1.
         -1   -1    0    0    0  501 -0.00000000000E+00 -0.00000000000E+00 -0.61607219796E+03  0.61607219796E+03  0.00000000000E+00 0.  1.
         23    2    1    2    0    0 -0.15796188643E+02 -0.58231266606E+03  0.82223652659E+03  0.10118294422E+04  0.91587956998E+02 0.  0.
        254    2    1    2    0    0  0.15796188643E+02  0.58231266606E+03  0.29732841213E+02  0.10722843215E+04  0.89976222617E+03 0.  0.
        -24    2    4    4    0    0  0.31894218526E+03  0.64589846932E+03  0.13200317818E+03  0.73657180746E+03  0.78766987362E+02 0.  0.
         24    2    4    4    0    0 -0.30314599661E+03 -0.63585803260E+02 -0.10227033697E+03  0.33571251403E+03  0.79391565117E+02 0.  0.
         13    1    3    3    0    0 -0.96569366516E+01 -0.57280915033E+03  0.77801605689E+03  0.96618453926E+03  0.00000000000E+00 0. -1.
        -13    1    3    3    0    0 -0.61392519916E+01 -0.95035157293E+01  0.44220469699E+02  0.45644902964E+02  0.00000000000E+00 0.  1.
          2    1    6    6  502    0 -0.15026138907E+03 -0.14504430414E+02 -0.11825904235E+02  0.15142230865E+03  0.00000000000E+00 0. -1.
          1    1    5    5  503    0  0.10578192326E+03  0.15590142283E+03  0.57939645980E+02  0.19710928823E+03  0.00000000000E+00 0. -1.
         -2    1    5    5    0  503  0.21316026200E+03  0.48999704648E+03  0.74063532203E+02  0.53946251924E+03  0.00000000000E+00 0.  1.
         -1    1    6    6    0  502 -0.15288460754E+03 -0.49081372847E+02 -0.90444432735E+02  0.18429020538E+03  0.00000000000E+00 0.  1.
<mgrwt>
<rscale>  0 0.19020196E+04</rscale>
<asrwt>0</asrwt>
<pdfrwt beam="1">  1        1 0.22585255E+00 0.19020196E+04</pdfrwt>
<pdfrwt beam="2">  1       -1 0.94780338E-01 0.19020196E+04</pdfrwt>
<totfact> 0.69322050E+00</totfact>
</mgrwt>
</event>
<event>
12    1  0.1472088E-007  0.2257174E+04  0.7818608E-02  0.8495001E-01
          4   -1    0    0  501    0  0.00000000000E+00  0.00000000000E+00  0.55484075218E+03  0.55484075218E+03  0.00000000000E+00 0. -1.
         -4   -1    0    0    0  501 -0.00000000000E+00 -0.00000000000E+00 -0.22956285199E+04  0.22956285199E+04  0.00000000000E+00 0.  1.
         23    2    1    2    0    0 -0.50430628963E+03  0.58627277853E+03 -0.44939309563E+02  0.78005747348E+03  0.91812394526E+02 0.  0.
        254    2    1    2    0    0  0.50430628963E+03 -0.58627277853E+03 -0.16958484582E+04  0.20704117986E+04  0.90147790773E+03 0.  0.
        -24    2    4    4    0    0  0.53373270443E+03 -0.31692301363E+03 -0.39775912801E+03  0.74194568706E+03  0.83428306186E+02 0.  0.
         24    2    4    4    0    0 -0.29426414808E+02 -0.26934976490E+03 -0.12980893301E+04  0.13284661115E+04  0.79819112605E+02 0.  0.
         13    1    3    3    0    0 -0.23655801199E+03  0.31730949633E+03 -0.59678122133E+02  0.40025802648E+03  0.00000000000E+00 0. -1.
        -13    1    3    3    0    0 -0.26774827764E+03  0.26896328220E+03  0.14738812570E+02  0.37979944701E+03  0.00000000000E+00 0.  1.
          2    1    6    6  502    0  0.24302767416E+02 -0.10852004840E+03 -0.44477407988E+03  0.45846614657E+03  0.00000000000E+00 0. -1.
          3    1    5    5  503    0  0.11732656239E+03 -0.34318387915E+02 -0.62956982343E+02  0.13750220223E+03  0.00000000000E+00 0. -1.
         -4    1    5    5    0  503  0.41640614204E+03 -0.28260462572E+03 -0.33480214567E+03  0.60444348483E+03  0.00000000000E+00 0.  1.
         -1    1    6    6    0  502 -0.53729182224E+02 -0.16082971650E+03 -0.85331525025E+03  0.86999996497E+03  0.00000000000E+00 0.  1.
<mgrwt>
<rscale>  0 0.22571737E+04</rscale>
<asrwt>0</asrwt>
<pdfrwt beam="1">  1        4 0.85360116E-01 0.22571737E+04</pdfrwt>
<pdfrwt beam="2">  1       -4 0.35317362E+00 0.22571737E+04</pdfrwt>
<totfact> 0.30787259E-02</totfact>
</mgrwt>
</event>
<event>
12    1  0.1472088E-007  0.1497474E+04  0.7818608E-02  0.8886134E-01
         -2   -1    0    0    0  501 -0.00000000000E+00  0.00000000000E+00  0.27644651194E+03  0.27644651194E+03  0.00000000000E+00 0.  1.
          2   -1    0    0  501    0  0.00000000000E+00 -0.00000000000E+00 -0.20279046947E+04  0.20279046947E+04  0.00000000000E+00 0. -1.
         23    2    1    2    0    0 -0.53513395853E+01  0.10882164157E+03  0.14635702715E+03  0.20039024252E+03  0.82855798758E+02 0.  0.
        254    2    1    2    0    0  0.53513395853E+01 -0.10882164157E+03 -0.18978152099E+04  0.21039609641E+04  0.90170858988E+03 0.  0.
        -24    2    4    4    0    0  0.36958585696E+03 -0.19811625390E+03 -0.51616117577E+03  0.67011455199E+03  0.82385664362E+02 0.  0.
         24    2    4    4    0    0 -0.36423451737E+03  0.89294612326E+02 -0.13816540341E+04  0.14338464121E+04  0.79418839613E+02 0.  0.
         13    1    3    3    0    0 -0.66122797440E+01  0.16605165486E+01 -0.92244741136E+01  0.11470417660E+02  0.00000000000E+00 0. -1.
        -13    1    3    3    0    0  0.12609401587E+01  0.10716112502E+03  0.15558150127E+03  0.18891982486E+03  0.00000000000E+00 0.  1.
          4    1    6    6  502    0 -0.11873225036E+03 -0.14439690651E+01 -0.35392431815E+03  0.37331200798E+03  0.00000000000E+00 0. -1.
          1    1    5    5  503    0  0.33629319674E+03 -0.17461358292E+03 -0.41997772670E+03  0.56565387688E+03  0.00000000000E+00 0. -1.
         -2    1    5    5    0  503  0.33292660217E+02 -0.23502670980E+02 -0.96183449070E+02  0.10446067510E+03  0.00000000000E+00 0.  1.
         -3    1    6    6    0  502 -0.24550226701E+03  0.90738581391E+02 -0.10277297160E+04  0.10605344042E+04  0.00000000000E+00 0.  1.
<mgrwt>
<rscale>  0 0.14974741E+04</rscale>
<asrwt>0</asrwt>
<pdfrwt beam="1">  1        2 0.31198535E+00 0.14974741E+04</pdfrwt>
<pdfrwt beam="2">  1       -2 0.42530231E-01 0.14974741E+04</pdfrwt>
<totfact> 0.32662557E+01</totfact>
</mgrwt>
</event>
<event>
12    1  0.1472088E-007  0.2132376E+04  0.7818608E-02  0.8547114E-01
         -2   -1    0    0    0  501 -0.00000000000E+00  0.00000000000E+00  0.90006735806E+03  0.90006735806E+03  0.00000000000E+00 0.  1.
          2   -1    0    0  501    0  0.00000000000E+00 -0.00000000000E+00 -0.12629681438E+04  0.12629681438E+04  0.00000000000E+00 0. -1.
         23    2    1    2    0    0  0.65882156236E+03 -0.48808505806E+02  0.41769211904E+03  0.78656862112E+03  0.88291382045E+02 0.  0.
        254    2    1    2    0    0 -0.65882156236E+03  0.48808505806E+02 -0.78059290481E+03  0.13764668808E+04  0.92136185592E+03 0.  0.
        -24    2    4    4    0    0 -0.38631519554E+03 -0.42448784006E+03 -0.44468002153E+03  0.73045881982E+03  0.80002557740E+02 0.  0.
         24    2    4    4    0    0 -0.27250636682E+03  0.47329634586E+03 -0.33591288328E+03  0.64600806094E+03  0.78865700316E+02 0.  0.
         11    1    3    3    0    0  0.65436379133E+03 -0.53626368094E+02  0.40273803720E+03  0.77023742143E+03  0.00000000000E+00 0.  1.
        -11    1    3    3    0    0  0.44577710312E+01  0.48178622876E+01  0.14954081839E+02  0.16331199687E+02  0.00000000000E+00 0. -1.
          4    1    6    6  502    0 -0.20624921850E+03  0.41415134317E+03 -0.28981746515E+03  0.54594343873E+03  0.00000000000E+00 0. -1.
          1    1    5    5  503    0 -0.23147480436E+03 -0.30050461618E+03 -0.26402344600E+03  0.46216013398E+03  0.00000000000E+00 0. -1.
         -4    1    5    5    0  503 -0.15484039118E+03 -0.12398322388E+03 -0.18065657553E+03  0.26829868585E+03  0.00000000000E+00 0.  1.
         -3    1    6    6    0  502 -0.66257148321E+02  0.59145002692E+02 -0.46095418130E+02  0.10006462222E+03  0.00000000000E+00 0.  1.
<mgrwt>
<rscale>  0 0.21323756E+04</rscale>
<asrwt>0</asrwt>
<pdfrwt beam="1">  1        2 0.19430279E+00 0.21323756E+04</pdfrwt>
<pdfrwt beam="2">  1       -2 0.13847190E+00 0.21323756E+04</pdfrwt>
<totfact> 0.59036909E+00</totfact>
</mgrwt>
</event>
<event>
12    1  0.1472088E-007  0.1865348E+04  0.7818608E-02  0.8672300E-01
         -2   -1    0    0    0  501 -0.00000000000E+00  0.00000000000E+00  0.49889271223E+03  0.49889271223E+03  0.00000000000E+00 0.  1.
          2   -1    0    0  501    0  0.00000000000E+00 -0.00000000000E+00 -0.17436233938E+04  0.17436233938E+04  0.00000000000E+00 0. -1.
         23    2    1    2    0    0  0.47893628228E+03  0.27572176667E+03 -0.99633806084E+03  0.11431662541E+04  0.93472444984E+02 0.  0.
        254    2    1    2    0    0 -0.47893628228E+03 -0.27572176667E+03 -0.24839262070E+03  0.10993498519E+04  0.91731605660E+03 0.  0.
        -24    2    4    4    0    0  0.12926960742E+02  0.22755056244E+03  0.15334499842E+03  0.28527380840E+03  0.76942136959E+02 0.  0.
         24    2    4    4    0    0 -0.49186324303E+03 -0.50327232910E+03 -0.40173761912E+03  0.81407604347E+03  0.78193368395E+02 0.  0.
         13    1    3    3    0    0  0.19770638342E+02  0.21769298842E+02 -0.22737848910E+02  0.37172439866E+02  0.00000000000E+00 0.  1.
        -13    1    3    3    0    0  0.45916564394E+03  0.25395246782E+03 -0.97360021193E+03  0.11059938143E+04  0.00000000000E+00 0. -1.
          2    1    6    6  502    0 -0.27291699996E+02 -0.19700346706E+02 -0.39577490465E+02  0.51954964157E+02  0.00000000000E+00 0. -1.
          1    1    5    5  503    0 -0.28569769017E+02  0.12906392663E+03  0.10047767645E+03  0.16604063456E+03  0.00000000000E+00 0. -1.
         -2    1    5    5    0  503  0.41496729759E+02  0.98486635802E+02  0.52867321977E+02  0.11923317385E+03  0.00000000000E+00 0.  1.
         -1    1    6    6    0  502 -0.46457154303E+03 -0.48357198240E+03 -0.36216012866E+03  0.76212107932E+03  0.00000000000E+00 0.  1.
<mgrwt>
<rscale>  0 0.18653482E+04</rscale>
<asrwt>0</asrwt>
<pdfrwt beam="1">  1        2 0.26824975E+00 0.18653482E+04</pdfrwt>
<pdfrwt beam="2">  1       -2 0.76752726E-01 0.18653482E+04</pdfrwt>
<totfact> 0.13209781E+01</totfact>
</mgrwt>
</event>
<event>
12    1  0.1472088E-007  0.2188751E+04  0.7818608E-02  0.8523125E-01
         -1   -1    0    0    0  501 -0.00000000000E+00  0.00000000000E+00  0.27096685143E+04  0.27096685143E+04  0.00000000000E+00 0.  1.
          1   -1    0    0  501    0  0.00000000000E+00 -0.00000000000E+00 -0.44199407458E+03  0.44199407458E+03  0.00000000000E+00 0. -1.
         23    2    1    2    0    0  0.86567296914E+03 -0.85538982956E+02  0.52844671895E+03  0.10218617296E+04  0.90768124594E+02 0.  0.
        254    2    1    2    0    0 -0.86567296914E+03  0.85538982956E+02  0.17392277207E+04  0.21298008593E+04  0.86858046753E+03 0.  0.
        -24    2    4    4    0    0 -0.49760536720E+03 -0.32660655339E+03  0.54195418781E+03  0.80880463605E+03  0.78534421928E+02 0.  0.
         24    2    4    4    0    0 -0.36806760194E+03  0.41214553635E+03  0.11972735329E+04  0.13209962232E+04  0.78926589001E+02 0.  0.
         13    1    3    3    0    0  0.36928439784E+03 -0.30826157996E+02  0.27754283633E+03  0.46298082519E+03  0.00000000000E+00 0. -1.
        -13    1    3    3    0    0  0.49638857130E+03 -0.54712824960E+02  0.25090388263E+03  0.55888090436E+03  0.00000000000E+00 0.  1.
          4    1    6    6  502    0 -0.33433803356E+02  0.97729152750E+01  0.72795306713E+02  0.80699973726E+02  0.00000000000E+00 0. -1.
          1    1    5    5  503    0 -0.39132546874E+02 -0.47788305955E+02  0.37140784518E+02  0.72072992761E+02  0.00000000000E+00 0. -1.
         -4    1    5    5    0  503 -0.45847282033E+03 -0.27881824744E+03  0.50481340329E+03  0.73673164329E+03  0.00000000000E+00 0.  1.
         -3    1    6    6    0  502 -0.33463379858E+03  0.40237262107E+03  0.11244782262E+04  0.12402962495E+04  0.00000000000E+00 0.  1.
<mgrwt>
<rscale>  0 0.21887507E+04</rscale>
<asrwt>0</asrwt>
<pdfrwt beam="1">  1        1 0.67999090E-01 0.21887507E+04</pdfrwt>
<pdfrwt beam="2">  1       -1 0.41687207E+00 0.21887507E+04</pdfrwt>
<totfact> 0.26254021E-01</totfact>
</mgrwt>
</event>
<event>
12    1  0.1472088E-007  0.1480491E+04  0.7818608E-02  0.8897531E-01
         -2   -1    0    0    0  501 -0.00000000000E+00  0.00000000000E+00  0.77719582997E+03  0.77719582997E+03  0.00000000000E+00 0.  1.
          2   -1    0    0  501    0  0.00000000000E+00 -0.00000000000E+00 -0.70505208408E+03  0.70505208408E+03  0.00000000000E+00 0. -1.
         23    2    1    2    0    0  0.15941324115E+03 -0.21565547055E+03  0.40845842062E+03  0.49697698786E+03  0.90708222667E+02 0.  0.
        254    2    1    2    0    0 -0.15941324115E+03  0.21565547055E+03 -0.33631467473E+03  0.98527092619E+03  0.88641489954E+03 0.  0.
        -24    2    4    4    0    0 -0.17673257886E+03  0.46987191173E+03  0.54728775339E+02  0.51131252947E+03  0.80195050211E+02 0.  0.
         24    2    4    4    0    0  0.17319337717E+02 -0.25421644118E+03 -0.39104345007E+03  0.47395839672E+03  0.82435572130E+02 0.  0.
         13    1    3    3    0    0  0.10841698946E+03 -0.96445262063E+02  0.27481586837E+03  0.31077273639E+03  0.00000000000E+00 0.  1.
        -13    1    3    3    0    0  0.50996251690E+02 -0.11921020849E+03  0.13364255225E+03  0.18620425148E+03  0.00000000000E+00 0. -1.
          2    1    6    6  502    0 -0.48824451067E+01 -0.14982483587E+03 -0.29259408278E+03  0.32875920823E+03  0.00000000000E+00 0. -1.
          3    1    5    5  503    0 -0.12806193336E+03  0.40722481884E+03  0.28822542928E+02  0.42785821347E+03  0.00000000000E+00 0. -1.
         -4    1    5    5    0  503 -0.48670645500E+02  0.62647092898E+02  0.25906232410E+02  0.83454316004E+02  0.00000000000E+00 0.  1.
         -1    1    6    6    0  502  0.22201782823E+02 -0.10439160531E+03 -0.98449367282E+02  0.14519918849E+03  0.00000000000E+00 0.  1.
<mgrwt>
<rscale>  0 0.14804912E+04</rscale>
<asrwt>0</asrwt>
<pdfrwt beam="1">  1        2 0.10846955E+00 0.14804912E+04</pdfrwt>
<pdfrwt beam="2">  1       -2 0.11956859E+00 0.14804912E+04</pdfrwt>
<totfact> 0.21045529E+01</totfact>
</mgrwt>
</event>
<event>
12    1  0.1472088E-007  0.3095705E+04  0.7818608E-02  0.8216918E-01
         -2   -1    0    0    0  501 -0.00000000000E+00  0.00000000000E+00  0.21575451121E+04  0.21575451121E+04  0.00000000000E+00 0.  1.
          2   -1    0    0  501    0  0.00000000000E+00 -0.00000000000E+00 -0.11104503904E+04  0.11104503904E+04  0.00000000000E+00 0. -1.
         23    2    1    2    0    0 -0.73668296326E+03 -0.64549154061E+03 -0.57373447744E+03  0.11392920808E+04  0.97232079827E+02 0.  0.
        254    2    1    2    0    0  0.73668296326E+03  0.64549154061E+03  0.16208291991E+04  0.21287034217E+04  0.97207502142E+03 0.  0.
        -24    2    4    4    0    0 -0.79331169442E+02  0.54184855922E+03  0.62923132735E+03  0.83797948169E+03  0.79901519700E+02 0.  0.
         24    2    4    4    0    0  0.81601413270E+03  0.10364298139E+03  0.99159787178E+03  0.12907239400E+04  0.77980879158E+02 0.  0.
         11    1    3    3    0    0 -0.15073678856E+02 -0.18833184421E+02 -0.34000499102E+02  0.41688590392E+02  0.00000000000E+00 0.  1.
        -11    1    3    3    0    0 -0.72160928440E+03 -0.62665835619E+03 -0.53973397834E+03  0.10976034904E+04  0.00000000000E+00 0. -1.
          4    1    6    6  502    0  0.42659948413E+03  0.82589688763E+02  0.48050157350E+03  0.64783480818E+03  0.00000000000E+00 0. -1.
          3    1    5    5  503    0 -0.91488641075E+01  0.30012587818E+03  0.31192282559E+03  0.43296084534E+03  0.00000000000E+00 0. -1.
         -4    1    5    5    0  503 -0.70182305334E+02  0.24172268103E+03  0.31730850176E+03  0.40501863636E+03  0.00000000000E+00 0.  1.
         -3    1    6    6    0  502  0.38941464857E+03  0.21053292629E+02  0.51109629828E+03  0.64288913179E+03  0.00000000000E+00 0.  1.
<mgrwt>
<rscale>  0 0.30957046E+04</rscale>
<asrwt>0</asrwt>
<pdfrwt beam="1">  1        2 0.17083852E+00 0.30957046E+04</pdfrwt>
<pdfrwt beam="2">  1       -2 0.33193002E+00 0.30957046E+04</pdfrwt>
<totfact> 0.36804087E-01</totfact>
</mgrwt>
</event>
<event>
12    1  0.1472088E-007  0.1246094E+04  0.7818608E-02  0.9073441E-01
         -1   -1    0    0    0  501 -0.00000000000E+00  0.00000000000E+00  0.26456001811E+03  0.26456001811E+03  0.00000000000E+00 0.  1.
          1   -1    0    0  501    0  0.00000000000E+00 -0.00000000000E+00 -0.14672939218E+04  0.14672939218E+04  0.00000000000E+00 0. -1.
         23    2    1    2    0    0  0.16439825572E+03 -0.41149698460E+02 -0.57539324828E+03  0.60663700883E+03  0.90614491903E+02 0.  0.
        254    2    1    2    0    0 -0.16439825572E+03  0.41149698460E+02 -0.62734065536E+03  0.11252169310E+04  0.91860587842E+03 0.  0.
        -24    2    4    4    0    0 -0.18068973117E+03  0.23132717420E+03  0.13656549522E+03  0.33389146936E+03  0.81684382593E+02 0.  0.
         24    2    4    4    0    0  0.16291475446E+02 -0.19017747574E+03 -0.76390615057E+03  0.79132546167E+03  0.78806693613E+02 0.  0.
         11    1    3    3    0    0  0.22410123736E+02  0.73388559447E+01 -0.18749147322E+02  0.30126449803E+02  0.00000000000E+00 0.  1.
        -11    1    3    3    0    0  0.14198813198E+03 -0.48488554404E+02 -0.55664410096E+03  0.57651055903E+03  0.00000000000E+00 0. -1.
          4    1    6    6  502    0  0.12738717858E+02 -0.95357829633E+02 -0.53419059501E+03  0.54278447140E+03  0.00000000000E+00 0. -1.
          3    1    5    5  503    0 -0.29170089337E+01  0.28367511595E+02 -0.53856244835E+01  0.29021192365E+02  0.00000000000E+00 0. -1.
         -4    1    5    5    0  503 -0.17777272223E+03  0.20295966260E+03  0.14195111970E+03  0.30487027700E+03  0.00000000000E+00 0.  1.
         -3    1    6    6    0  502  0.35527575879E+01 -0.94819646107E+02 -0.22971555557E+03  0.24854099027E+03  0.00000000000E+00 0.  1.
<mgrwt>
<rscale>  0 0.12460936E+04</rscale>
<asrwt>0</asrwt>
<pdfrwt beam="1">  1        1 0.22573753E+00 0.12460936E+04</pdfrwt>
<pdfrwt beam="2">  1       -1 0.40701541E-01 0.12460936E+04</pdfrwt>
<totfact> 0.40106526E+01</totfact>
</mgrwt>
</event>
<event>
12    1  0.1472088E-007  0.1652096E+04  0.7818608E-02  0.8789168E-01
         -1   -1    0    0    0  501 -0.00000000000E+00  0.00000000000E+00  0.42265964190E+03  0.42265964190E+03  0.00000000000E+00 0.  1.
          1   -1    0    0  501    0  0.00000000000E+00 -0.00000000000E+00 -0.16144319472E+04  0.16144319472E+04  0.00000000000E+00 0. -1.
         23    2    1    2    0    0 -0.38060389741E+03 -0.30373155965E+03 -0.84894402203E+03  0.98299491807E+03  0.91982984031E+02 0.  0.
        254    2    1    2    0    0  0.38060389741E+03  0.30373155965E+03 -0.34282828328E+03  0.10540966711E+04  0.86975650216E+03 0.  0.
        -24    2    4    4    0    0  0.89465435871E+02 -0.15537810564E+03 -0.45272450281E+03  0.49366562274E+03  0.81239471337E+02 0.  0.
         24    2    4    4    0    0  0.29113846154E+03  0.45910966530E+03  0.10989621953E+03  0.56043104831E+03  0.80389628007E+02 0.  0.
         13    1    3    3    0    0 -0.15723568296E+02 -0.44644864129E+02 -0.66652036337E+02  0.81748935412E+02  0.00000000000E+00 0.  1.
        -13    1    3    3    0    0 -0.36488032911E+03 -0.25908669552E+03 -0.78229198569E+03  0.90124598265E+03  0.00000000000E+00 0. -1.
          4    1    6    6  502    0  0.41278221051E+02  0.97714476569E+02  0.49090329730E+02  0.11688400634E+03  0.00000000000E+00 0. -1.
          3    1    5    5  503    0 -0.72171172509E+01  0.46746070624E+01 -0.10765998115E+02  0.13778441422E+02  0.00000000000E+00 0. -1.
         -4    1    5    5    0  503  0.96682553122E+02 -0.16005271271E+03 -0.44195850469E+03  0.47988718132E+03  0.00000000000E+00 0.  1.
         -3    1    6    6    0  502  0.24986024049E+03  0.36139518873E+03  0.60805889796E+02  0.44354704198E+03  0.00000000000E+00 0.  1.
<mgrwt>
<rscale>  0 0.16520959E+04</rscale>
<asrwt>0</asrwt>
<pdfrwt beam="1">  1        1 0.24837415E+00 0.16520959E+04</pdfrwt>
<pdfrwt beam="2">  1       -1 0.65024560E-01 0.16520959E+04</pdfrwt>
<totfact> 0.12494834E+01</totfact>
</mgrwt>
</event>
<event>
12    1  0.1472088E-007  0.2748874E+04  0.7818608E-02  0.8319319E-01
          2   -1    0    0  501    0  0.00000000000E+00  0.00000000000E+00  0.18086283201E+04  0.18086283201E+04  0.00000000000E+00 0. -1.
         -2   -1    0    0    0  501 -0.00000000000E+00 -0.00000000000E+00 -0.10444807340E+04  0.10444807340E+04  0.00000000000E+00 0.  1.
         23    2    1    2    0    0 -0.44610261067E+03 -0.32674421386E+02  0.15236478366E+04  0.15905450619E+04  0.90860920367E+02 0.  0.
        254    2    1    2    0    0  0.44610261067E+03  0.32674421386E+02 -0.75950025041E+03  0.12625639922E+04  0.90396462711E+03 0.  0.
        -24    2    4    4    0    0  0.15869190498E+03 -0.41519273050E+03 -0.22630433559E+03  0.50511606091E+03  0.79752482834E+02 0.  0.
         24    2    4    4    0    0  0.28741070569E+03  0.44786715188E+03 -0.53319591481E+03  0.75744793133E+03  0.78991047707E+02 0.  0.
         13    1    3    3    0    0 -0.35663546318E+03 -0.15643289944E+02  0.10741952371E+04  0.11319580264E+04  0.00000000000E+00 0. -1.
        -13    1    3    3    0    0 -0.89467147483E+02 -0.17031131442E+02  0.44945259951E+03  0.45858703549E+03  0.00000000000E+00 0.  1.
          2    1    6    6  502    0  0.27420546715E+03  0.43058982356E+03 -0.48311140174E+03  0.70284625691E+03  0.00000000000E+00 0. -1.
          3    1    5    5  503    0  0.10891306643E+03 -0.25067358441E+03 -0.96959328532E+02  0.29000071268E+03  0.00000000000E+00 0. -1.
         -4    1    5    5    0  503  0.49778838546E+02 -0.16451914608E+03 -0.12934500706E+03  0.21511534824E+03  0.00000000000E+00 0.  1.
         -1    1    6    6    0  502  0.13205238536E+02  0.17277328329E+02 -0.50084513078E+02  0.54601674418E+02  0.00000000000E+00 0.  1.
<mgrwt>
<rscale>  0 0.27488743E+04</rscale>
<asrwt>0</asrwt>
<pdfrwt beam="1">  1        2 0.27825051E+00 0.27488743E+04</pdfrwt>
<pdfrwt beam="2">  1       -2 0.16068934E+00 0.27488743E+04</pdfrwt>
<totfact> 0.18567584E+00</totfact>
</mgrwt>
</event>
<event>
12    1  0.1472088E-007  0.1315277E+04  0.7818608E-02  0.9017537E-01
         -2   -1    0    0    0  501 -0.00000000000E+00  0.00000000000E+00  0.19484855616E+03  0.19484855616E+03  0.00000000000E+00 0.  1.
          2   -1    0    0  501    0  0.00000000000E+00 -0.00000000000E+00 -0.22196141149E+04  0.22196141149E+04  0.00000000000E+00 0. -1.
         23    2    1    2    0    0  0.33223053331E+03 -0.74044637600E+02 -0.54620742475E+03  0.65009777702E+03  0.91786890219E+02 0.  0.
        254    2    1    2    0    0 -0.33223053331E+03  0.74044637600E+02 -0.14785581340E+04  0.17643648940E+04  0.90054960337E+03 0.  0.
        -24    2    4    4    0    0  0.96759303343E+02  0.22100503678E+03 -0.43690375579E+02  0.25746238074E+03  0.78564874521E+02 0.  0.
         24    2    4    4    0    0 -0.42898983665E+03 -0.14696039918E+03 -0.14348677584E+04  0.15069025133E+04  0.79246839755E+02 0.  0.
         11    1    3    3    0    0  0.49572015320E+02 -0.87128779216E+01 -0.31839984418E+02  0.59557397124E+02  0.00000000000E+00 0.  1.
        -11    1    3    3    0    0  0.28265851799E+03 -0.65331759678E+02 -0.51436744033E+03  0.59054037989E+03  0.00000000000E+00 0. -1.
          2    1    6    6  502    0 -0.24515558624E+03 -0.44876801558E+02 -0.82312445006E+03  0.86002851643E+03  0.00000000000E+00 0. -1.
          3    1    5    5  503    0  0.11024518768E+03  0.19264369103E+03 -0.42787367938E+02  0.22604502196E+03  0.00000000000E+00 0. -1.
         -4    1    5    5    0  503 -0.13485884336E+02  0.28361345758E+02 -0.90300764100E+00  0.31417358774E+02  0.00000000000E+00 0.  1.
         -1    1    6    6    0  502 -0.18383425041E+03 -0.10208359763E+03 -0.61174330835E+03  0.64687399688E+03  0.00000000000E+00 0.  1.
<mgrwt>
<rscale>  0 0.13152773E+04</rscale>
<asrwt>0</asrwt>
<pdfrwt beam="1">  1        2 0.34147910E+00 0.13152773E+04</pdfrwt>
<pdfrwt beam="2">  1       -2 0.29976701E-01 0.13152773E+04</pdfrwt>
<totfact> 0.50727811E+01</totfact>
</mgrwt>
</event>
<event>
12    1  0.1963705E-007  0.1396722E+04  0.7818608E-02  0.8956195E-01
          2   -1    0    0  501    0  0.00000000000E+00  0.00000000000E+00  0.12985506245E+04  0.12985506245E+04  0.00000000000E+00 0. -1.
         -2   -1    0    0    0  501 -0.00000000000E+00 -0.00000000000E+00 -0.37557881019E+03  0.37557881019E+03  0.00000000000E+00 0.  1.
         23    2    1    2    0    0 -0.19881649218E+03  0.11110644382E+03  0.67533579312E+03  0.71853426622E+03  0.91325893600E+02 0.  0.
        254    2    1    2    0    0  0.19881649218E+03 -0.11110644382E+03  0.24763602124E+03  0.95559516852E+03  0.89440812142E+03 0.  0.
        -24    2    4    4    0    0 -0.11857129330E+02  0.37687813925E+03  0.11131027290E+03  0.40110645519E+03  0.79490176597E+02 0.  0.
         24    2    4    4    0    0  0.21067362151E+03 -0.48798458307E+03  0.13632574834E+03  0.55448871333E+03  0.79753968137E+02 0.  0.
         13    1    3    3    0    0  0.66861407009E+01 -0.57016559329E+01  0.30397710426E+02  0.31642284320E+02  0.00000000000E+00 0.  1.
        -13    1    3    3    0    0 -0.20550263288E+03  0.11680809975E+03  0.64493808269E+03  0.68689198190E+03  0.00000000000E+00 0. -1.
          4    1    6    6  502    0  0.70449748588E+01 -0.78203857402E+02  0.62241156757E+01  0.78766836926E+02  0.00000000000E+00 0. -1.
          1    1    5    5  503    0  0.93207090804E+01  0.50218653520E+02  0.42870136347E+02  0.66683111576E+02  0.00000000000E+00 0. -1.
         -2    1    5    5    0  503 -0.21177838411E+02  0.32665948573E+03  0.68440136558E+02  0.33442334361E+03  0.00000000000E+00 0.  1.
         -3    1    6    6    0  502  0.20362864665E+03 -0.40978072567E+03  0.13010163266E+03  0.47572187641E+03  0.00000000000E+00 0.  1.
<mgrwt>
<rscale>  0 0.13967220E+04</rscale>
<asrwt>0</asrwt>
<pdfrwt beam="1">  1        2 0.19977702E+00 0.13967220E+04</pdfrwt>
<pdfrwt beam="2">  1       -2 0.57781356E-01 0.13967220E+04</pdfrwt>
<totfact> 0.45213694E+01</totfact>
</mgrwt>
</event>
<event>
12    1  0.1472088E-007  0.1616163E+04  0.7818608E-02  0.8810680E-01
         -2   -1    0    0    0  501 -0.00000000000E+00  0.00000000000E+00  0.33839213230E+03  0.33839213230E+03  0.00000000000E+00 0.  1.
          2   -1    0    0  501    0  0.00000000000E+00 -0.00000000000E+00 -0.19297006236E+04  0.19297006236E+04  0.00000000000E+00 0. -1.
         23    2    1    2    0    0 -0.52074134793E+03 -0.12924481521E+03 -0.62289493358E+03  0.82723559227E+03  0.91895882076E+02 0.  0.
        254    2    1    2    0    0  0.52074134793E+03  0.12924481521E+03 -0.96841355774E+03  0.14408571637E+04  0.92215441958E+03 0.  0.
        -24    2    4    4    0    0  0.57639729152E+03 -0.28021463722E+03 -0.59400244876E+03  0.87760711374E+03  0.81248116096E+02 0.  0.
         24    2    4    4    0    0 -0.55655943595E+02  0.40945945242E+03 -0.37441110898E+03  0.56325004992E+03  0.79450065894E+02 0.  0.
         13    1    3    3    0    0 -0.33187438182E+03 -0.48468592778E+02 -0.43108085995E+03  0.54618725508E+03  0.00000000000E+00 0. -1.
        -13    1    3    3    0    0 -0.18886696611E+03 -0.80776222430E+02 -0.19181407363E+03  0.28104833719E+03  0.00000000000E+00 0.  1.
          2    1    6    6  502    0 -0.29147086239E+02  0.23710574718E+03 -0.16300649232E+03  0.28920547111E+03  0.00000000000E+00 0. -1.
          1    1    5    5  503    0  0.32027523062E+03 -0.16106024832E+03 -0.38608222889E+03  0.52685492729E+03  0.00000000000E+00 0. -1.
         -4    1    5    5    0  503  0.25612206090E+03 -0.11915438889E+03 -0.20792021987E+03  0.35075218645E+03  0.00000000000E+00 0.  1.
         -1    1    6    6    0  502 -0.26508857356E+02  0.17235370524E+03 -0.21140461666E+03  0.27404457881E+03  0.00000000000E+00 0.  1.
<mgrwt>
<rscale>  0 0.16161628E+04</rscale>
<asrwt>0</asrwt>
<pdfrwt beam="1">  1        2 0.29687703E+00 0.16161628E+04</pdfrwt>
<pdfrwt beam="2">  1       -2 0.52060327E-01 0.16161628E+04</pdfrwt>
<totfact> 0.24391567E+01</totfact>
</mgrwt>
</event>
<event>
12    1  0.1472088E-007  0.1663975E+04  0.7818608E-02  0.8782182E-01
          2   -1    0    0  501    0  0.00000000000E+00  0.00000000000E+00  0.44587198569E+03  0.44587198569E+03  0.00000000000E+00 0. -1.
         -2   -1    0    0    0  501 -0.00000000000E+00 -0.00000000000E+00 -0.15524712598E+04  0.15524712598E+04  0.00000000000E+00 0.  1.
         23    2    1    2    0    0 -0.17578011654E+03  0.62518637281E+03 -0.61370461106E+03  0.89798984169E+03  0.89418991445E+02 0.  0.
        254    2    1    2    0    0  0.17578011654E+03 -0.62518637281E+03 -0.49289466301E+03  0.11003534037E+04  0.73896942710E+03 0.  0.
        -24    2    4    4    0    0 -0.57337074923E+02 -0.15766603804E+03 -0.53878403197E+03  0.56987257596E+03  0.79500943510E+02 0.  0.
         24    2    4    4    0    0  0.23311719146E+03 -0.46752033477E+03  0.45889368961E+02  0.53048082778E+03  0.79907359369E+02 0.  0.
         13    1    3    3    0    0 -0.12308830220E+03  0.47332124803E+03 -0.40784987478E+03  0.63680864813E+03  0.00000000000E+00 0. -1.
        -13    1    3    3    0    0 -0.52691814339E+02  0.15186512478E+03 -0.20585473628E+03  0.26118119356E+03  0.00000000000E+00 0.  1.
          2    1    6    6  502    0  0.27414387949E+02 -0.14746613093E+02  0.94001438330E+00  0.31143135542E+02  0.00000000000E+00 0. -1.
          3    1    5    5  503    0 -0.26946189558E+02 -0.10186118402E+03 -0.20939171774E+03  0.23440710185E+03  0.00000000000E+00 0. -1.
         -4    1    5    5    0  503 -0.30390885365E+02 -0.55804854016E+02 -0.32939231423E+03  0.33546547411E+03  0.00000000000E+00 0.  1.
         -1    1    6    6    0  502  0.20570280351E+03 -0.45277372168E+03  0.44949354578E+02  0.49933769224E+03  0.00000000000E+00 0.  1.
<mgrwt>
<rscale>  0 0.16639753E+04</rscale>
<asrwt>0</asrwt>
<pdfrwt beam="1">  1        2 0.68595691E-01 0.16639753E+04</pdfrwt>
<pdfrwt beam="2">  1       -2 0.23884173E+00 0.16639753E+04</pdfrwt>
<totfact> 0.50497774E+00</totfact>
</mgrwt>
</event>
<event>
12    1  0.1472088E-007  0.1820081E+04  0.7818608E-02  0.8695693E-01
         -1   -1    0    0    0  501 -0.00000000000E+00  0.00000000000E+00  0.10203042384E+04  0.10203042384E+04  0.00000000000E+00 0.  1.
          1   -1    0    0  501    0  0.00000000000E+00 -0.00000000000E+00 -0.81169261502E+03  0.81169261502E+03  0.00000000000E+00 0. -1.
         23    2    1    2    0    0  0.51777663149E+03  0.24828881332E+03  0.33560775499E+03  0.67158352879E+03  0.93015568577E+02 0.  0.
        254    2    1    2    0    0 -0.51777663149E+03 -0.24828881332E+03 -0.12699613163E+03  0.11604133246E+04  0.10003454861E+04 0.  0.
        -24    2    4    4    0    0 -0.47835124333E+03 -0.57079028368E+03  0.10053152161E+03  0.75566362114E+03  0.79369147266E+02 0.  0.
         24    2    4    4    0    0 -0.39425388153E+02  0.32250147035E+03 -0.22752765324E+03  0.40474970347E+03  0.80572513036E+02 0.  0.
         13    1    3    3    0    0  0.40839657692E+03  0.19135437083E+03  0.21701534388E+03  0.50049966908E+03  0.00000000000E+00 0.  1.
        -13    1    3    3    0    0  0.10938005457E+03  0.56934442492E+02  0.11859241110E+03  0.17108385970E+03  0.00000000000E+00 0. -1.
          4    1    6    6  502    0 -0.31346906644E+02  0.26688150413E+03 -0.22147073600E+03  0.34822069541E+03  0.00000000000E+00 0. -1.
          1    1    5    5  503    0 -0.45820287812E+03 -0.51573434836E+03  0.99588287751E+02  0.69702914046E+03  0.00000000000E+00 0. -1.
         -2    1    5    5    0  503 -0.20148365217E+02 -0.55055935318E+02  0.94323386184E+00  0.58634480681E+02  0.00000000000E+00 0.  1.
         -3    1    6    6    0  502 -0.80784815083E+01  0.55619966225E+02 -0.60569172401E+01  0.56529008065E+02  0.00000000000E+00 0.  1.
<mgrwt>
<rscale>  0 0.18200807E+04</rscale>
<asrwt>0</asrwt>
<pdfrwt beam="1">  1        1 0.12487579E+00 0.18200807E+04</pdfrwt>
<pdfrwt beam="2">  1       -1 0.15696988E+00 0.18200807E+04</pdfrwt>
<totfact> 0.62705617E+00</totfact>
</mgrwt>
</event>
<event>
12    1  0.1472088E-007  0.2981715E+04  0.7818608E-02  0.8248972E-01
          1   -1    0    0  501    0  0.00000000000E+00  0.00000000000E+00  0.26333692986E+04  0.26333692986E+04  0.00000000000E+00 0. -1.
         -1   -1    0    0    0  501 -0.00000000000E+00 -0.00000000000E+00 -0.84403497391E+03  0.84403497391E+03  0.00000000000E+00 0.  1.
         23    2    1    2    0    0  0.22901515181E+03 -0.10159694667E+04  0.18216968943E+04  0.21002030553E+04  0.87357894176E+02 0.  0.
        254    2    1    2    0    0 -0.22901515181E+03  0.10159694667E+04 -0.32362569611E+02  0.13772012173E+04  0.90055203070E+03 0.  0.
        -24    2    4    4    0    0 -0.28314941589E+03 -0.23627368701E+01  0.16226281118E+03  0.33596077461E+03  0.79757431845E+02 0.  0.
         24    2    4    4    0    0  0.54134264085E+02  0.10183322035E+04 -0.19462538079E+03  0.10412404427E+04  0.79822461091E+02 0.  0.
         11    1    3    3    0    0  0.22016632457E+03 -0.83693939560E+03  0.15320075588E+04  0.17595419639E+04  0.00000000000E+00 0. -1.
        -11    1    3    3    0    0  0.88488272413E+01 -0.17903007106E+03  0.28968933547E+03  0.34066109136E+03  0.00000000000E+00 0.  1.
          2    1    6    6  502    0  0.46879925407E+02  0.82784112590E+03 -0.18948036311E+03  0.85054186560E+03  0.00000000000E+00 0. -1.
          3    1    5    5  503    0 -0.24798279400E+03  0.24400937944E+02  0.12860589114E+03  0.28041103246E+03  0.00000000000E+00 0. -1.
         -4    1    5    5    0  503 -0.35166621892E+02 -0.26763674814E+02  0.33656920048E+02  0.55549742142E+02  0.00000000000E+00 0.  1.
         -1    1    6    6    0  502  0.72543386783E+01  0.19049107762E+03 -0.51450176831E+01  0.19069857705E+03  0.00000000000E+00 0.  1.
<mgrwt>
<rscale>  0 0.29817148E+04</rscale>
<asrwt>0</asrwt>
<pdfrwt beam="1">  1        1 0.40513373E+00 0.29817148E+04</pdfrwt>
<pdfrwt beam="2">  1       -1 0.12985154E+00 0.29817148E+04</pdfrwt>
<totfact> 0.47376103E-01</totfact>
</mgrwt>
</event>
<event>
12    1  0.1472088E-007  0.1357383E+04  0.7818608E-02  0.8985258E-01
          3   -1    0    0  501    0  0.00000000000E+00  0.00000000000E+00  0.60757842688E+03  0.60757842688E+03  0.00000000000E+00 0. -1.
         -3   -1    0    0    0  501 -0.00000000000E+00 -0.00000000000E+00 -0.75812773181E+03  0.75812773181E+03  0.00000000000E+00 0.  1.
         23    2    1    2    0    0  0.74535933990E+00  0.33123746990E+03  0.11742366762E+03  0.36343665216E+03  0.92623244337E+02 0.  0.
        254    2    1    2    0    0 -0.74535933990E+00 -0.33123746990E+03 -0.26797297254E+03  0.10022695065E+04  0.90720220054E+03 0.  0.
        -24    2    4    4    0    0 -0.17013696528E+03 -0.30522595956E+03 -0.55384862306E+03  0.65974681428E+03  0.80050536198E+02 0.  0.
         24    2    4    4    0    0  0.16939160594E+03 -0.26011510342E+02  0.28587565052E+03  0.34252269224E+03  0.78910026680E+02 0.  0.
         11    1    3    3    0    0 -0.28159460563E+02  0.29986354894E+03  0.99903084619E+02  0.31731960153E+03  0.00000000000E+00 0. -1.
        -11    1    3    3    0    0  0.28904819903E+02  0.31373920966E+02  0.17520582997E+02  0.46117050631E+02  0.00000000000E+00 0.  1.
          4    1    6    6  502    0  0.41796824726E+02 -0.14725134851E+02  0.14726520975E+03  0.15378831606E+03  0.00000000000E+00 0. -1.
          1    1    5    5  503    0  0.20868619223E+00  0.14486815033E+01  0.19848756347E+01  0.24661628718E+01  0.00000000000E+00 0. -1.
         -2    1    5    5    0  503 -0.17034565147E+03 -0.30667464106E+03 -0.55583349870E+03  0.65728065141E+03  0.00000000000E+00 0.  1.
         -3    1    6    6    0  502  0.12759478121E+03 -0.11286375491E+02  0.13861044077E+03  0.18873437619E+03  0.00000000000E+00 0.  1.
<mgrwt>
<rscale>  0 0.13573829E+04</rscale>
<asrwt>0</asrwt>
<pdfrwt beam="1">  1        3 0.93473605E-01 0.13573829E+04</pdfrwt>
<pdfrwt beam="2">  1       -3 0.11663503E+00 0.13573829E+04</pdfrwt>
<totfact> 0.15855999E+00</totfact>
</mgrwt>
</event>
<event>
12    1  0.1472088E-007  0.2380257E+04  0.7818608E-02  0.8446932E-01
          1   -1    0    0  501    0  0.00000000000E+00  0.00000000000E+00  0.19840706051E+04  0.19840706051E+04  0.00000000000E+00 0. -1.
         -1   -1    0    0    0  501 -0.00000000000E+00 -0.00000000000E+00 -0.71388853638E+03  0.71388853638E+03  0.00000000000E+00 0.  1.
         23    2    1    2    0    0  0.66251422329E+02 -0.69216006125E+03 -0.30358270971E+03  0.76399173475E+03  0.89700099074E+02 0.  0.
        254    2    1    2    0    0 -0.66251422329E+02  0.69216006125E+03  0.15737647784E+04  0.19339674067E+04  0.88318715518E+03 0.  0.
        -24    2    4    4    0    0 -0.68636760568E+02  0.22334701251E+02 -0.89404947569E+02  0.13922229562E+03  0.78611444255E+02 0.  0.
         24    2    4    4    0    0  0.23853382391E+01  0.66982536000E+03  0.16631697260E+04  0.17947451111E+04  0.79402604542E+02 0.  0.
         13    1    3    3    0    0  0.53740857286E+02 -0.56475601763E+03 -0.20803133110E+03  0.60424703053E+03  0.00000000000E+00 0.  1.
        -13    1    3    3    0    0  0.12510565043E+02 -0.12740404362E+03 -0.95551378616E+02  0.15974470421E+03  0.00000000000E+00 0. -1.
          4    1    6    6  502    0  0.25283532001E+02  0.17572532492E+03  0.50813159008E+03  0.53825306283E+03  0.00000000000E+00 0. -1.
          3    1    5    5  503    0  0.17707448594E+02  0.79677427333E+00 -0.14268850597E+02  0.22754970497E+02  0.00000000000E+00 0. -1.
         -4    1    5    5    0  503 -0.86344209162E+02  0.21537926978E+02 -0.75136096971E+02  0.11646732513E+03  0.00000000000E+00 0.  1.
         -3    1    6    6    0  502 -0.22898193762E+02  0.49410003507E+03  0.11550381359E+04  0.12564920482E+04  0.00000000000E+00 0.  1.
<mgrwt>
<rscale>  0 0.23802565E+04</rscale>
<asrwt>0</asrwt>
<pdfrwt beam="1">  1        1 0.30524163E+00 0.23802565E+04</pdfrwt>
<pdfrwt beam="2">  1       -1 0.10982901E+00 0.23802565E+04</pdfrwt>
<totfact> 0.21003037E+00</totfact>
</mgrwt>
</event>
<event>
12    1  0.1472088E-007  0.1641577E+04  0.7818608E-02  0.8795405E-01
          2   -1    0    0  501    0  0.00000000000E+00  0.00000000000E+00  0.64503934991E+03  0.64503934991E+03  0.00000000000E+00 0. -1.
         -2   -1    0    0    0  501 -0.00000000000E+00 -0.00000000000E+00 -0.10444233323E+04  0.10444233323E+04  0.00000000000E+00 0.  1.
         23    2    1    2    0    0 -0.34833917922E+03 -0.10352593010E+03  0.32658163260E+03  0.49723525497E+03  0.92355476582E+02 0.  0.
        254    2    1    2    0    0  0.34833917922E+03  0.10352593010E+03 -0.72596561496E+03  0.11922274272E+04  0.87311073873E+03 0.  0.
        -24    2    4    4    0    0  0.42379596866E+02 -0.82844255224E+02 -0.80690271799E+03  0.81617619271E+03  0.79952363252E+02 0.  0.
         24    2    4    4    0    0  0.30595958235E+03  0.18637018533E+03  0.80937103034E+02  0.37605123449E+03  0.80737874040E+02 0.  0.
         11    1    3    3    0    0  0.23734136973E+01 -0.93895483152E+00  0.20248893722E+02  0.20409126040E+02  0.00000000000E+00 0.  1.
        -11    1    3    3    0    0 -0.35071259291E+03 -0.10258697527E+03  0.30633273888E+03  0.47682612893E+03  0.00000000000E+00 0. -1.
          2    1    6    6  502    0  0.11843384468E+02  0.11531330644E+02 -0.13227761376E+02  0.21170994618E+02  0.00000000000E+00 0. -1.
          1    1    5    5  503    0  0.31995444129E+02 -0.82522755067E+02 -0.42432876603E+03  0.43346120384E+03  0.00000000000E+00 0. -1.
         -2    1    5    5    0  503  0.10384152738E+02 -0.32150015714E+00 -0.38257395196E+03  0.38271498887E+03  0.00000000000E+00 0.  1.
         -1    1    6    6    0  502  0.29411619788E+03  0.17483885468E+03  0.94164864411E+02  0.35488023988E+03  0.00000000000E+00 0.  1.
<mgrwt>
<rscale>  0 0.16415775E+04</rscale>
<asrwt>0</asrwt>
<pdfrwt beam="1">  1        2 0.99236824E-01 0.16415775E+04</pdfrwt>
<pdfrwt beam="2">  1       -2 0.16068051E+00 0.16415775E+04</pdfrwt>
<totfact> 0.10795198E+01</totfact>
</mgrwt>
</event>
<event>
12    1  0.1472088E-007  0.1669780E+04  0.7818608E-02  0.8778790E-01
         -1   -1    0    0    0  501 -0.00000000000E+00  0.00000000000E+00  0.67076259383E+03  0.67076259383E+03  0.00000000000E+00 0.  1.
          1   -1    0    0  501    0  0.00000000000E+00 -0.00000000000E+00 -0.10391779518E+04  0.10391779518E+04  0.00000000000E+00 0. -1.
         23    2    1    2    0    0  0.37266320071E+03  0.36217502217E+03 -0.40777064815E+03  0.66686518234E+03  0.91562339822E+02 0.  0.
        254    2    1    2    0    0 -0.37266320071E+03 -0.36217502217E+03  0.39355290147E+02  0.10430753633E+04  0.90355341119E+03 0.  0.
        -24    2    4    4    0    0 -0.15201171343E+01  0.24279578807E+03 -0.15727999065E+03  0.30215894103E+03  0.87240613946E+02 0.  0.
         24    2    4    4    0    0 -0.37114308358E+03 -0.60497081024E+03  0.19663528080E+03  0.74091642230E+03  0.80961975294E+02 0.  0.
         13    1    3    3    0    0  0.21959021627E+03  0.24070999335E+03 -0.30395759496E+03  0.44559104963E+03  0.00000000000E+00 0.  1.
        -13    1    3    3    0    0  0.15307298444E+03  0.12146502882E+03 -0.10381305320E+03  0.22127413271E+03  0.00000000000E+00 0. -1.
          4    1    6    6  502    0 -0.32074630354E+03 -0.56122257707E+03  0.19050052769E+03  0.67389867436E+03  0.00000000000E+00 0. -1.
          3    1    5    5  503    0  0.38205058320E+01  0.22031636683E+03 -0.10313747115E+03  0.24329249004E+03  0.00000000000E+00 0. -1.
         -4    1    5    5    0  503 -0.53406229663E+01  0.22479421246E+02 -0.54142519507E+02  0.58866450987E+02  0.00000000000E+00 0.  1.
         -3    1    6    6    0  502 -0.50396780032E+02 -0.43748233176E+02  0.61347531067E+01  0.67017747942E+02  0.00000000000E+00 0.  1.
<mgrwt>
<rscale>  0 0.16697805E+04</rscale>
<asrwt>0</asrwt>
<pdfrwt beam="1">  1        1 0.15987353E+00 0.16697805E+04</pdfrwt>
<pdfrwt beam="2">  1       -1 0.10319424E+00 0.16697805E+04</pdfrwt>
<totfact> 0.11932141E+01</totfact>
</mgrwt>
</event>
<event>
12    1  0.1472088E-007  0.1496945E+04  0.7818608E-02  0.8886487E-01
         -2   -1    0    0    0  501 -0.00000000000E+00  0.00000000000E+00  0.33287123682E+03  0.33287123682E+03  0.00000000000E+00 0.  1.
          2   -1    0    0  501    0  0.00000000000E+00 -0.00000000000E+00 -0.16829670055E+04  0.16829670055E+04  0.00000000000E+00 0. -1.
         23    2    1    2    0    0  0.12810813058E+03  0.36404077933E+03 -0.67024488615E+02  0.40221523390E+03  0.91364271854E+02 0.  0.
        254    2    1    2    0    0 -0.12810813058E+03 -0.36404077933E+03 -0.12830712801E+04  0.16136230085E+04  0.89920516095E+03 0.  0.
        -24    2    4    4    0    0  0.10545886544E+03 -0.53218077263E+03 -0.39439769004E+03  0.67556866665E+03  0.80656917861E+02 0.  0.
         24    2    4    4    0    0 -0.23356699602E+03  0.16813999330E+03 -0.88867359005E+03  0.93805434180E+03  0.85910415808E+02 0.  0.
         11    1    3    3    0    0  0.26933250650E+02  0.27197594918E+02  0.14926473821E+02  0.41084167031E+02  0.00000000000E+00 0.  1.
        -11    1    3    3    0    0  0.10117487993E+03  0.33684318441E+03 -0.81950962437E+02  0.36113106687E+03  0.00000000000E+00 0. -1.
          2    1    6    6  502    0 -0.19799315539E+03  0.15441819711E+03 -0.65855804261E+03  0.70480136540E+03  0.00000000000E+00 0. -1.
          3    1    5    5  503    0  0.10405693218E+03 -0.50190641033E+03 -0.34587398710E+03  0.61835807169E+03  0.00000000000E+00 0. -1.
         -4    1    5    5    0  503  0.14019332630E+01 -0.30274362293E+02 -0.48523702942E+02  0.57210594966E+02  0.00000000000E+00 0.  1.
         -1    1    6    6    0  502 -0.35573840630E+02  0.13721796187E+02 -0.23011554743E+03  0.23325297640E+03  0.00000000000E+00 0.  1.
<mgrwt>
<rscale>  0 0.14969453E+04</rscale>
<asrwt>0</asrwt>
<pdfrwt beam="1">  1        2 0.25891800E+00 0.14969453E+04</pdfrwt>
<pdfrwt beam="2">  1       -2 0.51210961E-01 0.14969453E+04</pdfrwt>
<totfact> 0.34899436E+01</totfact>
</mgrwt>
</event>
<event>
12    1  0.1472088E-007  0.2055480E+04  0.7818608E-02  0.8581112E-01
          2   -1    0    0  501    0  0.00000000000E+00  0.00000000000E+00  0.20885362893E+04  0.20885362893E+04  0.00000000000E+00 0. -1.
         -2   -1    0    0    0  501 -0.00000000000E+00 -0.00000000000E+00 -0.50573666150E+03  0.50573666150E+03  0.00000000000E+00 0.  1.
         23    2    1    2    0    0  0.23775391665E+03  0.71988412935E+03  0.10220859991E+04  0.12759811210E+04  0.93316380652E+02 0.  0.
        254    2    1    2    0    0 -0.23775391665E+03 -0.71988412935E+03  0.56071362868E+03  0.13182918298E+04  0.92126732853E+03 0.  0.
        -24    2    4    4    0    0  0.18414708081E+03 -0.40389507838E+03 -0.10729645604E+03  0.46365578125E+03  0.80142200466E+02 0.  0.
         24    2    4    4    0    0 -0.42190099745E+03 -0.31598905097E+03  0.66801008471E+03  0.85463604857E+03  0.79471820523E+02 0.  0.
         11    1    3    3    0    0  0.13167470135E+02  0.12707051430E+03  0.20934345703E+03  0.24524473669E+03  0.00000000000E+00 0.  1.
        -11    1    3    3    0    0  0.22458644651E+03  0.59281361505E+03  0.81274254209E+03  0.10307363843E+04  0.00000000000E+00 0. -1.
          4    1    6    6  502    0 -0.19478655152E+03 -0.10675565062E+03  0.24212440997E+03  0.32857693086E+03  0.00000000000E+00 0. -1.
          1    1    5    5  503    0  0.11460215852E+03 -0.17721323383E+03 -0.24279180683E+02  0.21243272722E+03  0.00000000000E+00 0. -1.
         -2    1    5    5    0  503  0.69544922290E+02 -0.22668184455E+03 -0.83017275352E+02  0.25122305402E+03  0.00000000000E+00 0.  1.
         -3    1    6    6    0  502 -0.22711444593E+03 -0.20923340035E+03  0.42588567474E+03  0.52605911771E+03  0.00000000000E+00 0.  1.
<mgrwt>
<rscale>  0 0.20554799E+04</rscale>
<asrwt>0</asrwt>
<pdfrwt beam="1">  1        2 0.32131327E+00 0.20554799E+04</pdfrwt>
<pdfrwt beam="2">  1       -2 0.77805641E-01 0.20554799E+04</pdfrwt>
<totfact> 0.81142433E+00</totfact>
</mgrwt>
</event>
<event>
12    1  0.1472088E-007  0.2224595E+04  0.7818608E-02  0.8508260E-01
         -4   -1    0    0    0  501 -0.00000000000E+00  0.00000000000E+00  0.81591349633E+03  0.81591349633E+03  0.00000000000E+00 0.  1.
          4   -1    0    0  501    0  0.00000000000E+00 -0.00000000000E+00 -0.15163441139E+04  0.15163441139E+04  0.00000000000E+00 0. -1.
         23    2    1    2    0    0 -0.22327479106E+03  0.96580839630E+03 -0.29758299006E+03  0.10387506377E+04  0.88372849886E+02 0.  0.
        254    2    1    2    0    0  0.22327479106E+03 -0.96580839630E+03 -0.40284762754E+03  0.12935069726E+04  0.72679886245E+03 0.  0.
        -24    2    4    4    0    0  0.43392448712E+03 -0.37255138290E+03 -0.29907296010E+03  0.65045638081E+03  0.81017741654E+02 0.  0.
         24    2    4    4    0    0 -0.21064969606E+03 -0.59325701340E+03 -0.10377466744E+03  0.64305059178E+03  0.80110571022E+02 0.  0.
         13    1    3    3    0    0 -0.12711359028E+03  0.50607563846E+03 -0.20144538444E+03  0.55933054591E+03  0.00000000000E+00 0.  1.
        -13    1    3    3    0    0 -0.96161200778E+02  0.45973275784E+03 -0.96137605620E+02  0.47942009176E+03  0.00000000000E+00 0. -1.
          4    1    6    6  502    0 -0.19132861839E+03 -0.52072320029E+03 -0.64974430271E+02  0.55855256523E+03  0.00000000000E+00 0. -1.
          3    1    5    5  503    0  0.24388455404E+03 -0.24504238288E+03 -0.21229826992E+03  0.40570432647E+03  0.00000000000E+00 0. -1.
         -2    1    5    5    0  503  0.19003993308E+03 -0.12750900002E+03 -0.86774690172E+02  0.24475205434E+03  0.00000000000E+00 0.  1.
         -3    1    6    6    0  502 -0.19321077665E+02 -0.72533813106E+02 -0.38800237170E+02  0.84498026547E+02  0.00000000000E+00 0.  1.
<mgrwt>
<rscale>  0 0.22245949E+04</rscale>
<asrwt>0</asrwt>
<pdfrwt beam="1">  1        4 0.23328371E+00 0.22245949E+04</pdfrwt>
<pdfrwt beam="2">  1       -4 0.12552515E+00 0.22245949E+04</pdfrwt>
<totfact> 0.69251317E-02</totfact>
</mgrwt>
</event>
<event>
12    1  0.1472088E-007  0.1625541E+04  0.7818608E-02  0.8805009E-01
          1   -1    0    0  501    0  0.00000000000E+00  0.00000000000E+00  0.12094808519E+04  0.12094808519E+04  0.00000000000E+00 0. -1.
         -1   -1    0    0    0  501 -0.00000000000E+00 -0.00000000000E+00 -0.54618135875E+03  0.54618135875E+03  0.00000000000E+00 0.  1.
         23    2    1    2    0    0  0.18449344882E+03 -0.13488470191E+03  0.79974325896E+03  0.83694933426E+03  0.93076271915E+02 0.  0.
        254    2    1    2    0    0 -0.18449344882E+03  0.13488470191E+03 -0.13644376583E+03  0.91871287639E+03  0.87930923601E+03 0.  0.
        -24    2    4    4    0    0 -0.51457852706E+03  0.45128741744E+02 -0.20088298941E+03  0.55978062558E+03  0.78566592756E+02 0.  0.
         24    2    4    4    0    0  0.33008507825E+03  0.89755960167E+02  0.64439223581E+02  0.35893225081E+03  0.87565152118E+02 0.  0.
         11    1    3    3    0    0  0.51424553967E+02  0.40938100850E+01  0.22557845914E+03  0.23140199925E+03  0.00000000000E+00 0.  1.
        -11    1    3    3    0    0  0.13306889485E+03 -0.13897851200E+03  0.57416479982E+03  0.60554733500E+03  0.00000000000E+00 0. -1.
          2    1    6    6  502    0  0.19038002749E+03  0.20723565925E+02  0.32870121907E+01  0.19153283139E+03  0.00000000000E+00 0. -1.
          3    1    5    5  503    0 -0.11005750517E+03  0.42262615979E+02 -0.49180319752E+02  0.12773991939E+03  0.00000000000E+00 0. -1.
         -4    1    5    5    0  503 -0.40452102189E+03  0.28661257652E+01 -0.15170266965E+03  0.43204070619E+03  0.00000000000E+00 0.  1.
         -1    1    6    6    0  502  0.13970505075E+03  0.69032394242E+02  0.61152211390E+02  0.16739941941E+03  0.00000000000E+00 0.  1.
<mgrwt>
<rscale>  0 0.16255410E+04</rscale>
<asrwt>0</asrwt>
<pdfrwt beam="1">  1        1 0.18607398E+00 0.16255410E+04</pdfrwt>
<pdfrwt beam="2">  1       -1 0.84027901E-01 0.16255410E+04</pdfrwt>
<totfact> 0.14135718E+01</totfact>
</mgrwt>
</event>
<event>
12    1  0.1472088E-007  0.2024243E+04  0.7818608E-02  0.8595369E-01
         -2   -1    0    0    0  501 -0.00000000000E+00  0.00000000000E+00  0.43892809848E+03  0.43892809848E+03  0.00000000000E+00 0.  1.
          2   -1    0    0  501    0  0.00000000000E+00 -0.00000000000E+00 -0.23338446893E+04  0.23338446893E+04  0.00000000000E+00 0. -1.
         23    2    1    2    0    0 -0.69873549870E+03  0.92779294919E+02 -0.13177784747E+04  0.14972810060E+04  0.92038078882E+02 0.  0.
        254    2    1    2    0    0  0.69873549870E+03 -0.92779294919E+02 -0.57713811620E+03  0.12754917818E+04  0.89272144905E+03 0.  0.
        -24    2    4    4    0    0  0.12640782948E+03  0.13349351022E+03 -0.62265919116E+03  0.65375969931E+03  0.76797262256E+02 0.  0.
         24    2    4    4    0    0  0.57232766922E+03 -0.22627280514E+03  0.45521074963E+02  0.62173208250E+03  0.75632472144E+02 0.  0.
         11    1    3    3    0    0 -0.59593245525E+03  0.78420036929E+02 -0.11851804962E+04  0.13288860003E+04  0.00000000000E+00 0.  1.
        -11    1    3    3    0    0 -0.10280304345E+03  0.14359257990E+02 -0.13259797850E+03  0.16839500567E+03  0.00000000000E+00 0. -1.
          4    1    6    6  502    0  0.21327393055E+03 -0.45922592624E+02  0.10735609568E+02  0.21842597666E+03  0.00000000000E+00 0. -1.
          1    1    5    5  503    0  0.51858152521E+02  0.87443796937E+01 -0.20068607636E+03  0.20746236624E+03  0.00000000000E+00 0. -1.
         -2    1    5    5    0  503  0.74549676957E+02  0.12474913052E+03 -0.42197311480E+03  0.44629733308E+03  0.00000000000E+00 0.  1.
         -3    1    6    6    0  502  0.35905373867E+03 -0.18035021251E+03  0.34785465395E+02  0.40330610584E+03  0.00000000000E+00 0.  1.
<mgrwt>
<rscale>  0 0.20242431E+04</rscale>
<asrwt>0</asrwt>
<pdfrwt beam="1">  1        2 0.35905303E+00 0.20242431E+04</pdfrwt>
<pdfrwt beam="2">  1       -2 0.67527399E-01 0.20242431E+04</pdfrwt>
<totfact> 0.80861708E+00</totfact>
</mgrwt>
</event>
<event>
12    1  0.1472088E-007  0.1584612E+04  0.7818608E-02  0.8830058E-01
         -2   -1    0    0    0  501 -0.00000000000E+00  0.00000000000E+00  0.60075327961E+03  0.60075327961E+03  0.00000000000E+00 0.  1.
          2   -1    0    0  501    0  0.00000000000E+00 -0.00000000000E+00 -0.10449362496E+04  0.10449362496E+04  0.00000000000E+00 0. -1.
         23    2    1    2    0    0 -0.52515247483E+02  0.28406666071E+03  0.31360864499E+03  0.43715863820E+03  0.96465402057E+02 0.  0.
        254    2    1    2    0    0  0.52515247483E+02 -0.28406666071E+03 -0.75779161497E+03  0.12085308910E+04  0.89601733457E+03 0.  0.
        -24    2    4    4    0    0 -0.17933493438E+03 -0.49284867372E+03 -0.70106175118E+03  0.87916469722E+03  0.79888372135E+02 0.  0.
         24    2    4    4    0    0  0.23185018187E+03  0.20878201301E+03 -0.56729863790E+02  0.32936619378E+03  0.88990878034E+02 0.  0.
         13    1    3    3    0    0 -0.29873764416E+02  0.21191991067E+02  0.65148932608E+02  0.74739050741E+02  0.00000000000E+00 0. -1.
        -13    1    3    3    0    0 -0.22641483067E+02  0.26287466965E+03  0.24845971238E+03  0.36241958746E+03  0.00000000000E+00 0.  1.
          2    1    6    6  502    0  0.57880230633E+02  0.11447730540E+02  0.47966445923E+01  0.59196109940E+02  0.00000000000E+00 0. -1.
          1    1    5    5  503    0 -0.71319570255E+02 -0.98476993641E+02 -0.15710183585E+03  0.19865846623E+03  0.00000000000E+00 0. -1.
         -2    1    5    5    0  503 -0.10801536413E+03 -0.39437168008E+03 -0.54395991533E+03  0.68050623099E+03  0.00000000000E+00 0.  1.
         -1    1    6    6    0  502  0.17396995123E+03  0.19733428247E+03 -0.61526508382E+02  0.27017008384E+03  0.00000000000E+00 0.  1.
<mgrwt>
<rscale>  0 0.15846121E+04</rscale>
<asrwt>0</asrwt>
<pdfrwt beam="1">  1        2 0.16075942E+00 0.15846121E+04</pdfrwt>
<pdfrwt beam="2">  1       -2 0.92423581E-01 0.15846121E+04</pdfrwt>
<totfact> 0.22501595E+01</totfact>
</mgrwt>
</event>
<event>
12    1  0.1472088E-007  0.1286874E+04  0.7818608E-02  0.9040040E-01
         -2   -1    0    0    0  501 -0.00000000000E+00  0.00000000000E+00  0.19010567381E+03  0.19010567381E+03  0.00000000000E+00 0.  1.
          2   -1    0    0  501    0  0.00000000000E+00 -0.00000000000E+00 -0.21777945053E+04  0.21777945053E+04  0.00000000000E+00 0. -1.
         23    2    1    2    0    0  0.10380588026E+02  0.86441849497E+02 -0.11021271184E+04  0.11092527679E+04  0.90429906077E+02 0.  0.
        254    2    1    2    0    0 -0.10380588026E+02 -0.86441849497E+02 -0.88556171307E+03  0.12586474113E+04  0.89016504551E+03 0.  0.
        -24    2    4    4    0    0 -0.14291116774E+03 -0.35481011171E+02 -0.10284955972E+04  0.10420642780E+04  0.80076601049E+02 0.  0.
         24    2    4    4    0    0  0.13253057971E+03 -0.50960838326E+02  0.14293388411E+03  0.21658313325E+03  0.79478278673E+02 0.  0.
         11    1    3    3    0    0  0.11062244024E+02  0.69682862100E+02 -0.10753105027E+04  0.10776227316E+04  0.00000000000E+00 0. -1.
        -11    1    3    3    0    0 -0.68165599773E+00  0.16758987397E+02 -0.26816615708E+02  0.31630036224E+02  0.00000000000E+00 0.  1.
          2    1    6    6  502    0  0.26856474854E+02 -0.50177874116E+02  0.45920673778E+02  0.73128637158E+02  0.00000000000E+00 0. -1.
          1    1    5    5  503    0 -0.42926680057E+02 -0.26848115399E+02 -0.16075926688E+03  0.16854394990E+03  0.00000000000E+00 0. -1.
         -2    1    5    5    0  503 -0.99984487683E+02 -0.86328957721E+01 -0.86773633030E+03  0.87352032809E+03  0.00000000000E+00 0.  1.
         -1    1    6    6    0  502  0.10567410486E+03 -0.78296421013E+00  0.97013210334E+02  0.14345449610E+03  0.00000000000E+00 0.  1.
<mgrwt>
<rscale>  0 0.12868739E+04</rscale>
<asrwt>0</asrwt>
<pdfrwt beam="1">  1        2 0.33504531E+00 0.12868739E+04</pdfrwt>
<pdfrwt beam="2">  1       -2 0.29247027E-01 0.12868739E+04</pdfrwt>
<totfact> 0.56174080E+01</totfact>
</mgrwt>
</event>
<event>
12    1  0.2275710E-007  0.1371534E+04  0.7818608E-02  0.8974685E-01
         -1   -1    0    0    0  501 -0.00000000000E+00  0.00000000000E+00  0.38614247286E+03  0.38614247286E+03  0.00000000000E+00 0.  1.
          1   -1    0    0  501    0  0.00000000000E+00 -0.00000000000E+00 -0.12178837816E+04  0.12178837816E+04  0.00000000000E+00 0. -1.
         23    2    1    2    0    0  0.69861320556E+02  0.23881236941E+03 -0.56826747016E+03  0.62703985329E+03  0.91318717032E+02 0.  0.
        254    2    1    2    0    0 -0.69861320556E+02 -0.23881236941E+03 -0.26347383855E+03  0.97698640114E+03  0.90728827421E+03 0.  0.
        -24    2    4    4    0    0  0.36324110746E+03 -0.32331659163E+03 -0.13851153969E+03  0.51156446195E+03  0.77685465364E+02 0.  0.
         24    2    4    4    0    0 -0.43310242802E+03  0.84504222222E+02 -0.12496229887E+03  0.46542193919E+03  0.79267449928E+02 0.  0.
         13    1    3    3    0    0 -0.58014859430E+00 -0.81612810865E+01 -0.15646097011E+02  0.17656257617E+02  0.00000000000E+00 0.  1.
        -13    1    3    3    0    0  0.70441469150E+02  0.24697365050E+03 -0.55262137315E+03  0.60938359567E+03  0.00000000000E+00 0. -1.
          2    1    6    6  502    0 -0.42425967266E+03  0.68092498653E+02 -0.11958862667E+03  0.44602051281E+03  0.00000000000E+00 0. -1.
          1    1    5    5  503    0  0.36351541064E+03 -0.31739164185E+03 -0.14387456582E+03  0.50356806767E+03  0.00000000000E+00 0. -1.
         -2    1    5    5    0  503 -0.27430318218E+00 -0.59249497786E+01  0.53630261295E+01  0.79963942737E+01  0.00000000000E+00 0.  1.
         -1    1    6    6    0  502 -0.88427553524E+01  0.16411723569E+02 -0.53736721956E+01  0.19401426380E+02  0.00000000000E+00 0.  1.
<mgrwt>
<rscale>  0 0.13715344E+04</rscale>
<asrwt>0</asrwt>
<pdfrwt beam="1">  1        1 0.18736673E+00 0.13715344E+04</pdfrwt>
<pdfrwt beam="2">  1       -1 0.59406536E-01 0.13715344E+04</pdfrwt>
<totfact> 0.29104786E+01</totfact>
</mgrwt>
</event>
<event>
12    1  0.1472088E-007  0.1927143E+04  0.7818608E-02  0.8641462E-01
          2   -1    0    0  501    0  0.00000000000E+00  0.00000000000E+00  0.12217981812E+04  0.12217981812E+04  0.00000000000E+00 0. -1.
         -2   -1    0    0    0  501 -0.00000000000E+00 -0.00000000000E+00 -0.75992095877E+03  0.75992095877E+03  0.00000000000E+00 0.  1.
         23    2    1    2    0    0 -0.65728546420E+03  0.35847519223E+03  0.21277903954E+03  0.78287809038E+03  0.84229091429E+02 0.  0.
        254    2    1    2    0    0  0.65728546420E+03 -0.35847519223E+03  0.24909818293E+03  0.11988410496E+04  0.90257482384E+03 0.  0.
        -24    2    4    4    0    0  0.75441866114E+03  0.34861953213E+02  0.17716254846E+03  0.77984987083E+03  0.80102312137E+02 0.  0.
         24    2    4    4    0    0 -0.97133196938E+02 -0.39333714544E+03  0.71935634471E+02  0.41899117879E+03  0.78929743870E+02 0.  0.
         13    1    3    3    0    0 -0.61784952237E+03  0.32600984730E+03  0.17744702012E+03  0.72076896283E+03  0.00000000000E+00 0. -1.
        -13    1    3    3    0    0 -0.39435941827E+02  0.32465344922E+02  0.35332019415E+02  0.62109127547E+02  0.00000000000E+00 0.  1.
          4    1    6    6  502    0 -0.60129644537E+02 -0.28249104132E+03  0.85843824932E+02  0.30130702756E+03  0.00000000000E+00 0. -1.
          3    1    5    5  503    0  0.18517896226E+03  0.51649888581E+01  0.86655124774E+01  0.18545354211E+03  0.00000000000E+00 0. -1.
         -4    1    5    5    0  503  0.56923969888E+03  0.29696964355E+02  0.16849703598E+03  0.59439632873E+03  0.00000000000E+00 0.  1.
         -3    1    6    6    0  502 -0.37003552401E+02 -0.11084610411E+03 -0.13908190462E+02  0.11768415122E+03  0.00000000000E+00 0.  1.
<mgrwt>
<rscale>  0 0.19271430E+04</rscale>
<asrwt>0</asrwt>
<pdfrwt beam="1">  1        2 0.18796895E+00 0.19271430E+04</pdfrwt>
<pdfrwt beam="2">  1       -2 0.11691092E+00 0.19271430E+04</pdfrwt>
<totfact> 0.97304002E+00</totfact>
</mgrwt>
</event>
<event>
12    1  0.1472088E-007  0.1527635E+04  0.7818608E-02  0.8866281E-01
         -2   -1    0    0    0  501 -0.00000000000E+00  0.00000000000E+00  0.35218357539E+03  0.35218357539E+03  0.00000000000E+00 0.  1.
          2   -1    0    0  501    0  0.00000000000E+00 -0.00000000000E+00 -0.16565718028E+04  0.16565718028E+04  0.00000000000E+00 0. -1.
         23    2    1    2    0    0 -0.41146315870E+03 -0.26583154197E+03 -0.49019024697E+03  0.69901851537E+03  0.91498999623E+02 0.  0.
        254    2    1    2    0    0  0.41146315870E+03  0.26583154197E+03 -0.81419798043E+03  0.13097368628E+04  0.90140110872E+03 0.  0.
        -24    2    4    4    0    0  0.68123017909E+03  0.13626494122E+03 -0.66446959625E+03  0.96468313821E+03  0.80318252559E+02 0.  0.
         24    2    4    4    0    0 -0.26976702039E+03  0.12956660074E+03 -0.14972838418E+03  0.34505372461E+03  0.84153042229E+02 0.  0.
         11    1    3    3    0    0 -0.29822820225E+03 -0.15474525507E+03 -0.29180619183E+03  0.44501349212E+03  0.00000000000E+00 0.  1.
        -11    1    3    3    0    0 -0.11323495645E+03 -0.11108628690E+03 -0.19838405514E+03  0.25400502324E+03  0.00000000000E+00 0. -1.
          4    1    6    6  502    0 -0.18845702771E+03  0.53887034224E+02 -0.12088942352E+03  0.23029137298E+03  0.00000000000E+00 0. -1.
          1    1    5    5  503    0  0.57011417093E+03  0.14286701082E+03 -0.54816547258E+03  0.80369554932E+03  0.00000000000E+00 0. -1.
         -2    1    5    5    0  503  0.11111600816E+03 -0.66020695917E+01 -0.11630412367E+03  0.16098758889E+03  0.00000000000E+00 0.  1.
         -3    1    6    6    0  502 -0.81309992684E+02  0.75679566521E+02 -0.28838960660E+02  0.11476235163E+03  0.00000000000E+00 0.  1.
<mgrwt>
<rscale>  0 0.15276353E+04</rscale>
<asrwt>0</asrwt>
<pdfrwt beam="1">  1        2 0.25485720E+00 0.15276353E+04</pdfrwt>
<pdfrwt beam="2">  1       -2 0.54182088E-01 0.15276353E+04</pdfrwt>
<totfact> 0.32060862E+01</totfact>
</mgrwt>
</event>
<event>
12    1  0.1472088E-007  0.1615411E+04  0.7818608E-02  0.8811136E-01
         -1   -1    0    0    0  501 -0.00000000000E+00  0.00000000000E+00  0.47763750523E+03  0.47763750523E+03  0.00000000000E+00 0.  1.
          1   -1    0    0  501    0  0.00000000000E+00 -0.00000000000E+00 -0.13658638486E+04  0.13658638486E+04  0.00000000000E+00 0. -1.
         23    2    1    2    0    0 -0.44147831098E+03 -0.21208856150E+03  0.55047650936E+02  0.50088212340E+03  0.89263658244E+02 0.  0.
        254    2    1    2    0    0  0.44147831098E+03  0.21208856150E+03 -0.94327399427E+03  0.13426192304E+04  0.82035109106E+03 0.  0.
        -24    2    4    4    0    0  0.25298118341E+03 -0.30001249102E+03 -0.45539266255E+03  0.60637557820E+03  0.79384449322E+02 0.  0.
         24    2    4    4    0    0  0.18849712756E+03  0.51210105253E+03 -0.48788133172E+03  0.73624365221E+03  0.79043446775E+02 0.  0.
         13    1    3    3    0    0 -0.19127085619E+03 -0.12962409192E+03 -0.31769959286E+01  0.23107799319E+03  0.00000000000E+00 0. -1.
        -13    1    3    3    0    0 -0.25020745479E+03 -0.82464469582E+02  0.58224646864E+02  0.26980413021E+03  0.00000000000E+00 0.  1.
          2    1    6    6  502    0  0.17160032550E+02  0.10147069944E+03 -0.60960876242E+02  0.11961186393E+03  0.00000000000E+00 0. -1.
          3    1    5    5  503    0  0.41880617497E+02 -0.27604909342E+02 -0.28346808354E+02  0.57615611475E+02  0.00000000000E+00 0. -1.
         -4    1    5    5    0  503  0.21110056592E+03 -0.27240758168E+03 -0.42704585420E+03  0.54875996672E+03  0.00000000000E+00 0.  1.
         -1    1    6    6    0  502  0.17133709501E+03  0.41063035309E+03 -0.42692045548E+03  0.61663178828E+03  0.00000000000E+00 0.  1.
<mgrwt>
<rscale>  0 0.16154105E+04</rscale>
<asrwt>0</asrwt>
<pdfrwt beam="1">  1        1 0.21013290E+00 0.16154105E+04</pdfrwt>
<pdfrwt beam="2">  1       -1 0.73482692E-01 0.16154105E+04</pdfrwt>
<totfact> 0.14520753E+01</totfact>
</mgrwt>
</event>
<event>
12    1  0.1472088E-007  0.1852814E+04  0.7818608E-02  0.8678707E-01
         -1   -1    0    0    0  501 -0.00000000000E+00  0.00000000000E+00  0.94971008890E+03  0.94971008890E+03  0.00000000000E+00 0.  1.
          1   -1    0    0  501    0  0.00000000000E+00 -0.00000000000E+00 -0.90367599994E+03  0.90367599994E+03  0.00000000000E+00 0. -1.
         23    2    1    2    0    0  0.15997191217E+03  0.53941948523E+03 -0.40155184913E+03  0.69641874376E+03  0.84798498732E+02 0.  0.
        254    2    1    2    0    0 -0.15997191217E+03 -0.53941948523E+03  0.44758593808E+03  0.11569673451E+04  0.90646338695E+03 0.  0.
        -24    2    4    4    0    0  0.31303509992E+03 -0.32296110292E+02  0.30524175627E+03  0.44474350797E+03  0.74767944961E+02 0.  0.
         24    2    4    4    0    0 -0.47300701209E+03 -0.50712337494E+03  0.14234418182E+03  0.71222383711E+03  0.78045993845E+02 0.  0.
         13    1    3    3    0    0  0.21269414931E+02  0.18120542104E+03 -0.15988422129E+03  0.24259174933E+03  0.00000000000E+00 0.  1.
        -13    1    3    3    0    0  0.13870249724E+03  0.35821406419E+03 -0.24166762784E+03  0.45382699443E+03  0.00000000000E+00 0. -1.
          4    1    6    6  502    0 -0.26634782268E+03 -0.33179007866E+03  0.10862000109E+03  0.43911743712E+03  0.00000000000E+00 0. -1.
          3    1    5    5  503    0  0.11654480711E+03  0.19130238751E+02  0.87562975790E+02  0.14702357916E+03  0.00000000000E+00 0. -1.
         -4    1    5    5    0  503  0.19649029281E+03 -0.51426349043E+02  0.21767878048E+03  0.29771992882E+03  0.00000000000E+00 0.  1.
         -3    1    6    6    0  502 -0.20665918941E+03 -0.17533329628E+03  0.33724180729E+02  0.27310639999E+03  0.00000000000E+00 0.  1.
<mgrwt>
<rscale>  0 0.18528143E+04</rscale>
<asrwt>0</asrwt>
<pdfrwt beam="1">  1        1 0.13902708E+00 0.18528143E+04</pdfrwt>
<pdfrwt beam="2">  1       -1 0.14610924E+00 0.18528143E+04</pdfrwt>
<totfact> 0.63561191E+00</totfact>
</mgrwt>
</event>
<event>
12    1  0.1472088E-007  0.1794776E+04  0.7818608E-02  0.8709083E-01
         -2   -1    0    0    0  501 -0.00000000000E+00  0.00000000000E+00  0.47329793952E+03  0.47329793952E+03  0.00000000000E+00 0.  1.
          2   -1    0    0  501    0  0.00000000000E+00 -0.00000000000E+00 -0.17014754146E+04  0.17014754146E+04  0.00000000000E+00 0. -1.
         23    2    1    2    0    0 -0.43973185481E+03  0.48592062832E+03 -0.62204240702E+03  0.90786292915E+03  0.88291453941E+02 0.  0.
        254    2    1    2    0    0  0.43973185481E+03 -0.48592062832E+03 -0.60613506806E+03  0.12669104250E+04  0.89898795487E+03 0.  0.
        -24    2    4    4    0    0 -0.26554659891E+03 -0.11233559910E+03 -0.24809881889E+03  0.38813380376E+03  0.77204550827E+02 0.  0.
         24    2    4    4    0    0  0.70527845372E+03 -0.37358502922E+03 -0.35803624917E+03  0.87877662120E+03  0.84112561050E+02 0.  0.
         13    1    3    3    0    0 -0.22729657131E+03  0.24694466799E+03 -0.37888873053E+03  0.50616407468E+03  0.00000000000E+00 0.  1.
        -13    1    3    3    0    0 -0.21243528350E+03  0.23897596033E+03 -0.24315367649E+03  0.40169885447E+03  0.00000000000E+00 0. -1.
          2    1    6    6  502    0  0.51745552008E+03 -0.26744672591E+03 -0.21993562037E+03  0.62262319550E+03  0.00000000000E+00 0. -1.
          3    1    5    5  503    0 -0.21950963811E+03 -0.11979779305E+03 -0.22356809154E+03  0.33543804793E+03  0.00000000000E+00 0. -1.
         -4    1    5    5    0  503 -0.46036960796E+02  0.74621939536E+01 -0.24530727351E+02  0.52695755828E+02  0.00000000000E+00 0.  1.
         -1    1    6    6    0  502  0.18782293363E+03 -0.10613830331E+03 -0.13810062879E+03  0.25615342570E+03  0.00000000000E+00 0.  1.
<mgrwt>
<rscale>  0 0.17947755E+04</rscale>
<asrwt>0</asrwt>
<pdfrwt beam="1">  1        2 0.26176545E+00 0.17947755E+04</pdfrwt>
<pdfrwt beam="2">  1       -2 0.72815067E-01 0.17947755E+04</pdfrwt>
<totfact> 0.15758400E+01</totfact>
</mgrwt>
</event>
<event>
12    1  0.1472088E-007  0.1594509E+04  0.7818608E-02  0.8823928E-01
          2   -1    0    0  501    0  0.00000000000E+00  0.00000000000E+00  0.29681099103E+03  0.29681099103E+03  0.00000000000E+00 0.  1.
         -2   -1    0    0    0  501 -0.00000000000E+00 -0.00000000000E+00 -0.21414795930E+04  0.21414795930E+04  0.00000000000E+00 0. -1.
         23    2    1    2    0    0  0.52928172133E+03 -0.87836298722E+02 -0.57496818778E+03  0.79167065307E+03  0.91102415252E+02 0.  0.
        254    2    1    2    0    0 -0.52928172133E+03  0.87836298722E+02 -0.12697004142E+04  0.16466199310E+04  0.90075729214E+03 0.  0.
        -24    2    4    4    0    0  0.20116183507E+03 -0.88857780052E+02 -0.10026986535E+03  0.25427915749E+03  0.79006677395E+02 0.  0.
         24    2    4    4    0    0 -0.73044355640E+03  0.17669407877E+03 -0.11694305489E+04  0.13923407735E+04  0.79223950576E+02 0.  0.
         11    1    3    3    0    0  0.45769985268E+03 -0.84401104655E+02 -0.44871747141E+03  0.64649831458E+03  0.00000000000E+00 0. -1.
        -11    1    3    3    0    0  0.71581868654E+02 -0.34351940667E+01 -0.12625071637E+03  0.14517233849E+03  0.00000000000E+00 0.  1.
          2    1    6    6  502    0 -0.69962755684E+03  0.15612486879E+03 -0.11303755608E+04  0.13385076023E+04  0.00000000000E+00 0. -1.
          3    1    5    5  503    0  0.18555854652E+03 -0.10333084159E+03 -0.91513305154E+02  0.23126591195E+03  0.00000000000E+00 0. -1.
         -4    1    5    5    0  503  0.15603288546E+02  0.14473061538E+02 -0.87565602006E+01  0.23013245540E+02  0.00000000000E+00 0.  1.
         -1    1    6    6    0  502 -0.30815999566E+02  0.20569209985E+02 -0.39054988065E+02  0.53833171200E+02  0.00000000000E+00 0.  1.
<mgrwt>
<rscale>  0 0.15945089E+04</rscale>
<asrwt>0</asrwt>
<pdfrwt beam="1">  1        2 0.45663229E-01 0.15945089E+04</pdfrwt>
<pdfrwt beam="2">  1       -2 0.32945840E+00 0.15945089E+04</pdfrwt>
<totfact> 0.22403587E+00</totfact>
</mgrwt>
</event>
<event>
12    1  0.1472088E-007  0.2001568E+04  0.7818608E-02  0.8605888E-01
         -2   -1    0    0    0  501 -0.00000000000E+00  0.00000000000E+00  0.39552778368E+03  0.39552778368E+03  0.00000000000E+00 0. -1.
          2   -1    0    0  501    0  0.00000000000E+00 -0.00000000000E+00 -0.25322339647E+04  0.25322339647E+04  0.00000000000E+00 0.  1.
         23    2    1    2    0    0  0.73961415522E+03 -0.29289018384E+03 -0.80872987270E+03  0.11381785608E+04  0.92696660022E+02 0.  0.
        254    2    1    2    0    0 -0.73961415522E+03  0.29289018384E+03 -0.13279763083E+04  0.17895831876E+04  0.89792714156E+03 0.  0.
        -24    2    4    4    0    0  0.12532850296E+03 -0.15265303123E+03 -0.33036021289E+03  0.39375330054E+03  0.83027765395E+02 0.  0.
         24    2    4    4    0    0 -0.86494265818E+03  0.44554321507E+03 -0.99761609541E+03  0.13958298871E+04  0.80427864479E+02 0.  0.
         13    1    3    3    0    0  0.35566628854E+03 -0.10779071970E+03 -0.42600270738E+03  0.56532791789E+03  0.00000000000E+00 0. -1.
        -13    1    3    3    0    0  0.38394786668E+03 -0.18509946414E+03 -0.38272716532E+03  0.57285064287E+03  0.00000000000E+00 0.  1.
          2    1    6    6  502    0 -0.77917478409E+02  0.67753916270E+02 -0.10764321440E+03  0.14916027694E+03  0.00000000000E+00 0. -1.
          3    1    5    5  503    0  0.42123587932E+02 -0.15321504706E+02 -0.32488689025E+02  0.55359372118E+02  0.00000000000E+00 0. -1.
         -4    1    5    5    0  503  0.83204915024E+02 -0.13733152652E+03 -0.29787152387E+03  0.33839392842E+03  0.00000000000E+00 0.  1.
         -3    1    6    6    0  502 -0.78702517977E+03  0.37778929880E+03 -0.88997288102E+03  0.12466696101E+04  0.00000000000E+00 0.  1.
<mgrwt>
<rscale>  0 0.20015683E+04</rscale>
<asrwt>0</asrwt>
<pdfrwt beam="1">  1        2 0.38957444E+00 0.20015683E+04</pdfrwt>
<pdfrwt beam="2">  1       -2 0.60850431E-01 0.20015683E+04</pdfrwt>
<totfact> 0.77906563E+00</totfact>
</mgrwt>
</event>
<event>
12    1  0.1472088E-007  0.1382486E+04  0.7818608E-02  0.8966595E-01
          2   -1    0    0  501    0  0.00000000000E+00  0.00000000000E+00  0.20739405934E+04  0.20739405934E+04  0.00000000000E+00 0.  1.
         -2   -1    0    0    0  501 -0.00000000000E+00 -0.00000000000E+00 -0.23039075854E+03  0.23039075854E+03  0.00000000000E+00 0. -1.
         23    2    1    2    0    0 -0.18428630750E+03  0.75962994212E+02  0.11604670269E+04  0.11807954767E+04  0.88670275458E+02 0.  0.
        254    2    1    2    0    0  0.18428630750E+03 -0.75962994212E+02  0.68308280800E+03  0.11235358752E+04  0.86948198414E+03 0.  0.
        -24    2    4    4    0    0 -0.11650280386E+03  0.33752564829E+03  0.21039615080E+03  0.42260181713E+03  0.82639512426E+02 0.  0.
         24    2    4    4    0    0  0.30078911135E+03 -0.41348864250E+03  0.47268665720E+03  0.70093405810E+03  0.80180614407E+02 0.  0.
         11    1    3    3    0    0 -0.88959913884E+02  0.84187675166E+02  0.65222495477E+03  0.66362551379E+03  0.00000000000E+00 0.  1.
        -11    1    3    3    0    0 -0.95326393613E+02 -0.82246809542E+01  0.50824207213E+03  0.51716996295E+03  0.00000000000E+00 0. -1.
          4    1    6    6  502    0  0.27416675842E+03 -0.40558159213E+03  0.44228800508E+03  0.65975944005E+03  0.00000000000E+00 0. -1.
          1    1    5    5  503    0 -0.45063271320E+02  0.20477278713E+03  0.84006307978E+02  0.22587530310E+03  0.00000000000E+00 0. -1.
         -2    1    5    5    0  503 -0.71439532537E+02  0.13275286116E+03  0.12638984282E+03  0.19672651403E+03  0.00000000000E+00 0.  1.
         -3    1    6    6    0  502  0.26622352929E+02 -0.79070503754E+01  0.30398652120E+02  0.41174618053E+02  0.00000000000E+00 0.  1.
<mgrwt>
<rscale>  0 0.13824858E+04</rscale>
<asrwt>0</asrwt>
<pdfrwt beam="1">  1        2 0.31906777E+00 0.13824858E+04</pdfrwt>
<pdfrwt beam="2">  1       -2 0.35444734E-01 0.13824858E+04</pdfrwt>
<totfact> 0.44321054E+01</totfact>
</mgrwt>
</event>
<event>
12    1  0.1472088E-007  0.2422542E+04  0.7818608E-02  0.8431112E-01
          1   -1    0    0  501    0  0.00000000000E+00  0.00000000000E+00  0.95520898019E+03  0.95520898019E+03  0.00000000000E+00 0. -1.
         -1   -1    0    0    0  501 -0.00000000000E+00 -0.00000000000E+00 -0.15359754959E+04  0.15359754959E+04  0.00000000000E+00 0.  1.
         23    2    1    2    0    0  0.32512332461E+03 -0.60482946248E+03 -0.10573501074E+04  0.12637143154E+04  0.86375728841E+02 0.  0.
        254    2    1    2    0    0 -0.32512332461E+03  0.60482946248E+03  0.47658359160E+03  0.12274701607E+04  0.89890334343E+03 0.  0.
        -24    2    4    4    0    0 -0.51153187330E+03  0.62782574464E+03  0.58075531741E+03  0.99969553958E+03  0.79274271547E+02 0.  0.
         24    2    4    4    0    0  0.18640854868E+03 -0.22996282163E+02 -0.10417172581E+03  0.22777462116E+03  0.75845590318E+02 0.  0.
         11    1    3    3    0    0  0.61331889850E+02 -0.55735124295E+02 -0.13117368936E+03  0.15515972922E+03  0.00000000000E+00 0. -1.
        -11    1    3    3    0    0  0.26379143476E+03 -0.54909433818E+03 -0.92617641799E+03  0.11085545862E+04  0.00000000000E+00 0.  1.
          2    1    6    6  502    0  0.80446864981E+02 -0.45306843747E+02 -0.32327315123E+02  0.97823634560E+02  0.00000000000E+00 0. -1.
          3    1    5    5  503    0 -0.34289896290E+03  0.47532526499E+03  0.40742461158E+03  0.71379872542E+03  0.00000000000E+00 0. -1.
         -4    1    5    5    0  503 -0.16863291039E+03  0.15250047965E+03  0.17333070583E+03  0.28589681415E+03  0.00000000000E+00 0.  1.
         -1    1    6    6    0  502  0.10596168370E+03  0.22310561584E+02 -0.71844410684E+02  0.12995098660E+03  0.00000000000E+00 0.  1.
<mgrwt>
<rscale>  0 0.24225421E+04</rscale>
<asrwt>0</asrwt>
<pdfrwt beam="1">  1        1 0.14695523E+00 0.24225421E+04</pdfrwt>
<pdfrwt beam="2">  1       -1 0.23630392E+00 0.24225421E+04</pdfrwt>
<totfact> 0.12589297E+00</totfact>
</mgrwt>
</event>
<event>
12    1  0.1472088E-007  0.1238031E+04  0.7818608E-02  0.9080204E-01
         -2   -1    0    0    0  501 -0.00000000000E+00  0.00000000000E+00  0.28322261299E+03  0.28322261299E+03  0.00000000000E+00 0. -1.
          2   -1    0    0  501    0  0.00000000000E+00 -0.00000000000E+00 -0.13529300837E+04  0.13529300837E+04  0.00000000000E+00 0.  1.
         23    2    1    2    0    0  0.26767249589E+03  0.24677422445E+02 -0.27822615764E+03  0.39724902349E+03  0.90218909525E+02 0.  0.
        254    2    1    2    0    0 -0.26767249589E+03 -0.24677422445E+02 -0.79148131304E+03  0.12389036732E+04  0.91442993295E+03 0.  0.
        -24    2    4    4    0    0 -0.17779337915E+03 -0.45104014641E+03 -0.29332738571E+03  0.57225549950E+03  0.79923101550E+02 0.  0.
         24    2    4    4    0    0 -0.89879116734E+02  0.42636272396E+03 -0.49815392733E+03  0.66664817367E+03  0.79993900573E+02 0.  0.
         13    1    3    3    0    0  0.13053384852E+03 -0.24181942942E+02 -0.95085955427E+02  0.16329479751E+03  0.00000000000E+00 0.  1.
        -13    1    3    3    0    0  0.13713864736E+03  0.48859365386E+02 -0.18314020221E+03  0.23395422598E+03  0.00000000000E+00 0. -1.
          2    1    6    6  502    0 -0.74610580311E+02  0.41461295341E+03 -0.48862269340E+03  0.64515329677E+03  0.00000000000E+00 0. -1.
          1    1    5    5  503    0 -0.37857364298E+02 -0.16727950434E+03 -0.13612072373E+03  0.21896224340E+03  0.00000000000E+00 0. -1.
         -2    1    5    5    0  503 -0.13993601485E+03 -0.28376064207E+03 -0.15720666198E+03  0.35329325611E+03  0.00000000000E+00 0.  1.
         -1    1    6    6    0  502 -0.15268536424E+02  0.11749770558E+02 -0.95312339325E+01  0.21494876901E+02  0.00000000000E+00 0.  1.
<mgrwt>
<rscale>  0 0.12380313E+04</rscale>
<asrwt>0</asrwt>
<pdfrwt beam="1">  1        2 0.20814309E+00 0.12380313E+04</pdfrwt>
<pdfrwt beam="2">  1       -2 0.43572710E-01 0.12380313E+04</pdfrwt>
<totfact> 0.75679057E+01</totfact>
</mgrwt>
</event>
<event>
12    1  0.1472088E-007  0.1242574E+04  0.7818608E-02  0.9076387E-01
          2   -1    0    0  501    0  0.00000000000E+00  0.00000000000E+00  0.57818715645E+03  0.57818715645E+03  0.00000000000E+00 0. -1.
         -2   -1    0    0    0  501 -0.00000000000E+00 -0.00000000000E+00 -0.66759927259E+03  0.66759927259E+03  0.00000000000E+00 0.  1.
         23    2    1    2    0    0  0.27826999593E+03 -0.10543928054E+02 -0.84821089555E+02  0.30476922794E+03  0.90245775590E+02 0.  0.
        254    2    1    2    0    0 -0.27826999593E+03  0.10543928054E+02 -0.45910265827E+01  0.94101720111E+03  0.89885868200E+03 0.  0.
        -24    2    4    4    0    0  0.32715715529E+01  0.19730398759E+03 -0.37651534208E+03  0.43236754341E+03  0.78983055608E+02 0.  0.
         24    2    4    4    0    0 -0.28154156748E+03 -0.18676005954E+03  0.37192431550E+03  0.50864965770E+03  0.79068348672E+02 0.  0.
         11    1    3    3    0    0  0.18873378649E+03 -0.49047307975E+02 -0.50461905914E+02  0.20142612674E+03  0.00000000000E+00 0.  1.
        -11    1    3    3    0    0  0.89536209434E+02  0.38503379922E+02 -0.34359183641E+02  0.10334310120E+03  0.00000000000E+00 0. -1.
          2    1    6    6  502    0 -0.18673930658E+03 -0.77681589500E+02  0.20812783999E+03  0.29021232873E+03  0.00000000000E+00 0. -1.
          3    1    5    5  503    0  0.12869992706E+02  0.41067644576E+02 -0.15677924752E+03  0.16257896726E+03  0.00000000000E+00 0. -1.
         -4    1    5    5    0  503 -0.95984211527E+01  0.15623634302E+03 -0.21973609456E+03  0.26978857615E+03  0.00000000000E+00 0.  1.
         -1    1    6    6    0  502 -0.94802260898E+02 -0.10907847004E+03  0.16379647551E+03  0.21843732896E+03  0.00000000000E+00 0.  1.
<mgrwt>
<rscale>  0 0.12425737E+04</rscale>
<asrwt>0</asrwt>
<pdfrwt beam="1">  1        2 0.88951870E-01 0.12425737E+04</pdfrwt>
<pdfrwt beam="2">  1       -2 0.10270758E+00 0.12425737E+04</pdfrwt>
<totfact> 0.39558833E+01</totfact>
</mgrwt>
</event>
<event>
12    1  0.1472088E-007  0.1655229E+04  0.7818608E-02  0.8787319E-01
          1   -1    0    0  501    0  0.00000000000E+00  0.00000000000E+00  0.25587699868E+04  0.25587699868E+04  0.00000000000E+00 0. -1.
         -1   -1    0    0    0  501 -0.00000000000E+00 -0.00000000000E+00 -0.26768554101E+03  0.26768554101E+03  0.00000000000E+00 0.  1.
         23    2    1    2    0    0 -0.26833061215E+03 -0.37724880250E+03  0.26103531976E+03  0.53940462707E+03  0.92195103643E+02 0.  0.
        254    2    1    2    0    0  0.26833061215E+03  0.37724880250E+03  0.20300491260E+04  0.22870509007E+04  0.94614184566E+03 0.  0.
        -24    2    4    4    0    0  0.36462931413E+03  0.64312109110E+03  0.12611617070E+04  0.14639692545E+04  0.78216700598E+02 0.  0.
         24    2    4    4    0    0 -0.96298701988E+02 -0.26587228860E+03  0.76888741899E+03  0.82308164626E+03  0.79460804650E+02 0.  0.
         13    1    3    3    0    0 -0.14249870395E+03 -0.19455500684E+03  0.18825107925E+03  0.30593463379E+03  0.00000000000E+00 0. -1.
        -13    1    3    3    0    0 -0.12583190820E+03 -0.18269379566E+03  0.72784240511E+02  0.23346999328E+03  0.00000000000E+00 0.  1.
          4    1    6    6  502    0 -0.60999424925E+02 -0.17173806916E+03  0.38052104049E+03  0.42191368370E+03  0.00000000000E+00 0. -1.
          1    1    5    5  503    0  0.14667063847E+01  0.13938745653E+02  0.47224209623E+02  0.49260185064E+02  0.00000000000E+00 0. -1.
         -2    1    5    5    0  503  0.36316260775E+03  0.62918234544E+03  0.12139374974E+04  0.14147090694E+04  0.00000000000E+00 0.  1.
         -3    1    6    6    0  502 -0.35299277063E+02 -0.94134219434E+02  0.38836637850E+03  0.40116796256E+03  0.00000000000E+00 0.  1.
<mgrwt>
<rscale>  0 0.16552290E+04</rscale>
<asrwt>0</asrwt>
<pdfrwt beam="1">  1        1 0.39365690E+00 0.16552290E+04</pdfrwt>
<pdfrwt beam="2">  1       -1 0.41182393E-01 0.16552290E+04</pdfrwt>
<totfact> 0.68129152E+00</totfact>
</mgrwt>
</event>
<event>
12    1  0.1472088E-007  0.1491670E+04  0.7818608E-02  0.8890011E-01
          1   -1    0    0  501    0  0.00000000000E+00  0.00000000000E+00  0.29910565886E+04  0.29910565886E+04  0.00000000000E+00 0. -1.
         -1   -1    0    0    0  501 -0.00000000000E+00 -0.00000000000E+00 -0.18597765088E+03  0.18597765088E+03  0.00000000000E+00 0.  1.
         23    2    1    2    0    0  0.53989084152E+02  0.44495926855E+02  0.18863788753E+04  0.18898368332E+04  0.90350907377E+02 0.  0.
        254    2    1    2    0    0 -0.53989084152E+02 -0.44495926855E+02  0.91870006247E+03  0.12871974063E+04  0.89887298837E+03 0.  0.
        -24    2    4    4    0    0  0.30761617505E+03  0.26913316763E+03  0.41778813212E+03  0.58966587544E+03  0.78093202287E+02 0.  0.
         24    2    4    4    0    0 -0.36160525920E+03 -0.31362909448E+03  0.50091193035E+03  0.69753153084E+03  0.80721138215E+02 0.  0.
         11    1    3    3    0    0  0.19719143622E+02  0.45810172714E+01  0.14710591995E+04  0.14711984906E+04  0.00000000000E+00 0. -1.
        -11    1    3    3    0    0  0.34269940529E+02  0.39914909583E+02  0.41531967579E+03  0.41863834264E+03  0.00000000000E+00 0.  1.
          4    1    6    6  502    0 -0.18357031209E+03 -0.12002542408E+03  0.18899080092E+03  0.28951974844E+03  0.00000000000E+00 0. -1.
          1    1    5    5  503    0  0.37486590794E+02  0.42696364162E+01  0.41255679616E+02  0.55906219557E+02  0.00000000000E+00 0. -1.
         -2    1    5    5    0  503  0.27012958426E+03  0.26486353121E+03  0.37653245250E+03  0.53375965588E+03  0.00000000000E+00 0.  1.
         -3    1    6    6    0  502 -0.17803494711E+03 -0.19360367040E+03  0.31192112943E+03  0.40801178239E+03  0.00000000000E+00 0.  1.
<mgrwt>
<rscale>  0 0.14916698E+04</rscale>
<asrwt>0</asrwt>
<pdfrwt beam="1">  1        1 0.46016252E+00 0.14916698E+04</pdfrwt>
<pdfrwt beam="2">  1       -1 0.28611949E-01 0.14916698E+04</pdfrwt>
<totfact> 0.65534425E+00</totfact>
</mgrwt>
</event>
<event>
12    1  0.1472088E-007  0.1093177E+04  0.7818608E-02  0.9211868E-01
          2   -1    0    0  501    0  0.00000000000E+00  0.00000000000E+00  0.17677439236E+04  0.17677439236E+04  0.00000000000E+00 0. -1.
         -2   -1    0    0    0  501 -0.00000000000E+00 -0.00000000000E+00 -0.16900577946E+03  0.16900577946E+03  0.00000000000E+00 0.  1.
         23    2    1    2    0    0  0.88498410435E+02 -0.10328265930E+03  0.39067699625E+03  0.42559659650E+03  0.10002335323E+03 0.  0.
        254    2    1    2    0    0 -0.88498410435E+02  0.10328265930E+03  0.12080611479E+04  0.15111531065E+04  0.89759272393E+03 0.  0.
        -24    2    4    4    0    0  0.15562174446E+03  0.44501104871E+03  0.66275237006E+03  0.81727966100E+03  0.80326704442E+02 0.  0.
         24    2    4    4    0    0 -0.24412015490E+03 -0.34172838941E+03  0.54530877780E+03  0.69387344553E+03  0.87896263321E+02 0.  0.
         13    1    3    3    0    0  0.18155996899E+02 -0.83834289113E+02  0.28145203674E+03  0.29423303220E+03  0.00000000000E+00 0. -1.
        -13    1    3    3    0    0  0.70342413536E+02 -0.19448370188E+02  0.10922495951E+03  0.13136356430E+03  0.00000000000E+00 0.  1.
          4    1    6    6  502    0 -0.57663344063E+02 -0.30947195497E+02  0.65746627212E+02  0.92765344539E+02  0.00000000000E+00 0. -1.
          1    1    5    5  503    0  0.29495146213E+02  0.22223948912E+02  0.55808624789E+02  0.66921372940E+02  0.00000000000E+00 0. -1.
         -2    1    5    5    0  503  0.12612659825E+03  0.42278709980E+03  0.60694374527E+03  0.75035828806E+03  0.00000000000E+00 0.  1.
         -3    1    6    6    0  502 -0.18645681083E+03 -0.31078119391E+03  0.47956215059E+03  0.60110810099E+03  0.00000000000E+00 0.  1.
<mgrwt>
<rscale>  0 0.10931769E+04</rscale>
<asrwt>0</asrwt>
<pdfrwt beam="1">  1        2 0.27196059E+00 0.10931769E+04</pdfrwt>
<pdfrwt beam="2">  1       -2 0.26000890E-01 0.10931769E+04</pdfrwt>
<totfact> 0.11933867E+02</totfact>
</mgrwt>
</event>
<event>
12    1  0.1472088E-007  0.3085407E+04  0.7818608E-02  0.8219754E-01
          1   -1    0    0  501    0  0.00000000000E+00  0.00000000000E+00  0.17736529508E+04  0.17736529508E+04  0.00000000000E+00 0. -1.
         -1   -1    0    0    0  501 -0.00000000000E+00 -0.00000000000E+00 -0.13418259228E+04  0.13418259228E+04  0.00000000000E+00 0.  1.
         23    2    1    2    0    0 -0.64802027391E+03 -0.11896005314E+04  0.59374478634E+03  0.14818515501E+04  0.90947488408E+02 0.  0.
        254    2    1    2    0    0  0.64802027391E+03  0.11896005314E+04 -0.16191775836E+03  0.16336273235E+04  0.89857730442E+03 0.  0.
        -24    2    4    4    0    0 -0.68444425880E+02  0.34167931345E+03  0.26130252135E+03  0.44225389116E+03  0.76681835582E+02 0.  0.
         24    2    4    4    0    0  0.71646469978E+03  0.84792121792E+03 -0.42322027971E+03  0.11913734323E+04  0.89236720611E+02 0.  0.
         11    1    3    3    0    0 -0.46892205285E+03 -0.91513196038E+03  0.48151794294E+03  0.11354355666E+04  0.00000000000E+00 0. -1.
        -11    1    3    3    0    0 -0.17909822106E+03 -0.27446857098E+03  0.11222684340E+03  0.34641598350E+03  0.00000000000E+00 0.  1.
          4    1    6    6  502    0  0.92334136629E+02  0.12124269038E+03 -0.27113263797E+02  0.15479183387E+03  0.00000000000E+00 0. -1.
          3    1    5    5  503    0  0.16201668403E+02  0.36323666013E+02  0.33413018159E+02  0.51945476744E+02  0.00000000000E+00 0. -1.
         -4    1    5    5    0  503 -0.84646094283E+02  0.30535564743E+03  0.22788950320E+03  0.39030841442E+03  0.00000000000E+00 0.  1.
         -3    1    6    6    0  502  0.62413056316E+03  0.72667852753E+03 -0.39610701591E+03  0.10365815985E+04  0.00000000000E+00 0.  1.
<mgrwt>
<rscale>  0 0.30854066E+04</rscale>
<asrwt>0</asrwt>
<pdfrwt beam="1">  1        1 0.27286968E+00 0.30854066E+04</pdfrwt>
<pdfrwt beam="2">  1       -1 0.20643476E+00 0.30854066E+04</pdfrwt>
<totfact> 0.48768728E-01</totfact>
</mgrwt>
</event>
<event>
12    1  0.1472088E-007  0.1696665E+04  0.7818608E-02  0.8763269E-01
          1   -1    0    0  501    0  0.00000000000E+00  0.00000000000E+00  0.22432906740E+04  0.22432906740E+04  0.00000000000E+00 0. -1.
         -1   -1    0    0    0  501 -0.00000000000E+00 -0.00000000000E+00 -0.32080900196E+03  0.32080900196E+03  0.00000000000E+00 0.  1.
         23    2    1    2    0    0  0.46141140690E+03  0.37285142036E+03  0.88781690684E+03  0.10717125572E+04  0.91816540212E+02 0.  0.
        254    2    1    2    0    0 -0.46141140690E+03 -0.37285142036E+03  0.10346647652E+04  0.14923871188E+04  0.89708944251E+03 0.  0.
        -24    2    4    4    0    0 -0.21920954006E+03  0.13304009060E+03  0.85802411625E+03  0.89909067250E+03  0.80038523000E+02 0.  0.
         24    2    4    4    0    0 -0.24220186684E+03 -0.50589151096E+03  0.17664064896E+03  0.59329644627E+03  0.78808560021E+02 0.  0.
         13    1    3    3    0    0  0.45488258328E+03  0.34700237126E+03  0.86208813228E+03  0.10346616636E+04  0.00000000000E+00 0.  1.
        -13    1    3    3    0    0  0.65288236239E+01  0.25849049099E+02  0.25728774564E+02  0.37050893616E+02  0.00000000000E+00 0. -1.
          2    1    6    6  502    0 -0.12722917577E+02 -0.56151012718E+01  0.13127928331E+02  0.19124447606E+02  0.00000000000E+00 0. -1.
          1    1    5    5  503    0 -0.67900018659E+02  0.87157941773E+02  0.34684219414E+03  0.36401432250E+03  0.00000000000E+00 0. -1.
         -2    1    5    5    0  503 -0.15130952140E+03  0.45882148826E+02  0.51118192211E+03  0.53507635001E+03  0.00000000000E+00 0.  1.
         -1    1    6    6    0  502 -0.22947894927E+03 -0.50027640969E+03  0.16351272062E+03  0.57417199867E+03  0.00000000000E+00 0.  1.
<mgrwt>
<rscale>  0 0.16966648E+04</rscale>
<asrwt>0</asrwt>
<pdfrwt beam="1">  1        1 0.34512163E+00 0.16966648E+04</pdfrwt>
<pdfrwt beam="2">  1       -1 0.49355233E-01 0.16966648E+04</pdfrwt>
<totfact> 0.79764918E+00</totfact>
</mgrwt>
</event>
<event>
12    1  0.1472088E-007  0.1653191E+04  0.7818608E-02  0.8788521E-01
          1   -1    0    0  501    0  0.00000000000E+00  0.00000000000E+00  0.87973383388E+03  0.87973383388E+03  0.00000000000E+00 0. -1.
         -1   -1    0    0    0  501 -0.00000000000E+00 -0.00000000000E+00 -0.77666717978E+03  0.77666717978E+03  0.00000000000E+00 0.  1.
         23    2    1    2    0    0  0.53161868148E+03 -0.38693804835E+02  0.24734871191E+03  0.59591891678E+03  0.99107704335E+02 0.  0.
        254    2    1    2    0    0 -0.53161868148E+03  0.38693804835E+02 -0.14428205782E+03  0.10604820969E+04  0.90536696018E+03 0.  0.
        -24    2    4    4    0    0 -0.55009311264E+02  0.41766670294E+03 -0.11967550853E+03  0.44575199183E+03  0.83072930691E+02 0.  0.
         24    2    4    4    0    0 -0.47660937021E+03 -0.37897289810E+03 -0.24606549284E+02  0.61473010505E+03  0.80688726077E+02 0.  0.
         13    1    3    3    0    0  0.32685124407E+03 -0.47733151113E+02  0.10588656246E+03  0.34687483849E+03  0.00000000000E+00 0.  1.
        -13    1    3    3    0    0  0.20476743741E+03  0.90393462781E+01  0.14146214945E+03  0.24904407829E+03  0.00000000000E+00 0. -1.
          4    1    6    6  502    0 -0.30147450058E+03 -0.20525861034E+03  0.14343776254E+02  0.36499824046E+03  0.00000000000E+00 0. -1.
          1    1    5    5  503    0 -0.12826142914E+02  0.19541665823E+03 -0.96583074830E+02  0.21835858261E+03  0.00000000000E+00 0. -1.
         -2    1    5    5    0  503 -0.42183168351E+02  0.22225004471E+03 -0.23092433704E+02  0.22739340923E+03  0.00000000000E+00 0.  1.
         -3    1    6    6    0  502 -0.17513486963E+03 -0.17371428776E+03 -0.38950325538E+02  0.24973186459E+03  0.00000000000E+00 0.  1.
<mgrwt>
<rscale>  0 0.16531913E+04</rscale>
<asrwt>0</asrwt>
<pdfrwt beam="1">  1        1 0.13534367E+00 0.16531913E+04</pdfrwt>
<pdfrwt beam="2">  1       -1 0.11948726E+00 0.16531913E+04</pdfrwt>
<totfact> 0.11305567E+01</totfact>
</mgrwt>
</event>
<event>
12    1  0.1472088E-007  0.3327985E+04  0.7818608E-02  0.8155811E-01
          2   -1    0    0  501    0  0.00000000000E+00  0.00000000000E+00  0.71743381991E+03  0.71743381991E+03  0.00000000000E+00 0. -1.
         -2   -1    0    0    0  501 -0.00000000000E+00 -0.00000000000E+00 -0.38594090687E+04  0.38594090687E+04  0.00000000000E+00 0.  1.
         23    2    1    2    0    0  0.87341799815E+03 -0.63700400118E+03  0.51422323238E+02  0.10863255430E+04  0.93945905205E+02 0.  0.
        254    2    1    2    0    0 -0.87341799815E+03  0.63700400118E+03 -0.31933975720E+04  0.34905173456E+04  0.90404103325E+03 0.  0.
        -24    2    4    4    0    0 -0.86427892381E+03  0.78401191218E+03 -0.30642223623E+04  0.32798410833E+04  0.79032335790E+02 0.  0.
         24    2    4    4    0    0 -0.91390743362E+01 -0.14700791100E+03 -0.12917520979E+03  0.21067626225E+03  0.77481637037E+02 0.  0.
         13    1    3    3    0    0  0.12920797215E+03 -0.10321268995E+03 -0.25181390292E+02  0.16727720063E+03  0.00000000000E+00 0.  1.
        -13    1    3    3    0    0  0.74421002600E+03 -0.53379131123E+03  0.76603713530E+02  0.91904834240E+03  0.00000000000E+00 0. -1.
          4    1    6    6  502    0 -0.95623006545E+01 -0.14292001502E+03 -0.85517807295E+02  0.16682584827E+03  0.00000000000E+00 0. -1.
          3    1    5    5  503    0 -0.77905857179E+03  0.72595548383E+03 -0.28388759798E+04  0.30320225018E+04  0.00000000000E+00 0. -1.
         -4    1    5    5    0  503 -0.85220352023E+02  0.58056428348E+02 -0.22534638242E+03  0.24781858151E+03  0.00000000000E+00 0.  1.
         -3    1    6    6    0  502  0.42322631827E+00 -0.40878959784E+01 -0.43657402493E+02  0.43850413983E+02  0.00000000000E+00 0.  1.
<mgrwt>
<rscale>  0 0.33279847E+04</rscale>
<asrwt>0</asrwt>
<pdfrwt beam="1">  1        2 0.11037444E+00 0.33279847E+04</pdfrwt>
<pdfrwt beam="2">  1       -2 0.59375523E+00 0.33279847E+04</pdfrwt>
<totfact> 0.17638200E-02</totfact>
</mgrwt>
</event>
<event>
12    1  0.1472088E-007  0.1369105E+04  0.7818608E-02  0.8976491E-01
         -2   -1    0    0    0  501 -0.00000000000E+00  0.00000000000E+00  0.28225582924E+03  0.28225582924E+03  0.00000000000E+00 0.  1.
          2   -1    0    0  501    0  0.00000000000E+00 -0.00000000000E+00 -0.16602381526E+04  0.16602381526E+04  0.00000000000E+00 0. -1.
         23    2    1    2    0    0  0.27224337582E+03 -0.25679236727E+03 -0.49043546238E+03  0.62365165268E+03  0.91409329729E+02 0.  0.
        254    2    1    2    0    0 -0.27224337582E+03  0.25679236727E+03 -0.88754686096E+03  0.13188423291E+04  0.90085896963E+03 0.  0.
        -24    2    4    4    0    0 -0.17301862762E+03  0.46007248147E+02  0.15355833372E+03  0.24897629559E+03  0.79730304929E+02 0.  0.
         24    2    4    4    0    0 -0.99224748205E+02  0.21078511912E+03 -0.10411051947E+04  0.10698660336E+04  0.80233323867E+02 0.  0.
         11    1    3    3    0    0  0.13417142274E+02 -0.47432989945E+02 -0.92638261151E+02  0.10493691281E+03  0.00000000000E+00 0. -1.
        -11    1    3    3    0    0  0.25882623355E+03 -0.20935937732E+03 -0.39779720123E+03  0.51871473986E+03  0.00000000000E+00 0.  1.
          4    1    6    6  502    0 -0.71066420049E+02  0.66652117252E+02 -0.48548339409E+03  0.49516367670E+03  0.00000000000E+00 0. -1.
          1    1    5    5  503    0 -0.10194647904E+03  0.61464592964E+02  0.11945967980E+03  0.16864636336E+03  0.00000000000E+00 0. -1.
         -2    1    5    5    0  503 -0.71072148575E+02 -0.15457344817E+02  0.34098653920E+02  0.80329932223E+02  0.00000000000E+00 0.  1.
         -3    1    6    6    0  502 -0.28158328157E+02  0.14413300187E+03 -0.55562180059E+03  0.57470235685E+03  0.00000000000E+00 0.  1.
<mgrwt>
<rscale>  0 0.13691047E+04</rscale>
<asrwt>0</asrwt>
<pdfrwt beam="1">  1        2 0.25542126E+00 0.13691047E+04</pdfrwt>
<pdfrwt beam="2">  1       -2 0.43423973E-01 0.13691047E+04</pdfrwt>
<totfact> 0.50613633E+01</totfact>
</mgrwt>
</event>
<event>
12    1  0.1472088E-007  0.1178786E+04  0.7818608E-02  0.9131630E-01
         -2   -1    0    0    0  501 -0.00000000000E+00  0.00000000000E+00  0.16230842973E+03  0.16230842973E+03  0.00000000000E+00 0.  1.
          2   -1    0    0  501    0  0.00000000000E+00 -0.00000000000E+00 -0.21402730342E+04  0.21402730342E+04  0.00000000000E+00 0. -1.
         23    2    1    2    0    0 -0.85069546999E+01 -0.11696931540E+03 -0.30254263879E+02  0.15433370360E+03  0.95652404891E+02 0.  0.
        254    2    1    2    0    0  0.85069546999E+01  0.11696931540E+03 -0.19477103406E+04  0.21482477603E+04  0.89868719801E+03 0.  0.
        -24    2    4    4    0    0  0.34753249723E+03 -0.75436443441E+02 -0.36318510631E+03  0.51449965429E+03  0.79605145482E+02 0.  0.
         24    2    4    4    0    0 -0.33902554253E+03  0.19240575884E+03 -0.15845252343E+04  0.16337481060E+04  0.80339040115E+02 0.  0.
         13    1    3    3    0    0  0.14511076469E+02 -0.32854158549E+02 -0.53171327484E+02  0.64165077267E+02  0.00000000000E+00 0. -1.
        -13    1    3    3    0    0 -0.23018031169E+02 -0.84115156849E+02  0.22917063606E+02  0.90168626334E+02  0.00000000000E+00 0.  1.
          2    1    6    6  502    0 -0.27179944253E+03  0.13318773856E+03 -0.13271020274E+04  0.13611809952E+04  0.00000000000E+00 0. -1.
          3    1    5    5  503    0  0.10012552575E+03 -0.70263250348E+01 -0.58794398162E+02  0.11632399325E+03  0.00000000000E+00 0. -1.
         -4    1    5    5    0  503  0.24740697148E+03 -0.68410118406E+02 -0.30439070814E+03  0.39817566104E+03  0.00000000000E+00 0.  1.
         -1    1    6    6    0  502 -0.67226100007E+02  0.59218020276E+02 -0.25742320690E+03  0.27256711082E+03  0.00000000000E+00 0.  1.
<mgrwt>
<rscale>  0 0.11787864E+04</rscale>
<asrwt>0</asrwt>
<pdfrwt beam="1">  1        2 0.32927277E+00 0.11787864E+04</pdfrwt>
<pdfrwt beam="2">  1       -2 0.24970528E-01 0.11787864E+04</pdfrwt>
<totfact> 0.79458228E+01</totfact>
</mgrwt>
</event>
<event>
12    1  0.1472088E-007  0.1405073E+04  0.7818608E-02  0.8950154E-01
         -2   -1    0    0    0  501 -0.00000000000E+00  0.00000000000E+00  0.38731167482E+03  0.38731167482E+03  0.00000000000E+00 0.  1.
          2   -1    0    0  501    0  0.00000000000E+00 -0.00000000000E+00 -0.12743167697E+04  0.12743167697E+04  0.00000000000E+00 0. -1.
         23    2    1    2    0    0 -0.91032568973E+02 -0.33409729406E+03 -0.51464522775E+03  0.62693705082E+03  0.91007827903E+02 0.  0.
        254    2    1    2    0    0  0.91032568973E+02  0.33409729406E+03 -0.37235986716E+03  0.10346913937E+04  0.90112511843E+03 0.  0.
        -24    2    4    4    0    0 -0.20089486724E+02 -0.28281676613E+03 -0.25982468300E+03  0.39265697199E+03  0.79257309271E+02 0.  0.
         24    2    4    4    0    0  0.11112205570E+03  0.61691406019E+03 -0.11253518415E+03  0.64203442174E+03  0.81320121115E+02 0.  0.
         13    1    3    3    0    0 -0.61806970238E+02 -0.26139459668E+03 -0.32427759478E+03  0.42107385958E+03  0.00000000000E+00 0. -1.
        -13    1    3    3    0    0 -0.29225598735E+02 -0.72702697378E+02 -0.19036763297E+03  0.20586319124E+03  0.00000000000E+00 0.  1.
          2    1    6    6  502    0 -0.48970135202E+01  0.26985643829E+02  0.85614671075E+01  0.28731592948E+02  0.00000000000E+00 0. -1.
          3    1    5    5  503    0 -0.15752456829E+01 -0.62335937462E+02 -0.10668880983E+03  0.12357488677E+03  0.00000000000E+00 0. -1.
         -4    1    5    5    0  503 -0.18514241041E+02 -0.22048082867E+03 -0.15313587318E+03  0.26908208522E+03  0.00000000000E+00 0.  1.
         -1    1    6    6    0  502  0.11601906922E+03  0.58992841636E+03 -0.12109665126E+03  0.61330282879E+03  0.00000000000E+00 0.  1.
<mgrwt>
<rscale>  0 0.14050733E+04</rscale>
<asrwt>0</asrwt>
<pdfrwt beam="1">  1        2 0.19604874E+00 0.14050733E+04</pdfrwt>
<pdfrwt beam="2">  1       -2 0.59586411E-01 0.14050733E+04</pdfrwt>
<totfact> 0.43758384E+01</totfact>
</mgrwt>
</event>
<event>
12    1  0.1472088E-007  0.3075037E+04  0.7818608E-02  0.8222622E-01
         -1   -1    0    0    0  501 -0.00000000000E+00  0.00000000000E+00  0.78677515764E+03  0.78677515764E+03  0.00000000000E+00 0.  1.
          1   -1    0    0  501    0  0.00000000000E+00 -0.00000000000E+00 -0.30046240088E+04  0.30046240088E+04  0.00000000000E+00 0. -1.
         23    2    1    2    0    0 -0.11338260548E+03 -0.53190441298E+03  0.57826567135E+03  0.79758738913E+03  0.77308064680E+02 0.  0.
        254    2    1    2    0    0  0.11338260548E+03  0.53190441298E+03 -0.27961145225E+04  0.29938117773E+04  0.92134391798E+03 0.  0.
        -24    2    4    4    0    0 -0.12778216578E+02  0.75755561778E+03 -0.16607963328E+04  0.18272050597E+04  0.79875367165E+02 0.  0.
         24    2    4    4    0    0  0.12616082206E+03 -0.22565120480E+03 -0.11353181897E+04  0.11666067176E+04  0.72033481474E+02 0.  0.
         11    1    3    3    0    0 -0.30573953633E+02 -0.39488250271E+02  0.55729177917E+02  0.74832010674E+02  0.00000000000E+00 0. -1.
        -11    1    3    3    0    0 -0.82808651845E+02 -0.49241616271E+03  0.52253649343E+03  0.72275537846E+03  0.00000000000E+00 0.  1.
          2    1    6    6  502    0  0.16785669010E+02 -0.68538581042E+02 -0.20524002780E+03  0.21703171378E+03  0.00000000000E+00 0. -1.
          1    1    5    5  503    0 -0.63226922775E+01  0.65745703259E+02 -0.98722219040E+02  0.11877941937E+03  0.00000000000E+00 0. -1.
         -2    1    5    5    0  503 -0.64555243009E+01  0.69180991452E+03 -0.15620741137E+04  0.17084256403E+04  0.00000000000E+00 0.  1.
         -1    1    6    6    0  502  0.10937515305E+03 -0.15711262375E+03 -0.93007816192E+03  0.94957500384E+03  0.00000000000E+00 0.  1.
<mgrwt>
<rscale>  0 0.30750373E+04</rscale>
<asrwt>0</asrwt>
<pdfrwt beam="1">  1        1 0.46224984E+00 0.30750373E+04</pdfrwt>
<pdfrwt beam="2">  1       -1 0.12104233E+00 0.30750373E+04</pdfrwt>
<totfact> 0.30372693E-01</totfact>
</mgrwt>
</event>
<event>
12    1  0.1472088E-007  0.2346313E+04  0.7818608E-02  0.8459881E-01
          1   -1    0    0  501    0  0.00000000000E+00  0.00000000000E+00  0.16897642131E+04  0.16897642131E+04  0.00000000000E+00 0. -1.
         -1   -1    0    0    0  501 -0.00000000000E+00 -0.00000000000E+00 -0.81449030702E+03  0.81449030702E+03  0.00000000000E+00 0.  1.
         23    2    1    2    0    0 -0.26116630057E+03 -0.44960767935E+02  0.13993318305E+04  0.14271035800E+04  0.90916163625E+02 0.  0.
        254    2    1    2    0    0  0.26116630057E+03  0.44960767935E+02 -0.52405792446E+03  0.10771509402E+04  0.90298844537E+03 0.  0.
        -24    2    4    4    0    0 -0.22525905709E+03  0.45686955664E+02  0.11579688537E+03  0.26938866339E+03  0.79576331779E+02 0.  0.
         24    2    4    4    0    0  0.48642535767E+03 -0.72618772847E+00 -0.63985480983E+03  0.80776227676E+03  0.80346513140E+02 0.  0.
         13    1    3    3    0    0 -0.24741853934E+03 -0.58601555364E+02  0.13561165230E+04  0.13797471145E+04  0.00000000000E+00 0. -1.
        -13    1    3    3    0    0 -0.13747761234E+02  0.13640787429E+02  0.43215307544E+02  0.47356465522E+02  0.00000000000E+00 0.  1.
          4    1    6    6  502    0  0.92493067208E+02  0.22494104561E+02 -0.16345526735E+03  0.18915225784E+03  0.00000000000E+00 0. -1.
          3    1    5    5  503    0 -0.12194538187E+03 -0.13683082428E+02  0.72976651223E+02  0.14277077617E+03  0.00000000000E+00 0. -1.
         -4    1    5    5    0  503 -0.10331367522E+03  0.59370038091E+02  0.42820234149E+02  0.12661788722E+03  0.00000000000E+00 0.  1.
         -3    1    6    6    0  502  0.39393229046E+03 -0.23220292289E+02 -0.47639954248E+03  0.61861001892E+03  0.00000000000E+00 0.  1.
<mgrwt>
<rscale>  0 0.23463133E+04</rscale>
<asrwt>0</asrwt>
<pdfrwt beam="1">  1        1 0.25996373E+00 0.23463133E+04</pdfrwt>
<pdfrwt beam="2">  1       -1 0.12530620E+00 0.23463133E+04</pdfrwt>
<totfact> 0.24252145E+00</totfact>
</mgrwt>
</event>
<event>
12    1  0.1472088E-007  0.2290424E+04  0.7818608E-02  0.8481706E-01
         -2   -1    0    0    0  501 -0.00000000000E+00  0.00000000000E+00  0.33800351209E+03  0.33800351209E+03  0.00000000000E+00 0. -1.
          2   -1    0    0  501    0  0.00000000000E+00 -0.00000000000E+00 -0.38801695039E+04  0.38801695039E+04  0.00000000000E+00 0.  1.
         23    2    1    2    0    0  0.42582650593E+02  0.24005325465E+02  0.27586022913E+03  0.29438392162E+03  0.90407353188E+02 0.  0.
        254    2    1    2    0    0 -0.42582650593E+02 -0.24005325465E+02 -0.38180262210E+04  0.39237890944E+04  0.90355248629E+03 0.  0.
        -24    2    4    4    0    0  0.11829584771E+03  0.19725556871E+03 -0.26921251435E+03  0.36353838465E+03  0.82347509135E+02 0.  0.
         24    2    4    4    0    0 -0.16087849831E+03 -0.22126089417E+03 -0.35488137066E+04  0.35602507097E+04  0.80424606974E+02 0.  0.
         11    1    3    3    0    0  0.63727287024E+02  0.12019823874E+02  0.25241873753E+03  0.26061631249E+03  0.00000000000E+00 0. -1.
        -11    1    3    3    0    0 -0.21144636431E+02  0.11985501591E+02  0.23441491600E+02  0.33767609134E+02  0.00000000000E+00 0.  1.
          4    1    6    6  502    0 -0.13128182005E+02 -0.63064809853E+02 -0.58295576545E+03  0.58650400159E+03  0.00000000000E+00 0. -1.
          1    1    5    5  503    0  0.82178449316E+02  0.58734429753E+02 -0.11751184729E+03  0.15495826865E+03  0.00000000000E+00 0. -1.
         -2    1    5    5    0  503  0.36117398398E+02  0.13852113895E+03 -0.15170066706E+03  0.20858011600E+03  0.00000000000E+00 0.  1.
         -3    1    6    6    0  502 -0.14775031630E+03 -0.15819608432E+03 -0.29658579412E+04  0.29737467082E+04  0.00000000000E+00 0.  1.
<mgrwt>
<rscale>  0 0.22904243E+04</rscale>
<asrwt>0</asrwt>
<pdfrwt beam="1">  1        2 0.59694917E+00 0.22904243E+04</pdfrwt>
<pdfrwt beam="2">  1       -2 0.52000539E-01 0.22904243E+04</pdfrwt>
<totfact> 0.13565188E+00</totfact>
</mgrwt>
</event>
<event>
12    1  0.1472088E-007  0.3673799E+04  0.7818608E-02  0.8073793E-01
         -2   -1    0    0    0  501 -0.00000000000E+00  0.00000000000E+00  0.10700695885E+04  0.10700695885E+04  0.00000000000E+00 0.  1.
          2   -1    0    0  501    0  0.00000000000E+00 -0.00000000000E+00 -0.31532522923E+04  0.31532522923E+04  0.00000000000E+00 0. -1.
         23    2    1    2    0    0 -0.50481863465E+03 -0.74631337802E+03 -0.26711746553E+04  0.28205059564E+04  0.90853173928E+02 0.  0.
        254    2    1    2    0    0  0.50481863465E+03  0.74631337802E+03  0.58799195149E+03  0.14028159243E+04  0.90018468685E+03 0.  0.
        -24    2    4    4    0    0  0.71694746105E+03  0.32735950427E+03  0.30649913966E+03  0.84944319458E+03  0.80212912075E+02 0.  0.
         24    2    4    4    0    0 -0.21212882640E+03  0.41895387376E+03  0.28149281183E+03  0.55337272975E+03  0.80387732874E+02 0.  0.
         13    1    3    3    0    0 -0.71012791697E+02 -0.14732480021E+03 -0.56847458291E+03  0.59153255596E+03  0.00000000000E+00 0.  1.
        -13    1    3    3    0    0 -0.43380584295E+03 -0.59898857782E+03 -0.21027000724E+04  0.22289734005E+04  0.00000000000E+00 0. -1.
          4    1    6    6  502    0 -0.87774973329E+02  0.25270317136E+03  0.17866702775E+03  0.32169122706E+03  0.00000000000E+00 0. -1.
          3    1    5    5  503    0  0.14751198753E+02  0.17885983448E+02  0.19040387083E+02  0.30000710139E+02  0.00000000000E+00 0. -1.
         -4    1    5    5    0  503  0.70219626230E+03  0.30947352082E+03  0.28745875257E+03  0.81944248444E+03  0.00000000000E+00 0.  1.
         -1    1    6    6    0  502 -0.12435385307E+03  0.16625070239E+03  0.10282578408E+03  0.23168150270E+03  0.00000000000E+00 0.  1.
<mgrwt>
<rscale>  0 0.36737988E+04</rscale>
<asrwt>0</asrwt>
<pdfrwt beam="1">  1        2 0.48511573E+00 0.36737988E+04</pdfrwt>
<pdfrwt beam="2">  1       -2 0.16462609E+00 0.36737988E+04</pdfrwt>
<totfact> 0.26222999E-01</totfact>
</mgrwt>
</event>
<event>
12    1  0.1472088E-007  0.1341616E+04  0.7818608E-02  0.8997199E-01
          2   -1    0    0  501    0  0.00000000000E+00  0.00000000000E+00  0.33784510146E+04  0.33784510146E+04  0.00000000000E+00 0. -1.
         -2   -1    0    0    0  501 -0.00000000000E+00 -0.00000000000E+00 -0.13319220542E+03  0.13319220542E+03  0.00000000000E+00 0.  1.
         23    2    1    2    0    0  0.23958820792E+03 -0.24138732834E+03  0.60561402981E+03  0.70101634598E+03  0.94790361179E+02 0.  0.
        254    2    1    2    0    0 -0.23958820792E+03  0.24138732834E+03  0.26396447794E+04  0.28106268740E+04  0.90345365799E+03 0.  0.
        -24    2    4    4    0    0  0.32162097058E+02  0.31369179022E+02 -0.44586472026E+02  0.10336040302E+03  0.81712872579E+02 0.  0.
         24    2    4    4    0    0 -0.27175030498E+03  0.21001814932E+03  0.26842312514E+04  0.27072664710E+04  0.78984066817E+02 0.  0.
         11    1    3    3    0    0  0.76893727083E+02 -0.24755363967E+02  0.11443339989E+03  0.14007311063E+03  0.00000000000E+00 0.  1.
        -11    1    3    3    0    0  0.16269448084E+03 -0.21663196438E+03  0.49118062992E+03  0.56094323536E+03  0.00000000000E+00 0. -1.
          4    1    6    6  502    0 -0.13022006214E+03  0.66204399649E+02  0.91857918124E+03  0.93012257220E+03  0.00000000000E+00 0. -1.
          3    1    5    5  503    0  0.10210766036E+02  0.51606956983E+02 -0.37058716747E+01  0.52737759120E+02  0.00000000000E+00 0. -1.
         -4    1    5    5    0  503  0.21951331022E+02 -0.20237777961E+02 -0.40880600351E+02  0.50622643901E+02  0.00000000000E+00 0.  1.
         -3    1    6    6    0  502 -0.14153024284E+03  0.14381374967E+03  0.17656520702E+04  0.17771438988E+04  0.00000000000E+00 0.  1.
<mgrwt>
<rscale>  0 0.13416160E+04</rscale>
<asrwt>0</asrwt>
<pdfrwt beam="1">  1        2 0.51976163E+00 0.13416160E+04</pdfrwt>
<pdfrwt beam="2">  1       -2 0.20491111E-01 0.13416160E+04</pdfrwt>
<totfact> 0.20076290E+01</totfact>
</mgrwt>
</event>
<event>
12    1  0.1472088E-007  0.1516024E+04  0.7818608E-02  0.8873866E-01
         -3   -1    0    0    0  501 -0.00000000000E+00  0.00000000000E+00  0.11910280337E+04  0.11910280337E+04  0.00000000000E+00 0.  1.
          3   -1    0    0  501    0  0.00000000000E+00 -0.00000000000E+00 -0.48242553292E+03  0.48242553292E+03  0.00000000000E+00 0. -1.
         23    2    1    2    0    0 -0.13594170254E+03 -0.17320692366E+03  0.72471506865E+03  0.76285926031E+03  0.90892988824E+02 0.  0.
        254    2    1    2    0    0  0.13594170254E+03  0.17320692366E+03 -0.16112567909E+02  0.91059430627E+03  0.88342605286E+03 0.  0.
        -24    2    4    4    0    0  0.37309207257E+03  0.25054456300E+03 -0.28268617750E+03  0.53674145756E+03  0.78801298591E+02 0.  0.
         24    2    4    4    0    0 -0.23715037003E+03 -0.77337639339E+02  0.26657360959E+03  0.37385284870E+03  0.80517418562E+02 0.  0.
         13    1    3    3    0    0 -0.10325337964E+03 -0.83889876777E+02  0.52588675459E+03  0.54245336250E+03  0.00000000000E+00 0.  1.
        -13    1    3    3    0    0 -0.32688322903E+02 -0.89317046881E+02  0.19882831406E+03  0.22040589781E+03  0.00000000000E+00 0. -1.
          2    1    6    6  502    0 -0.69924825540E+02  0.14289351717E+02  0.76271755093E+02  0.10445595926E+03  0.00000000000E+00 0. -1.
          1    1    5    5  503    0  0.62299067251E+02  0.14637615269E+02 -0.58684114536E+02  0.86828905670E+02  0.00000000000E+00 0. -1.
         -2    1    5    5    0  503  0.31079300532E+03  0.23590694773E+03 -0.22400206296E+03  0.44991255189E+03  0.00000000000E+00 0.  1.
         -1    1    6    6    0  502 -0.16722554449E+03 -0.91626991056E+02  0.19030185449E+03  0.26939688945E+03  0.00000000000E+00 0.  1.
<mgrwt>
<rscale>  0 0.15160242E+04</rscale>
<asrwt>0</asrwt>
<pdfrwt beam="1">  1        3 0.74219313E-01 0.15160242E+04</pdfrwt>
<pdfrwt beam="2">  1       -3 0.18323508E+00 0.15160242E+04</pdfrwt>
<totfact> 0.81649924E-01</totfact>
</mgrwt>
</event>
<event>
12    1  0.1472088E-007  0.1714133E+04  0.7818608E-02  0.8753345E-01
          2   -1    0    0  501    0  0.00000000000E+00  0.00000000000E+00  0.19612163329E+04  0.19612163329E+04  0.00000000000E+00 0.  1.
         -2   -1    0    0    0  501 -0.00000000000E+00 -0.00000000000E+00 -0.37454449019E+03  0.37454449019E+03  0.00000000000E+00 0. -1.
         23    2    1    2    0    0  0.43064920235E+03  0.38194324689E+03  0.87393813084E+03  0.10504372743E+04  0.91165955090E+02 0.  0.
        254    2    1    2    0    0 -0.43064920235E+03 -0.38194324689E+03  0.71273371191E+03  0.12853235488E+04  0.90151422716E+03 0.  0.
        -24    2    4    4    0    0 -0.65928650330E+03 -0.15096393147E+03  0.27672246856E+03  0.73543363340E+03  0.82695238626E+02 0.  0.
         24    2    4    4    0    0  0.22863730095E+03 -0.23097931542E+03  0.43601124336E+03  0.54988991544E+03  0.81527021522E+02 0.  0.
         13    1    3    3    0    0  0.41494405252E+03  0.38154185381E+03  0.86470444555E+03  0.10322143823E+04  0.00000000000E+00 0.  1.
        -13    1    3    3    0    0  0.15705149834E+02  0.40139307914E+00  0.92336852877E+01  0.18222891969E+02  0.00000000000E+00 0. -1.
          4    1    6    6  502    0  0.11415595519E+03 -0.12641973899E+03  0.16207690132E+03  0.23512221174E+03  0.00000000000E+00 0. -1.
          3    1    5    5  503    0 -0.15591017393E+03 -0.44838904583E+02  0.10430292008E+03  0.19286681631E+03  0.00000000000E+00 0. -1.
         -4    1    5    5    0  503 -0.50337632937E+03 -0.10612502689E+03  0.17241954848E+03  0.54256681708E+03  0.00000000000E+00 0.  1.
         -3    1    6    6    0  502  0.11448134576E+03 -0.10455957643E+03  0.27393434204E+03  0.31476770371E+03  0.00000000000E+00 0.  1.
<mgrwt>
<rscale>  0 0.17141328E+04</rscale>
<asrwt>0</asrwt>
<pdfrwt beam="1">  1        2 0.30172558E+00 0.17141328E+04</pdfrwt>
<pdfrwt beam="2">  1       -2 0.57622230E-01 0.17141328E+04</pdfrwt>
<totfact> 0.18824136E+01</totfact>
</mgrwt>
</event>
<event>
12    1  0.1565557E-007  0.1921929E+04  0.7818608E-02  0.8644017E-01
         -1   -1    0    0    0  501 -0.00000000000E+00  0.00000000000E+00  0.11895613517E+04  0.11895613517E+04  0.00000000000E+00 0.  1.
          1   -1    0    0  501    0  0.00000000000E+00 -0.00000000000E+00 -0.77629655516E+03  0.77629655516E+03  0.00000000000E+00 0. -1.
         23    2    1    2    0    0 -0.22049026615E+03 -0.60125488902E+03  0.55500826198E+03  0.85228994200E+03  0.90777614682E+02 0.  0.
        254    2    1    2    0    0  0.22049026615E+03  0.60125488902E+03 -0.14174346542E+03  0.11135679649E+04  0.89989944069E+03 0.  0.
        -24    2    4    4    0    0  0.48685412507E+03  0.12729437338E+03  0.89435570598E+02  0.51719142865E+03  0.79104083281E+02 0.  0.
         24    2    4    4    0    0 -0.26636385892E+03  0.47396051564E+03 -0.23117903602E+03  0.59637653622E+03  0.81442928079E+02 0.  0.
         13    1    3    3    0    0 -0.22896174400E+03 -0.58838457323E+03  0.54032705545E+03  0.83100734839E+03  0.00000000000E+00 0.  1.
        -13    1    3    3    0    0  0.84714778475E+01 -0.12870315794E+02  0.14681206531E+02  0.21282593610E+02  0.00000000000E+00 0. -1.
          4    1    6    6  502    0  0.56574251290E+01  0.17341917909E+02 -0.79185141863E+01  0.19885960947E+02  0.00000000000E+00 0. -1.
          3    1    5    5  503    0  0.20537946878E+02  0.14237387804E+02  0.20735412793E+02  0.32472570227E+02  0.00000000000E+00 0. -1.
         -4    1    5    5    0  503  0.46631617819E+03  0.11305698558E+03  0.68700157805E+02  0.48471885843E+03  0.00000000000E+00 0.  1.
         -3    1    6    6    0  502 -0.27202128405E+03  0.45661859773E+03 -0.22326052183E+03  0.57649057527E+03  0.00000000000E+00 0.  1.
<mgrwt>
<rscale>  0 0.19219286E+04</rscale>
<asrwt>0</asrwt>
<pdfrwt beam="1">  1        1 0.11943024E+00 0.19219286E+04</pdfrwt>
<pdfrwt beam="2">  1       -1 0.18300944E+00 0.19219286E+04</pdfrwt>
<totfact> 0.42898725E+00</totfact>
</mgrwt>
</event>
<event>
12    1  0.1472088E-007  0.2192677E+04  0.7818608E-02  0.8521482E-01
          2   -1    0    0  501    0  0.00000000000E+00  0.00000000000E+00  0.31473087879E+04  0.31473087879E+04  0.00000000000E+00 0. -1.
         -2   -1    0    0    0  501 -0.00000000000E+00 -0.00000000000E+00 -0.38190014214E+03  0.38190014214E+03  0.00000000000E+00 0.  1.
         23    2    1    2    0    0  0.31886493583E+03  0.40728720919E+03  0.23555270608E+04  0.24134980407E+04  0.94378706111E+02 0.  0.
        254    2    1    2    0    0 -0.31886493583E+03 -0.40728720919E+03  0.40988158495E+03  0.11157108893E+04  0.89958332401E+03 0.  0.
        -24    2    4    4    0    0 -0.21999315576E+03 -0.27772009069E+03  0.69065167831E+03  0.78023691746E+03  0.79021954270E+02 0.  0.
         24    2    4    4    0    0 -0.98871780071E+02 -0.12956711850E+03 -0.28077009336E+03  0.33547397188E+03  0.84543914011E+02 0.  0.
         13    1    3    3    0    0  0.21549453025E+03  0.22436698978E+03  0.15582855021E+04  0.15890349728E+04  0.00000000000E+00 0. -1.
        -13    1    3    3    0    0  0.10337040558E+03  0.18292021942E+03  0.79724155867E+03  0.82446306788E+03  0.00000000000E+00 0.  1.
          4    1    6    6  502    0 -0.97205951453E+02 -0.60452130548E+02 -0.17503698412E+03  0.20914445461E+03  0.00000000000E+00 0. -1.
          1    1    5    5  503    0 -0.99623101756E+02 -0.16979137803E+03  0.43913588137E+03  0.48124234722E+03  0.00000000000E+00 0. -1.
         -2    1    5    5    0  503 -0.12037005401E+03 -0.10792871267E+03  0.25151579694E+03  0.29899457024E+03  0.00000000000E+00 0.  1.
         -3    1    6    6    0  502 -0.16658286175E+01 -0.69114987951E+02 -0.10573310924E+03  0.12632951727E+03  0.00000000000E+00 0.  1.
<mgrwt>
<rscale>  0 0.21926766E+04</rscale>
<asrwt>0</asrwt>
<pdfrwt beam="1">  1        2 0.48420133E+00 0.21926766E+04</pdfrwt>
<pdfrwt beam="2">  1       -2 0.58753870E-01 0.21926766E+04</pdfrwt>
<totfact> 0.34805701E+00</totfact>
</mgrwt>
</event>
<event>
12    1  0.1472088E-007  0.1306296E+04  0.7818608E-02  0.9024587E-01
         -2   -1    0    0    0  501 -0.00000000000E+00  0.00000000000E+00  0.92601462379E+03  0.92601462379E+03  0.00000000000E+00 0.  1.
          2   -1    0    0  501    0  0.00000000000E+00 -0.00000000000E+00 -0.46068649351E+03  0.46068649351E+03  0.00000000000E+00 0. -1.
         23    2    1    2    0    0 -0.32817509683E+03 -0.13042618962E+03  0.17446761911E+03  0.40431867207E+03  0.91240086299E+02 0.  0.
        254    2    1    2    0    0  0.32817509683E+03  0.13042618962E+03  0.29086051116E+03  0.98238244523E+03  0.86934777082E+03 0.  0.
        -24    2    4    4    0    0 -0.13774088892E+03  0.27546456791E+03 -0.11992270409E+03  0.33981032171E+03  0.78970368704E+02 0.  0.
         24    2    4    4    0    0  0.46591598575E+03 -0.14503837829E+03  0.41078321525E+03  0.64257212352E+03  0.77731892093E+02 0.  0.
         13    1    3    3    0    0 -0.25925137799E+03 -0.95211857264E+02  0.91717258860E+02  0.29101311023E+03  0.00000000000E+00 0.  1.
        -13    1    3    3    0    0 -0.68923718840E+02 -0.35214332357E+02  0.82750360251E+02  0.11330556184E+03  0.00000000000E+00 0. -1.
          4    1    6    6  502    0  0.37858308620E+03 -0.85115870126E+02  0.31561237088E+03  0.50018100040E+03  0.00000000000E+00 0. -1.
          1    1    5    5  503    0 -0.13660455836E+03  0.21518451641E+03 -0.11404519211E+03  0.27923375031E+03  0.00000000000E+00 0. -1.
         -2    1    5    5    0  503 -0.11363305525E+01  0.60280051500E+02 -0.58775119798E+01  0.60576571404E+02  0.00000000000E+00 0.  1.
         -3    1    6    6    0  502  0.87332899542E+02 -0.59922508159E+02  0.95170844373E+02  0.14239112313E+03  0.00000000000E+00 0.  1.
<mgrwt>
<rscale>  0 0.13062962E+04</rscale>
<asrwt>0</asrwt>
<pdfrwt beam="1">  1        2 0.70874845E-01 0.13062962E+04</pdfrwt>
<pdfrwt beam="2">  1       -2 0.14246379E+00 0.13062962E+04</pdfrwt>
<totfact> 0.22744262E+01</totfact>
</mgrwt>
</event>
<event>
12    1  0.1472088E-007  0.1766377E+04  0.7818608E-02  0.8724387E-01
         -2   -1    0    0    0  501 -0.00000000000E+00  0.00000000000E+00  0.95411588748E+03  0.95411588748E+03  0.00000000000E+00 0.  1.
          2   -1    0    0  501    0  0.00000000000E+00 -0.00000000000E+00 -0.81753408527E+03  0.81753408527E+03  0.00000000000E+00 0. -1.
         23    2    1    2    0    0  0.31166290116E+01 -0.63503646453E+03 -0.90974856044E+02  0.64779268474E+03  0.89877212424E+02 0.  0.
        254    2    1    2    0    0 -0.31166290116E+01  0.63503646453E+03  0.22755665826E+03  0.11238572880E+04  0.89888383367E+03 0.  0.
        -24    2    4    4    0    0 -0.66462902009E+02  0.29356964868E+03 -0.33559837346E+03  0.45732679993E+03  0.76948539264E+02 0.  0.
         24    2    4    4    0    0  0.63346272998E+02  0.34146681585E+03  0.56315503172E+03  0.66653048808E+03  0.80665761994E+02 0.  0.
         13    1    3    3    0    0  0.11419108599E+02 -0.48773915084E+03 -0.10676709399E+03  0.49941874981E+03  0.00000000000E+00 0.  1.
        -13    1    3    3    0    0 -0.83024795870E+01 -0.14729731369E+03  0.15792237945E+02  0.14837393493E+03  0.00000000000E+00 0. -1.
          2    1    6    6  502    0 -0.12242094320E+02  0.12651641438E+03  0.17233039305E+03  0.21413555602E+03  0.00000000000E+00 0. -1.
          1    1    5    5  503    0 -0.11266789636E+02  0.41291334101E+02 -0.14338191497E+02  0.45138659218E+02  0.00000000000E+00 0. -1.
         -2    1    5    5    0  503 -0.55196112373E+02  0.25227831458E+03 -0.32126018197E+03  0.41218814071E+03  0.00000000000E+00 0.  1.
         -1    1    6    6    0  502  0.75588367318E+02  0.21495040147E+03  0.39082463867E+03  0.45239493206E+03  0.00000000000E+00 0.  1.
<mgrwt>
<rscale>  0 0.17663774E+04</rscale>
<asrwt>0</asrwt>
<pdfrwt beam="1">  1        2 0.12577448E+00 0.17663774E+04</pdfrwt>
<pdfrwt beam="2">  1       -2 0.14678706E+00 0.17663774E+04</pdfrwt>
<totfact> 0.10045978E+01</totfact>
</mgrwt>
</event>
<event>
12    1  0.1472088E-007  0.2947853E+04  0.7818608E-02  0.8258781E-01
         -1   -1    0    0    0  501 -0.00000000000E+00  0.00000000000E+00  0.18631553349E+04  0.18631553349E+04  0.00000000000E+00 0.  1.
          1   -1    0    0  501    0  0.00000000000E+00 -0.00000000000E+00 -0.11660106291E+04  0.11660106291E+04  0.00000000000E+00 0. -1.
         23    2    1    2    0    0  0.42842249265E+03  0.59167930810E+03  0.14570385477E+04  0.16325675298E+04  0.93194281213E+02 0.  0.
        254    2    1    2    0    0 -0.42842249265E+03 -0.59167930810E+03 -0.75989384190E+03  0.13965984341E+04  0.91619774033E+03 0.  0.
        -24    2    4    4    0    0 -0.44292752022E+03 -0.58887686584E+03 -0.94072877988E+03  0.11975979717E+04  0.79432444490E+02 0.  0.
         24    2    4    4    0    0  0.14505027568E+02 -0.28024422572E+01  0.18083493799E+03  0.19900046241E+03  0.81741419949E+02 0.  0.
         13    1    3    3    0    0  0.27770283888E+03  0.43566211677E+03  0.10893981029E+04  0.12056983758E+04  0.00000000000E+00 0.  1.
        -13    1    3    3    0    0  0.15071965377E+03  0.15601719133E+03  0.36764044483E+03  0.42686915407E+03  0.00000000000E+00 0. -1.
          2    1    6    6  502    0 -0.74932653648E+01 -0.20042853662E+02  0.16597087905E+03  0.16734454787E+03  0.00000000000E+00 0. -1.
          1    1    5    5  503    0 -0.32883105162E+03 -0.41957340678E+03 -0.73292015756E+03  0.90628012311E+03  0.00000000000E+00 0. -1.
         -2    1    5    5    0  503 -0.11409646860E+03 -0.16930345907E+03 -0.20780862232E+03  0.29131784859E+03  0.00000000000E+00 0.  1.
         -3    1    6    6    0  502  0.21998292933E+02  0.17240411405E+02  0.14864058937E+02  0.31655914541E+02  0.00000000000E+00 0.  1.
<mgrwt>
<rscale>  0 0.29478527E+04</rscale>
<asrwt>0</asrwt>
<pdfrwt beam="1">  1        1 0.17938625E+00 0.29478527E+04</pdfrwt>
<pdfrwt beam="2">  1       -1 0.28663928E+00 0.29478527E+04</pdfrwt>
<totfact> 0.39002600E-01</totfact>
</mgrwt>
</event>
<event>
12    1  0.1472088E-007  0.1450330E+04  0.7818608E-02  0.8918172E-01
         -3   -1    0    0    0  501 -0.00000000000E+00  0.00000000000E+00  0.15804739522E+04  0.15804739522E+04  0.00000000000E+00 0.  1.
          3   -1    0    0  501    0  0.00000000000E+00 -0.00000000000E+00 -0.33272562823E+03  0.33272562823E+03  0.00000000000E+00 0. -1.
         23    2    1    2    0    0  0.33103611213E+03 -0.14362255938E+03  0.72283857298E+03  0.81290303795E+03  0.90018883754E+02 0.  0.
        254    2    1    2    0    0 -0.33103611213E+03  0.14362255938E+03  0.52490975097E+03  0.11002965424E+04  0.89716770315E+03 0.  0.
        -24    2    4    4    0    0 -0.18825835349E+03 -0.17240278004E+03 -0.17225272918E+03  0.31821423088E+03  0.80158391952E+02 0.  0.
         24    2    4    4    0    0 -0.14277775863E+03  0.31602533941E+03  0.69716248015E+03  0.78208231157E+03  0.73210073269E+02 0.  0.
         13    1    3    3    0    0  0.10842638612E+03 -0.57578100404E+01  0.24614594987E+03  0.26903022548E+03  0.00000000000E+00 0. -1.
        -13    1    3    3    0    0  0.22260972600E+03 -0.13786474934E+03  0.47669262311E+03  0.54387281247E+03  0.00000000000E+00 0.  1.
          4    1    6    6  502    0 -0.35170060551E+02  0.15112744279E+03  0.35251011258E+03  0.38514908360E+03  0.00000000000E+00 0. -1.
          3    1    5    5  503    0 -0.11522709624E+03 -0.64523964869E+02 -0.55403212061E+02  0.14321362245E+03  0.00000000000E+00 0. -1.
         -4    1    5    5    0  503 -0.73031257254E+02 -0.10787881517E+03 -0.11684951712E+03  0.17500060843E+03  0.00000000000E+00 0.  1.
         -3    1    6    6    0  502 -0.10760769808E+03  0.16489789662E+03  0.34465236757E+03  0.39693322797E+03  0.00000000000E+00 0.  1.
<mgrwt>
<rscale>  0 0.14503299E+04</rscale>
<asrwt>0</asrwt>
<pdfrwt beam="1">  1        3 0.51188559E-01 0.14503299E+04</pdfrwt>
<pdfrwt beam="2">  1       -3 0.24314983E+00 0.14503299E+04</pdfrwt>
<totfact> 0.77137882E-01</totfact>
</mgrwt>
</event>
<event>
12    1  0.1472088E-007  0.1248814E+04  0.7818608E-02  0.9071171E-01
         -2   -1    0    0    0  501 -0.00000000000E+00  0.00000000000E+00  0.13940135663E+03  0.13940135663E+03  0.00000000000E+00 0.  1.
          2   -1    0    0  501    0  0.00000000000E+00 -0.00000000000E+00 -0.27968448572E+04  0.27968448572E+04  0.00000000000E+00 0. -1.
         23    2    1    2    0    0  0.26073533374E+03  0.16030820647E+01 -0.55038185661E+03  0.61582869192E+03  0.91319798356E+02 0.  0.
        254    2    1    2    0    0 -0.26073533374E+03 -0.16030820647E+01 -0.21070616439E+04  0.23204175219E+04  0.93629227298E+03 0.  0.
        -24    2    4    4    0    0 -0.45885994212E+03 -0.33628072873E+03 -0.12161035089E+04  0.13449422140E+04  0.79527602489E+02 0.  0.
         24    2    4    4    0    0  0.19812460838E+03  0.33467764666E+03 -0.89095813503E+03  0.97547530792E+03  0.80518261078E+02 0.  0.
         13    1    3    3    0    0  0.52672054318E+02 -0.25673791727E+02 -0.67893137106E+02  0.89682590026E+02  0.00000000000E+00 0.  1.
        -13    1    3    3    0    0  0.20806327943E+03  0.27276873792E+02 -0.48248871951E+03  0.52614610190E+03  0.00000000000E+00 0. -1.
          2    1    6    6  502    0  0.12707477244E+03  0.14780049578E+03 -0.49260085713E+03  0.52976276652E+03  0.00000000000E+00 0. -1.
          3    1    5    5  503    0 -0.42121029318E+03 -0.27812689193E+03 -0.10849711614E+04  0.11966349068E+04  0.00000000000E+00 0. -1.
         -4    1    5    5    0  503 -0.37649648943E+02 -0.58153836798E+02 -0.13113234753E+03  0.14830730720E+03  0.00000000000E+00 0.  1.
         -1    1    6    6    0  502  0.71049835946E+02  0.18687715088E+03 -0.39835727790E+03  0.44571254140E+03  0.00000000000E+00 0.  1.
<mgrwt>
<rscale>  0 0.12488138E+04</rscale>
<asrwt>0</asrwt>
<pdfrwt beam="1">  1        2 0.43028381E+00 0.12488138E+04</pdfrwt>
<pdfrwt beam="2">  1       -2 0.21446363E-01 0.12488138E+04</pdfrwt>
<totfact> 0.43574373E+01</totfact>
</mgrwt>
</event>
<event>
12    1  0.1472088E-007  0.1599551E+04  0.7818608E-02  0.8820824E-01
         -1   -1    0    0    0  501 -0.00000000000E+00  0.00000000000E+00  0.19269001529E+04  0.19269001529E+04  0.00000000000E+00 0.  1.
          1   -1    0    0  501    0  0.00000000000E+00 -0.00000000000E+00 -0.33195311504E+03  0.33195311504E+03  0.00000000000E+00 0. -1.
         23    2    1    2    0    0 -0.85506417845E+01  0.47273019693E+03  0.89720222653E+03  0.10182944477E+04  0.91677665447E+02 0.  0.
        254    2    1    2    0    0  0.85506417845E+01 -0.47273019693E+03  0.69774481132E+03  0.12405588203E+04  0.91026996667E+03 0.  0.
        -24    2    4    4    0    0  0.99080510238E+02 -0.58821347222E+03  0.83155731736E+03  0.10259234187E+04  0.72244394234E+02 0.  0.
         24    2    4    4    0    0 -0.90529868454E+02  0.11548327529E+03 -0.13381250604E+03  0.21463540159E+03  0.81428035025E+02 0.  0.
         13    1    3    3    0    0 -0.83124421529E+01  0.24657451436E+03  0.37091567368E+03  0.44547337161E+03  0.00000000000E+00 0. -1.
        -13    1    3    3    0    0 -0.23819963154E+00  0.22615568257E+03  0.52628655285E+03  0.57282107609E+03  0.00000000000E+00 0.  1.
          2    1    6    6  502    0 -0.33085879141E+02 -0.47625123044E+01 -0.37354646993E+02  0.50127104185E+02  0.00000000000E+00 0. -1.
          3    1    5    5  503    0 -0.85970562006E+01 -0.12038338174E+03  0.15939245012E+03  0.19993004058E+03  0.00000000000E+00 0. -1.
         -4    1    5    5    0  503  0.10767756644E+03 -0.46783009048E+03  0.67216486725E+03  0.82599337808E+03  0.00000000000E+00 0.  1.
         -1    1    6    6    0  502 -0.57443989313E+02  0.12024578760E+03 -0.96457859045E+02  0.16450829740E+03  0.00000000000E+00 0.  1.
<mgrwt>
<rscale>  0 0.15995506E+04</rscale>
<asrwt>0</asrwt>
<pdfrwt beam="1">  1        1 0.51069711E-01 0.15995506E+04</pdfrwt>
<pdfrwt beam="2">  1       -1 0.29644617E+00 0.15995506E+04</pdfrwt>
<totfact> 0.25706781E+00</totfact>
</mgrwt>
</event>
<event>
12    1  0.1472088E-007  0.1677305E+04  0.7818608E-02  0.8774415E-01
         -1   -1    0    0    0  501 -0.00000000000E+00  0.00000000000E+00  0.65430414154E+03  0.65430414154E+03  0.00000000000E+00 0.  1.
          1   -1    0    0  501    0  0.00000000000E+00 -0.00000000000E+00 -0.10749400291E+04  0.10749400291E+04  0.00000000000E+00 0. -1.
         23    2    1    2    0    0 -0.51260568834E+03 -0.28839909177E+03 -0.63524424369E+02  0.59847090603E+03  0.90517650287E+02 0.  0.
        254    2    1    2    0    0  0.51260568834E+03  0.28839909177E+03 -0.35711146316E+03  0.11307732646E+04  0.89731875657E+03 0.  0.
        -24    2    4    4    0    0 -0.48084876739E+02  0.40651000676E+03  0.54717850509E+02  0.42057610097E+03  0.79546669131E+02 0.  0.
         24    2    4    4    0    0  0.56069056508E+03 -0.11811091499E+03 -0.41182931367E+03  0.71019716361E+03  0.80327638975E+02 0.  0.
         11    1    3    3    0    0 -0.46262756056E+03 -0.23871164270E+03 -0.78369930019E+02  0.52644976406E+03  0.00000000000E+00 0. -1.
        -11    1    3    3    0    0 -0.49978127785E+02 -0.49687449072E+02  0.14845505650E+02  0.72021141967E+02  0.00000000000E+00 0.  1.
          2    1    6    6  502    0  0.31633685038E+03 -0.77300983358E+02 -0.18625023137E+03  0.37514476355E+03  0.00000000000E+00 0. -1.
          3    1    5    5  503    0 -0.17152888291E+02  0.39894133308E+02 -0.15324173047E+02  0.46049904763E+02  0.00000000000E+00 0. -1.
         -4    1    5    5    0  503 -0.30931988449E+02  0.36661587345E+03  0.70042023556E+02  0.37452619620E+03  0.00000000000E+00 0.  1.
         -1    1    6    6    0  502  0.24435371470E+03 -0.40809931635E+02 -0.22557908230E+03  0.33505240005E+03  0.00000000000E+00 0.  1.
<mgrwt>
<rscale>  0 0.16773046E+04</rscale>
<asrwt>0</asrwt>
<pdfrwt beam="1">  1        1 0.16537539E+00 0.16773046E+04</pdfrwt>
<pdfrwt beam="2">  1       -1 0.10066218E+00 0.16773046E+04</pdfrwt>
<totfact> 0.11857214E+01</totfact>
</mgrwt>
</event>
<event>
12    1  0.1472088E-007  0.1988960E+04  0.7818608E-02  0.8611800E-01
          1   -1    0    0  501    0  0.00000000000E+00  0.00000000000E+00  0.15367493692E+04  0.15367493692E+04  0.00000000000E+00 0. -1.
         -1   -1    0    0    0  501 -0.00000000000E+00 -0.00000000000E+00 -0.64355983906E+03  0.64355983906E+03  0.00000000000E+00 0.  1.
         23    2    1    2    0    0 -0.33699750939E+03 -0.58078799830E+03 -0.93398696934E+02  0.68431894536E+03  0.93204517559E+02 0.  0.
        254    2    1    2    0    0  0.33699750939E+03  0.58078799830E+03  0.98658822709E+03  0.14959902629E+04  0.90208010541E+03 0.  0.
        -24    2    4    4    0    0  0.27537048320E+03  0.77240119977E+03  0.50051281956E+03  0.96389622725E+03  0.78424090289E+02 0.  0.
         24    2    4    4    0    0  0.61627026188E+02 -0.19161320147E+03  0.48607540753E+03  0.53209403565E+03  0.79631976231E+02 0.  0.
         13    1    3    3    0    0 -0.18698764585E+03 -0.33193007304E+03 -0.65042684457E+01  0.38103052187E+03  0.00000000000E+00 0.  1.
        -13    1    3    3    0    0 -0.15000986354E+03 -0.24885792526E+03 -0.86894428488E+02  0.30328842349E+03  0.00000000000E+00 0. -1.
          4    1    6    6  502    0  0.63997934696E+01 -0.22713023097E+02  0.13439041633E+02  0.27155968307E+02  0.00000000000E+00 0. -1.
          3    1    5    5  503    0  0.15538586708E+03  0.54396205880E+03  0.34168482814E+03  0.66089939543E+03  0.00000000000E+00 0. -1.
         -4    1    5    5    0  503  0.11998461612E+03  0.22843914098E+03  0.15882799142E+03  0.30299683182E+03  0.00000000000E+00 0.  1.
         -3    1    6    6    0  502  0.55227232718E+02 -0.16890017837E+03  0.47263636589E+03  0.50493806734E+03  0.00000000000E+00 0.  1.
<mgrwt>
<rscale>  0 0.19889597E+04</rscale>
<asrwt>0</asrwt>
<pdfrwt beam="1">  1        1 0.23642298E+00 0.19889597E+04</pdfrwt>
<pdfrwt beam="2">  1       -1 0.99009206E-01 0.19889597E+04</pdfrwt>
<totfact> 0.55852560E+00</totfact>
</mgrwt>
</event>
<event>
12    1  0.1472088E-007  0.2593993E+04  0.7818608E-02  0.8370244E-01
         -2   -1    0    0    0  501 -0.00000000000E+00  0.00000000000E+00  0.81209346031E+03  0.81209346031E+03  0.00000000000E+00 0.  1.
          2   -1    0    0  501    0  0.00000000000E+00 -0.00000000000E+00 -0.20714370806E+04  0.20714370806E+04  0.00000000000E+00 0. -1.
         23    2    1    2    0    0  0.33701992161E+03  0.10887017927E+04 -0.54050858625E+03  0.12646536437E+04  0.91352536129E+02 0.  0.
        254    2    1    2    0    0 -0.33701992161E+03 -0.10887017927E+04 -0.71883503407E+03  0.16188768972E+04  0.89732077940E+03 0.  0.
        -24    2    4    4    0    0  0.12363579738E+03 -0.37654285704E+03 -0.64832841968E+03  0.76412898503E+03  0.80579354792E+02 0.  0.
         24    2    4    4    0    0 -0.46065571898E+03 -0.71215893564E+03 -0.70506614392E+02  0.85474791217E+03  0.79049159687E+02 0.  0.
         11    1    3    3    0    0  0.16770830460E+03  0.40415993618E+03 -0.22668608607E+03  0.49280615973E+03  0.00000000000E+00 0.  1.
        -11    1    3    3    0    0  0.16931161701E+03  0.68454185650E+03 -0.31382250018E+03  0.77184748401E+03  0.00000000000E+00 0. -1.
          4    1    6    6  502    0 -0.25456591990E+03 -0.34152190840E+03 -0.63059829485E+02  0.43060139757E+03  0.00000000000E+00 0. -1.
          1    1    5    5  503    0  0.38217139932E+01 -0.48138040695E+02 -0.13231411880E+03  0.14085063896E+03  0.00000000000E+00 0. -1.
         -2    1    5    5    0  503  0.11981408338E+03 -0.32840481635E+03 -0.51601430087E+03  0.62327834607E+03  0.00000000000E+00 0.  1.
         -3    1    6    6    0  502 -0.20608979908E+03 -0.37063702724E+03 -0.74467849074E+01  0.42414651460E+03  0.00000000000E+00 0.  1.
<mgrwt>
<rscale>  0 0.25939935E+04</rscale>
<asrwt>0</asrwt>
<pdfrwt beam="1">  1        2 0.31868263E+00 0.25939935E+04</pdfrwt>
<pdfrwt beam="2">  1       -2 0.12493746E+00 0.25939935E+04</pdfrwt>
<totfact> 0.25899165E+00</totfact>
</mgrwt>
</event>
<event>
12    1  0.1472088E-007  0.1960730E+04  0.7818608E-02  0.8625204E-01
         -1   -1    0    0    0  501 -0.00000000000E+00  0.00000000000E+00  0.56403500819E+03  0.56403500819E+03  0.00000000000E+00 0.  1.
          1   -1    0    0  501    0  0.00000000000E+00 -0.00000000000E+00 -0.17039997099E+04  0.17039997099E+04  0.00000000000E+00 0. -1.
         23    2    1    2    0    0  0.65820988710E+03 -0.17642194347E+03 -0.86798842590E+03  0.11076647725E+04  0.95668088137E+02 0.  0.
        254    2    1    2    0    0 -0.65820988710E+03  0.17642194347E+03 -0.27197627578E+03  0.11603699456E+04  0.89895626055E+03 0.  0.
        -24    2    4    4    0    0 -0.49793490949E+03  0.49658105156E+03 -0.34112158920E+03  0.78596338511E+03  0.82719944742E+02 0.  0.
         24    2    4    4    0    0 -0.16027497760E+03 -0.32015910809E+03  0.69145313418E+02  0.37440656046E+03  0.84907450836E+02 0.  0.
         11    1    3    3    0    0  0.55100621531E+03 -0.17841586238E+03 -0.70232166446E+03  0.91032729808E+03  0.00000000000E+00 0. -1.
        -11    1    3    3    0    0  0.10720367179E+03  0.19939189076E+01 -0.16566676144E+03  0.19733747440E+03  0.00000000000E+00 0.  1.
          2    1    6    6  502    0 -0.87862758154E+01 -0.36906769378E+01 -0.10956631946E+02  0.14521278269E+02  0.00000000000E+00 0. -1.
          3    1    5    5  503    0 -0.24631486699E+03  0.19619440025E+03 -0.12814507023E+03  0.33997708072E+03  0.00000000000E+00 0. -1.
         -4    1    5    5    0  503 -0.25162004251E+03  0.30038665131E+03 -0.21297651896E+03  0.44598630439E+03  0.00000000000E+00 0.  1.
         -1    1    6    6    0  502 -0.15148870179E+03 -0.31646843115E+03  0.80101945364E+02  0.35988528219E+03  0.00000000000E+00 0.  1.
<mgrwt>
<rscale>  0 0.19607300E+04</rscale>
<asrwt>0</asrwt>
<pdfrwt beam="1">  1        1 0.26215380E+00 0.19607300E+04</pdfrwt>
<pdfrwt beam="2">  1       -1 0.86774619E-01 0.19607300E+04</pdfrwt>
<totfact> 0.57691037E+00</totfact>
</mgrwt>
</event>
<event>
12    1  0.1472088E-007  0.2387511E+04  0.7818608E-02  0.8444194E-01
          1   -1    0    0  501    0  0.00000000000E+00  0.00000000000E+00  0.26237734016E+04  0.26237734016E+04  0.00000000000E+00 0. -1.
         -1   -1    0    0    0  501 -0.00000000000E+00 -0.00000000000E+00 -0.54313073381E+03  0.54313073381E+03  0.00000000000E+00 0.  1.
         23    2    1    2    0    0  0.45693197801E+03  0.37716925119E+03  0.19992769219E+04  0.20871986953E+04  0.90811379813E+02 0.  0.
        254    2    1    2    0    0 -0.45693197801E+03 -0.37716925119E+03  0.81365745908E+02  0.10797054401E+04  0.89894381149E+03 0.  0.
        -24    2    4    4    0    0 -0.61580677609E+03 -0.41596866935E+02 -0.14281924182E+03  0.63842171459E+03  0.78972558535E+02 0.  0.
         24    2    4    4    0    0  0.15887479808E+03 -0.33557238426E+03  0.22418498773E+03  0.44128372552E+03  0.81378075306E+02 0.  0.
         13    1    3    3    0    0  0.14931681314E+03  0.13095442078E+03  0.52941374581E+03  0.56544096531E+03  0.00000000000E+00 0.  1.
        -13    1    3    3    0    0  0.30761516487E+03  0.24621483041E+03  0.14698631761E+04  0.15217577300E+04  0.00000000000E+00 0. -1.
          4    1    6    6  502    0  0.15200290321E+03 -0.31651581627E+03  0.18430725808E+03  0.39655555716E+03  0.00000000000E+00 0. -1.
          1    1    5    5  503    0 -0.57319109476E+03 -0.53533976480E+02 -0.11790747819E+03  0.58763601929E+03  0.00000000000E+00 0. -1.
         -2    1    5    5    0  503 -0.42615681330E+02  0.11937109544E+02 -0.24911763638E+02  0.50785695300E+02  0.00000000000E+00 0.  1.
         -3    1    6    6    0  502  0.68718948700E+01 -0.19056567991E+02  0.39877729650E+02  0.44728168359E+02  0.00000000000E+00 0.  1.
<mgrwt>
<rscale>  0 0.23875108E+04</rscale>
<asrwt>0</asrwt>
<pdfrwt beam="1">  1        1 0.40365744E+00 0.23875108E+04</pdfrwt>
<pdfrwt beam="2">  1       -1 0.83558576E-01 0.23875108E+04</pdfrwt>
<totfact> 0.14150926E+00</totfact>
</mgrwt>
</event>
<event>
12    1  0.1472088E-007  0.1952580E+04  0.7818608E-02  0.8629117E-01
          2   -1    0    0  501    0  0.00000000000E+00  0.00000000000E+00  0.28099568407E+04  0.28099568407E+04  0.00000000000E+00 0.  1.
         -2   -1    0    0    0  501 -0.00000000000E+00 -0.00000000000E+00 -0.33920185893E+03  0.33920185893E+03  0.00000000000E+00 0. -1.
         23    2    1    2    0    0 -0.58023838248E+03  0.48949439266E+02  0.16836795336E+03  0.61331708254E+03  0.93474316846E+02 0.  0.
        254    2    1    2    0    0  0.58023838248E+03 -0.48949439266E+02  0.23023870284E+04  0.25358416171E+04  0.88906358059E+03 0.  0.
        -24    2    4    4    0    0  0.30350769171E+03  0.41274055478E+03  0.11093422777E+04  0.12245646484E+04  0.80290750059E+02 0.  0.
         24    2    4    4    0    0  0.27673069077E+03 -0.46168999404E+03  0.11930447507E+04  0.13112769687E+04  0.79711891367E+02 0.  0.
         13    1    3    3    0    0 -0.55065438923E+03  0.26777942154E+02  0.14679812836E+03  0.57051468434E+03  0.00000000000E+00 0. -1.
        -13    1    3    3    0    0 -0.29583993250E+02  0.22171497111E+02  0.21569824995E+02  0.42802398193E+02  0.00000000000E+00 0.  1.
          4    1    6    6  502    0  0.84348604316E+02 -0.10181673713E+03  0.36343767488E+03  0.38674058299E+03  0.00000000000E+00 0. -1.
          1    1    5    5  503    0  0.28625094149E+02  0.29579757793E+02  0.48358583835E+02  0.63505202280E+02  0.00000000000E+00 0. -1.
         -2    1    5    5    0  503  0.27488259756E+03  0.38316079698E+03  0.10609836939E+04  0.11610594461E+04  0.00000000000E+00 0.  1.
         -3    1    6    6    0  502  0.19238208645E+03 -0.35987325691E+03  0.82960707586E+03  0.92453638574E+03  0.00000000000E+00 0.  1.
<mgrwt>
<rscale>  0 0.19525804E+04</rscale>
<asrwt>0</asrwt>
<pdfrwt beam="1">  1        2 0.43230104E+00 0.19525804E+04</pdfrwt>
<pdfrwt beam="2">  1       -2 0.52184903E-01 0.19525804E+04</pdfrwt>
<totfact> 0.73854672E+00</totfact>
</mgrwt>
</event>
<event>
12    1  0.1472088E-007  0.1587272E+04  0.7818608E-02  0.8828406E-01
          1   -1    0    0  501    0  0.00000000000E+00  0.00000000000E+00  0.13007597479E+04  0.13007597479E+04  0.00000000000E+00 0. -1.
         -1   -1    0    0    0  501 -0.00000000000E+00 -0.00000000000E+00 -0.48422320095E+03  0.48422320095E+03  0.00000000000E+00 0.  1.
         23    2    1    2    0    0 -0.79874282665E+02  0.87747673075E+02 -0.30001998914E+03  0.33566834110E+03  0.92637390792E+02 0.  0.
        254    2    1    2    0    0  0.79874282665E+02 -0.87747673075E+02  0.11165565361E+04  0.14493146077E+04  0.91637043753E+03 0.  0.
        -24    2    4    4    0    0 -0.29867167787E+02  0.33128415940E+03  0.89283317598E+03  0.95617473747E+03  0.80484821336E+02 0.  0.
         24    2    4    4    0    0  0.10974145045E+03 -0.41903183247E+03  0.22372336010E+03  0.49313987027E+03  0.74188457472E+02 0.  0.
         11    1    3    3    0    0 -0.69741383586E+02  0.34634370006E+02 -0.25058597266E+03  0.26240565897E+03  0.00000000000E+00 0.  1.
        -11    1    3    3    0    0 -0.10132899079E+02  0.53113303068E+02 -0.49434016485E+02  0.73262682127E+02  0.00000000000E+00 0. -1.
          4    1    6    6  502    0  0.27895517866E+02 -0.75199221928E+02  0.11897066512E+02  0.81084049524E+02  0.00000000000E+00 0. -1.
          1    1    5    5  503    0 -0.23366898719E+01  0.16560595174E+03  0.55029020157E+03  0.57467390520E+03  0.00000000000E+00 0. -1.
         -2    1    5    5    0  503 -0.27530477915E+02  0.16567820765E+03  0.34254297440E+03  0.38150083227E+03  0.00000000000E+00 0.  1.
         -3    1    6    6    0  502  0.81845932586E+02 -0.34383261054E+03  0.21182629359E+03  0.41205582075E+03  0.00000000000E+00 0.  1.
<mgrwt>
<rscale>  0 0.15872719E+04</rscale>
<asrwt>0</asrwt>
<pdfrwt beam="1">  1        1 0.20011688E+00 0.15872719E+04</pdfrwt>
<pdfrwt beam="2">  1       -1 0.74495878E-01 0.15872719E+04</pdfrwt>
<totfact> 0.15735897E+01</totfact>
</mgrwt>
</event>
<event>
12    1  0.1472088E-007  0.1414300E+04  0.7818608E-02  0.8943532E-01
          2   -1    0    0  501    0  0.00000000000E+00  0.00000000000E+00  0.14333158933E+04  0.14333158933E+04  0.00000000000E+00 0. -1.
         -2   -1    0    0    0  501 -0.00000000000E+00 -0.00000000000E+00 -0.34888421807E+03  0.34888421807E+03  0.00000000000E+00 0.  1.
         23    2    1    2    0    0 -0.15232877679E+03  0.16568325054E+03 -0.85861110980E+02  0.25759914167E+03  0.91269883665E+02 0.  0.
        254    2    1    2    0    0  0.15232877679E+03 -0.16568325054E+03  0.11702927863E+04  0.15246009697E+04  0.95087744512E+03 0.  0.
        -24    2    4    4    0    0  0.36836323183E+03  0.25673610528E+03  0.35565296130E+03  0.57821475734E+03  0.78983405835E+02 0.  0.
         24    2    4    4    0    0 -0.21603445505E+03 -0.42241935582E+03  0.81463982496E+03  0.94638621241E+03  0.83065159318E+02 0.  0.
         11    1    3    3    0    0 -0.12306294093E+03  0.11859958738E+03 -0.20876886351E+02  0.17218070141E+03  0.00000000000E+00 0.  1.
        -11    1    3    3    0    0 -0.29265835862E+02  0.47083663157E+02 -0.64984224629E+02  0.85418440255E+02  0.00000000000E+00 0. -1.
          4    1    6    6  502    0 -0.10703060160E+03 -0.29320155873E+03  0.54862841251E+03  0.63120190014E+03  0.00000000000E+00 0. -1.
          1    1    5    5  503    0  0.28799479536E+03  0.23736802940E+03  0.29326374932E+03  0.47464535202E+03  0.00000000000E+00 0. -1.
         -2    1    5    5    0  503  0.80368436476E+02  0.19368075884E+02  0.62389211979E+02  0.10356940531E+03  0.00000000000E+00 0.  1.
         -3    1    6    6    0  502 -0.10900385345E+03 -0.12921779709E+03  0.26601141245E+03  0.31518431227E+03  0.00000000000E+00 0.  1.
<mgrwt>
<rscale>  0 0.14143002E+04</rscale>
<asrwt>0</asrwt>
<pdfrwt beam="1">  1        2 0.22051013E+00 0.14143002E+04</pdfrwt>
<pdfrwt beam="2">  1       -2 0.53674496E-01 0.14143002E+04</pdfrwt>
<totfact> 0.44033593E+01</totfact>
</mgrwt>
</event>
<event>
12    1  0.1472088E-007  0.1575159E+04  0.7818608E-02  0.8835956E-01
         -2   -1    0    0    0  501 -0.00000000000E+00  0.00000000000E+00  0.19958536336E+03  0.19958536336E+03  0.00000000000E+00 0.  1.
          2   -1    0    0  501    0  0.00000000000E+00 -0.00000000000E+00 -0.31078498165E+04  0.31078498165E+04  0.00000000000E+00 0. -1.
         23    2    1    2    0    0 -0.12798748670E+03 -0.15695451363E+03  0.30711573229E+02  0.22511433060E+03  0.93368865302E+02 0.  0.
        254    2    1    2    0    0  0.12798748670E+03  0.15695451363E+03 -0.29389760264E+04  0.30823208493E+04  0.90670073237E+03 0.  0.
        -24    2    4    4    0    0  0.24005979026E+03  0.49472636422E+03 -0.19528329190E+04  0.20303482520E+04  0.79841947505E+02 0.  0.
         24    2    4    4    0    0 -0.11207230356E+03 -0.33777185059E+03 -0.98614310742E+03  0.10519725973E+04  0.86706936637E+02 0.  0.
         11    1    3    3    0    0 -0.82609372260E+02 -0.15247609977E+03  0.66201746305E+01  0.17354277887E+03  0.00000000000E+00 0.  1.
        -11    1    3    3    0    0 -0.45378114443E+02 -0.44784138641E+01  0.24091398599E+02  0.51571551727E+02  0.00000000000E+00 0. -1.
          4    1    6    6  502    0  0.10488945896E+02 -0.15515221187E+02 -0.87011038965E+02  0.89003713273E+02  0.00000000000E+00 0. -1.
          3    1    5    5  503    0  0.25047664388E+02  0.17887436843E+02 -0.76219127288E+02  0.82199156034E+02  0.00000000000E+00 0. -1.
         -4    1    5    5    0  503  0.21501212587E+03  0.47683892737E+03 -0.18766137917E+04  0.19481490959E+04  0.00000000000E+00 0.  1.
         -3    1    6    6    0  502 -0.12256124945E+03 -0.32225662940E+03 -0.89913206846E+03  0.96296888402E+03  0.00000000000E+00 0.  1.
<mgrwt>
<rscale>  0 0.15751588E+04</rscale>
<asrwt>0</asrwt>
<pdfrwt beam="1">  1        2 0.47813067E+00 0.15751588E+04</pdfrwt>
<pdfrwt beam="2">  1       -2 0.30705445E-01 0.15751588E+04</pdfrwt>
<totfact> 0.14135686E+01</totfact>
</mgrwt>
</event>
<event>
12    1  0.1472088E-007  0.1817975E+04  0.7818608E-02  0.8696798E-01
         -2   -1    0    0    0  501 -0.00000000000E+00  0.00000000000E+00  0.11529035763E+04  0.11529035763E+04  0.00000000000E+00 0. -1.
          2   -1    0    0  501    0  0.00000000000E+00 -0.00000000000E+00 -0.71667608234E+03  0.71667608234E+03  0.00000000000E+00 0.  1.
         23    2    1    2    0    0 -0.65819766593E+03  0.16271704140E+03  0.21568197672E+03  0.71772542162E+03  0.94393128786E+02 0.  0.
        254    2    1    2    0    0  0.65819766593E+03 -0.16271704140E+03  0.22054551725E+03  0.11518542370E+04  0.90466947289E+03 0.  0.
        -24    2    4    4    0    0  0.28341563542E+03  0.65633516744E+02  0.53099067898E+03  0.60974507679E+03  0.72151067786E+02 0.  0.
         24    2    4    4    0    0  0.37478203051E+03 -0.22835055815E+03 -0.31044516173E+03  0.54210916024E+03  0.70004252549E+02 0.  0.
         13    1    3    3    0    0 -0.51182771128E+03  0.16339630075E+03  0.15420783898E+03  0.55896870640E+03  0.00000000000E+00 0. -1.
        -13    1    3    3    0    0 -0.14636995465E+03 -0.67925934197E+00  0.61474137732E+02  0.15875671522E+03  0.00000000000E+00 0.  1.
          2    1    6    6  502    0  0.37521933686E+03 -0.23155849995E+03 -0.30961311895E+03  0.53876634367E+03  0.00000000000E+00 0. -1.
          3    1    5    5  503    0  0.17614518888E+03  0.69993905904E+02  0.37778833474E+03  0.42267043934E+03  0.00000000000E+00 0. -1.
         -4    1    5    5    0  503  0.10727044654E+03 -0.43603891596E+01  0.15320234424E+03  0.18707463745E+03  0.00000000000E+00 0.  1.
         -3    1    6    6    0  502 -0.43730634463E+00  0.32079417998E+01 -0.83204278433E+00  0.33428165706E+01  0.00000000000E+00 0.  1.
<mgrwt>
<rscale>  0 0.18179752E+04</rscale>
<asrwt>0</asrwt>
<pdfrwt beam="1">  1        2 0.11025786E+00 0.18179752E+04</pdfrwt>
<pdfrwt beam="2">  1       -2 0.17736978E+00 0.18179752E+04</pdfrwt>
<totfact> 0.70841598E+00</totfact>
</mgrwt>
</event>
<event>
12    1  0.1472088E-007  0.2588726E+04  0.7818608E-02  0.8372041E-01
         -1   -1    0    0    0  501 -0.00000000000E+00  0.00000000000E+00  0.55928160522E+03  0.55928160522E+03  0.00000000000E+00 0.  1.
          1   -1    0    0  501    0  0.00000000000E+00 -0.00000000000E+00 -0.29955854603E+04  0.29955854603E+04  0.00000000000E+00 0. -1.
         23    2    1    2    0    0  0.60907771600E+03  0.79006838922E+03 -0.33264142341E+03  0.10584277561E+04  0.12014688695E+03 0.  0.
        254    2    1    2    0    0 -0.60907771600E+03 -0.79006838922E+03 -0.21036624316E+04  0.24964393094E+04  0.90090503143E+03 0.  0.
        -24    2    4    4    0    0 -0.49612575221E+03  0.38446975048E+02 -0.77102423615E+03  0.92116645854E+03  0.80314006978E+02 0.  0.
         24    2    4    4    0    0 -0.11295196379E+03 -0.82851536427E+03 -0.13326381955E+04  0.15752728509E+04  0.79775558588E+02 0.  0.
         13    1    3    3    0    0  0.38628874413E+03  0.48012102133E+03 -0.14483763801E+03  0.63301906002E+03  0.00000000000E+00 0.  1.
        -13    1    3    3    0    0  0.22278897187E+03  0.30994736789E+03 -0.18780378540E+03  0.42540869603E+03  0.00000000000E+00 0. -1.
          2    1    6    6  502    0 -0.94872706028E+02 -0.78978891579E+03 -0.12848536758E+04  0.15111638992E+04  0.00000000000E+00 0. -1.
          3    1    5    5  503    0 -0.42418445765E+03  0.20923379541E+02 -0.60298818865E+03  0.73753982778E+03  0.00000000000E+00 0. -1.
         -4    1    5    5    0  503 -0.71941294562E+02  0.17523595507E+02 -0.16803604751E+03  0.18362663076E+03  0.00000000000E+00 0.  1.
         -1    1    6    6    0  502 -0.18079257764E+02 -0.38726448479E+02 -0.47784519665E+02  0.64108951736E+02  0.00000000000E+00 0.  1.
<mgrwt>
<rscale>  0 0.25887262E+04</rscale>
<asrwt>0</asrwt>
<pdfrwt beam="1">  1        1 0.46085931E+00 0.25887262E+04</pdfrwt>
<pdfrwt beam="2">  1       -1 0.86043323E-01 0.25887262E+04</pdfrwt>
<totfact> 0.70763633E-01</totfact>
</mgrwt>
</event>
<event>
12    1  0.1472088E-007  0.1396390E+04  0.7818608E-02  0.8956436E-01
         -1   -1    0    0    0  501 -0.00000000000E+00  0.00000000000E+00  0.56173578316E+03  0.56173578316E+03  0.00000000000E+00 0.  1.
          1   -1    0    0  501    0  0.00000000000E+00 -0.00000000000E+00 -0.86780285061E+03  0.86780285061E+03  0.00000000000E+00 0. -1.
         23    2    1    2    0    0  0.31856488145E+03 -0.62863370170E+02  0.15288576037E+03  0.37065539049E+03  0.92606564420E+02 0.  0.
        254    2    1    2    0    0 -0.31856488145E+03  0.62863370170E+02 -0.45895282781E+03  0.10588832433E+04  0.89730743769E+03 0.  0.
        -24    2    4    4    0    0 -0.11319623372E+03  0.47040635731E+03 -0.25412553343E+03  0.55251387286E+03  0.81217391174E+02 0.  0.
         24    2    4    4    0    0 -0.20536864773E+03 -0.40754298715E+03 -0.20482729438E+03  0.50636937042E+03  0.78664801117E+02 0.  0.
         11    1    3    3    0    0  0.17170978487E+03 -0.41960979574E+02  0.13253438638E+03  0.22093061716E+03  0.00000000000E+00 0.  1.
        -11    1    3    3    0    0  0.14685509659E+03 -0.20902390596E+02  0.20351373986E+02  0.14972477333E+03  0.00000000000E+00 0. -1.
          4    1    6    6  502    0 -0.18631846103E+03 -0.40128954529E+03 -0.19037830926E+03  0.48165523844E+03  0.00000000000E+00 0. -1.
          1    1    5    5  503    0 -0.10132431096E+03  0.36800275838E+03 -0.23327665341E+03  0.44733728125E+03  0.00000000000E+00 0. -1.
         -4    1    5    5    0  503 -0.11871922762E+02  0.10240359893E+03 -0.20848880016E+02  0.10517659161E+03  0.00000000000E+00 0.  1.
         -3    1    6    6    0  502 -0.19050186704E+02 -0.62534418517E+01 -0.14448985123E+02  0.24714131980E+02  0.00000000000E+00 0.  1.
<mgrwt>
<rscale>  0 0.13963895E+04</rscale>
<asrwt>0</asrwt>
<pdfrwt beam="1">  1        1 0.13350813E+00 0.13963895E+04</pdfrwt>
<pdfrwt beam="2">  1       -1 0.86420891E-01 0.13963895E+04</pdfrwt>
<totfact> 0.24930736E+01</totfact>
</mgrwt>
</event>
<event>
12    1  0.1472088E-007  0.1217490E+04  0.7818608E-02  0.9097684E-01
          1   -1    0    0  501    0  0.00000000000E+00  0.00000000000E+00  0.11742745548E+04  0.11742745548E+04  0.00000000000E+00 0. -1.
         -1   -1    0    0    0  501 -0.00000000000E+00 -0.00000000000E+00 -0.31557417018E+03  0.31557417018E+03  0.00000000000E+00 0.  1.
         23    2    1    2    0    0 -0.11175635223E+03  0.11475950408E+03 -0.58102527380E+02  0.19249376589E+03  0.89547306925E+02 0.  0.
        254    2    1    2    0    0  0.11175635223E+03 -0.11475950408E+03  0.91680291195E+03  0.12973549590E+04  0.90384903848E+03 0.  0.
        -24    2    4    4    0    0 -0.31074711961E+03 -0.10792151185E+03  0.70460439870E+02  0.34732640249E+03  0.86372051125E+02 0.  0.
         24    2    4    4    0    0  0.42250347184E+03 -0.68379922378E+01  0.84634247208E+03  0.95002855655E+03  0.87765234330E+02 0.  0.
         13    1    3    3    0    0 -0.41287793967E+02  0.80634884552E+00  0.95720323363E+01  0.42390517008E+02  0.00000000000E+00 0. -1.
        -13    1    3    3    0    0 -0.70468558262E+02  0.11395315524E+03 -0.67674559716E+02  0.15010324888E+03  0.00000000000E+00 0.  1.
          4    1    6    6  502    0  0.41697074835E+03 -0.95932705828E+01  0.78992782115E+03  0.89327632815E+03  0.00000000000E+00 0. -1.
          3    1    5    5  503    0 -0.28176427468E+03 -0.93901268737E+02  0.34400294707E+02  0.29898484080E+03  0.00000000000E+00 0. -1.
         -4    1    5    5    0  503 -0.28982844937E+02 -0.14020243110E+02  0.36060145163E+02  0.48341561690E+02  0.00000000000E+00 0.  1.
         -3    1    6    6    0  502  0.55327234961E+01  0.27552783450E+01  0.56414650936E+02  0.56752228400E+02  0.00000000000E+00 0.  1.
<mgrwt>
<rscale>  0 0.12174904E+04</rscale>
<asrwt>0</asrwt>
<pdfrwt beam="1">  1        1 0.18065762E+00 0.12174904E+04</pdfrwt>
<pdfrwt beam="2">  1       -1 0.48549873E-01 0.12174904E+04</pdfrwt>
<totfact> 0.46817631E+01</totfact>
</mgrwt>
</event>
<event>
12    1  0.1472088E-007  0.1086593E+04  0.7818608E-02  0.9218358E-01
         -1   -1    0    0    0  501 -0.00000000000E+00  0.00000000000E+00  0.30494323483E+03  0.30494323483E+03  0.00000000000E+00 0.  1.
          1   -1    0    0  501    0  0.00000000000E+00 -0.00000000000E+00 -0.96795505841E+03  0.96795505841E+03  0.00000000000E+00 0. -1.
         23    2    1    2    0    0 -0.13256349545E+03 -0.96939798716E+02 -0.13228429625E+03  0.23012880240E+03  0.92139707810E+02 0.  0.
        254    2    1    2    0    0  0.13256349545E+03  0.96939798716E+02 -0.53072752732E+03  0.10427694908E+04  0.88245458686E+03 0.  0.
        -24    2    4    4    0    0 -0.24939116549E+03 -0.25511811715E+03 -0.27852994828E+03  0.45989799752E+03  0.81523180184E+02 0.  0.
         24    2    4    4    0    0  0.38195466094E+03  0.35205791587E+03 -0.25219757904E+03  0.58287149332E+03  0.79381482147E+02 0.  0.
         13    1    3    3    0    0  0.11247915867E+02 -0.31532057014E+01  0.23864416338E+01  0.11922810961E+02  0.00000000000E+00 0.  1.
        -13    1    3    3    0    0 -0.14381141132E+03 -0.93786593014E+02 -0.13467073789E+03  0.21820599143E+03  0.00000000000E+00 0. -1.
          2    1    6    6  502    0  0.16068688178E+03  0.14012229558E+03 -0.61152379431E+02  0.22179753201E+03  0.00000000000E+00 0. -1.
          1    1    5    5  503    0 -0.19837943516E+03 -0.19314358125E+03 -0.25460013213E+03  0.37613836624E+03  0.00000000000E+00 0. -1.
         -2    1    5    5    0  503 -0.51011730333E+02 -0.61974535904E+02 -0.23929816150E+02  0.83759631285E+02  0.00000000000E+00 0.  1.
         -1    1    6    6    0  502  0.22126777917E+03  0.21193562029E+03 -0.19104519961E+03  0.36107396131E+03  0.00000000000E+00 0.  1.
<mgrwt>
<rscale>  0 0.10865935E+04</rscale>
<asrwt>0</asrwt>
<pdfrwt beam="1">  1        1 0.14891616E+00 0.10865935E+04</pdfrwt>
<pdfrwt beam="2">  1       -1 0.46914344E-01 0.10865935E+04</pdfrwt>
<totfact> 0.72404093E+01</totfact>
</mgrwt>
</event>
<event>
12    1  0.1472088E-007  0.1676773E+04  0.7818608E-02  0.8774724E-01
          2   -1    0    0  501    0  0.00000000000E+00  0.00000000000E+00  0.70077703263E+03  0.70077703263E+03  0.00000000000E+00 0. -1.
         -2   -1    0    0    0  501 -0.00000000000E+00 -0.00000000000E+00 -0.10030173543E+04  0.10030173543E+04  0.00000000000E+00 0.  1.
         23    2    1    2    0    0 -0.74310120099E+02 -0.57574460160E+03 -0.23658899567E+03  0.63363543846E+03  0.92280419273E+02 0.  0.
        254    2    1    2    0    0  0.74310120099E+02  0.57574460160E+03 -0.65651325960E+02  0.10701589484E+04  0.89661933844E+03 0.  0.
        -24    2    4    4    0    0 -0.34883558197E+03  0.44722250907E+02  0.84689379251E+02  0.37041559464E+03  0.79681107050E+02 0.  0.
         24    2    4    4    0    0  0.42314570207E+03  0.53102235070E+03 -0.15034070521E+03  0.69974335379E+03  0.77468777001E+02 0.  0.
         13    1    3    3    0    0 -0.78672076045E+02 -0.49158652313E+03 -0.16945147005E+03  0.52589010827E+03  0.00000000000E+00 0. -1.
        -13    1    3    3    0    0  0.43619559464E+01 -0.84158078468E+02 -0.67137525628E+02  0.10774533019E+03  0.00000000000E+00 0.  1.
          2    1    6    6  502    0  0.61434099666E+02  0.39401576254E+02 -0.19141178854E+02  0.75452087718E+02  0.00000000000E+00 0. -1.
          3    1    5    5  503    0 -0.15563307779E+03  0.49669591682E+02  0.11554778564E+02  0.16377495580E+03  0.00000000000E+00 0. -1.
         -4    1    5    5    0  503 -0.19320250418E+03 -0.49473407751E+01  0.73134600687E+02  0.20664063884E+03  0.00000000000E+00 0.  1.
         -3    1    6    6    0  502  0.36171160240E+03  0.49162077444E+03 -0.13119952636E+03  0.62429126607E+03  0.00000000000E+00 0.  1.
<mgrwt>
<rscale>  0 0.16767725E+04</rscale>
<asrwt>0</asrwt>
<pdfrwt beam="1">  1        2 0.10781185E+00 0.16767725E+04</pdfrwt>
<pdfrwt beam="2">  1       -2 0.15431036E+00 0.16767725E+04</pdfrwt>
<totfact> 0.10829652E+01</totfact>
</mgrwt>
</event>
<event>
12    1  0.1472088E-007  0.2260388E+04  0.7818608E-02  0.8493705E-01
         -1   -1    0    0    0  501 -0.00000000000E+00  0.00000000000E+00  0.13496531934E+04  0.13496531934E+04  0.00000000000E+00 0.  1.
          1   -1    0    0  501    0  0.00000000000E+00 -0.00000000000E+00 -0.94641955274E+03  0.94641955274E+03  0.00000000000E+00 0. -1.
         23    2    1    2    0    0 -0.42000129683E+03 -0.45481905459E+03  0.90038039831E+03  0.10966378132E+04  0.93103007537E+02 0.  0.
        254    2    1    2    0    0  0.42000129683E+03  0.45481905459E+03 -0.49714675770E+03  0.11994349328E+04  0.89901490403E+03 0.  0.
        -24    2    4    4    0    0  0.37094677322E+03  0.28953010761E+03 -0.74673140141E+03  0.88604554949E+03  0.77715752251E+02 0.  0.
         24    2    4    4    0    0  0.49054523617E+02  0.16528894698E+03  0.24958464372E+03  0.31338938335E+03  0.78699612032E+02 0.  0.
         11    1    3    3    0    0 -0.50705237794E+02 -0.10098492061E+03  0.13421730911E+03  0.17545159274E+03  0.00000000000E+00 0. -1.
        -11    1    3    3    0    0 -0.36929605904E+03 -0.35383413399E+03  0.76616308920E+03  0.92118622051E+03  0.00000000000E+00 0.  1.
          2    1    6    6  502    0  0.38873814852E+02  0.14001833190E+03  0.14488171286E+03  0.20519994511E+03  0.00000000000E+00 0. -1.
          1    1    5    5  503    0  0.11003481480E+03  0.59884543957E+02 -0.25199427795E+03  0.28141594694E+03  0.00000000000E+00 0. -1.
         -2    1    5    5    0  503  0.26091195841E+03  0.22964556365E+03 -0.49473712346E+03  0.60462960255E+03  0.00000000000E+00 0.  1.
         -1    1    6    6    0  502  0.10180708764E+02  0.25270615081E+02  0.10470293085E+03  0.10818943824E+03  0.00000000000E+00 0.  1.
<mgrwt>
<rscale>  0 0.22603877E+04</rscale>
<asrwt>0</asrwt>
<pdfrwt beam="1">  1        1 0.14560301E+00 0.22603877E+04</pdfrwt>
<pdfrwt beam="2">  1       -1 0.20763895E+00 0.22603877E+04</pdfrwt>
<totfact> 0.20186043E+00</totfact>
</mgrwt>
</event>
<event>
12    1  0.1472088E-007  0.1596619E+04  0.7818608E-02  0.8822628E-01
         -2   -1    0    0    0  501 -0.00000000000E+00  0.00000000000E+00  0.25457224670E+03  0.25457224670E+03  0.00000000000E+00 0.  1.
          2   -1    0    0  501    0  0.00000000000E+00 -0.00000000000E+00 -0.25034083459E+04  0.25034083459E+04  0.00000000000E+00 0. -1.
         23    2    1    2    0    0 -0.39993051951E+03  0.13116402102E+03 -0.18614940006E+03  0.46904684891E+03  0.90581049259E+02 0.  0.
        254    2    1    2    0    0  0.39993051951E+03 -0.13116402102E+03 -0.20626866991E+04  0.22889337437E+04  0.89855041224E+03 0.  0.
        -24    2    4    4    0    0  0.54098896290E+02 -0.47174273713E+03 -0.12439151560E+04  0.13338916171E+04  0.80461358651E+02 0.  0.
         24    2    4    4    0    0  0.34583162322E+03  0.34057871611E+03 -0.81877154316E+03  0.95504212661E+03  0.78263977766E+02 0.  0.
         13    1    3    3    0    0 -0.29854999711E+03  0.91500768802E+02 -0.17905764743E+03  0.35995295883E+03  0.00000000000E+00 0. -1.
        -13    1    3    3    0    0 -0.10138052240E+03  0.39663252218E+02 -0.70917526361E+01  0.10909389009E+03  0.00000000000E+00 0.  1.
          2    1    6    6  502    0  0.30928093904E+03  0.32897266025E+03 -0.73024090338E+03  0.85856245399E+03  0.00000000000E+00 0. -1.
          3    1    5    5  503    0  0.71459785178E+02 -0.35073555698E+03 -0.88087811492E+03  0.95082500239E+03  0.00000000000E+00 0. -1.
         -4    1    5    5    0  503 -0.17360888888E+02 -0.12100718015E+03 -0.36303704103E+03  0.38306661466E+03  0.00000000000E+00 0.  1.
         -1    1    6    6    0  502  0.36550684178E+02  0.11606055863E+02 -0.88530639786E+02  0.96479672613E+02  0.00000000000E+00 0.  1.
<mgrwt>
<rscale>  0 0.15966193E+04</rscale>
<asrwt>0</asrwt>
<pdfrwt beam="1">  1        2 0.38513975E+00 0.15966193E+04</pdfrwt>
<pdfrwt beam="2">  1       -2 0.39164961E-01 0.15966193E+04</pdfrwt>
<totfact> 0.20531594E+01</totfact>
</mgrwt>
</event>
<event>
12    1  0.1472088E-007  0.2287329E+04  0.7818608E-02  0.8482934E-01
         -1   -1    0    0    0  501 -0.00000000000E+00  0.00000000000E+00  0.10020051019E+04  0.10020051019E+04  0.00000000000E+00 0.  1.
          1   -1    0    0  501    0  0.00000000000E+00 -0.00000000000E+00 -0.13053511232E+04  0.13053511232E+04  0.00000000000E+00 0. -1.
         23    2    1    2    0    0 -0.86445973446E+03  0.24547537592E+03 -0.49638727716E+03  0.10307159434E+04  0.91794522194E+02 0.  0.
        254    2    1    2    0    0  0.86445973446E+03 -0.24547537592E+03  0.19304125582E+03  0.12766402818E+04  0.88600038933E+03 0.  0.
        -24    2    4    4    0    0  0.82061757365E+03  0.43703866732E+02 -0.12709321600E+03  0.83529530428E+03  0.79008415011E+02 0.  0.
         24    2    4    4    0    0  0.43842160809E+02 -0.28917924265E+03  0.32013447182E+03  0.44134497749E+03  0.82173838063E+02 0.  0.
         11    1    3    3    0    0 -0.22960807057E+03  0.70603915911E+02 -0.87817011431E+02  0.25576670328E+03  0.00000000000E+00 0. -1.
        -11    1    3    3    0    0 -0.63485166389E+03  0.17487146001E+03 -0.40857026573E+03  0.77494924009E+03  0.00000000000E+00 0.  1.
          2    1    6    6  502    0  0.17060350345E+02 -0.60920394703E+01  0.30392943170E+02  0.35382191754E+02  0.00000000000E+00 0. -1.
          3    1    5    5  503    0  0.18842887621E+03 -0.18601531874E+02 -0.12200098397E+02  0.18973745223E+03  0.00000000000E+00 0. -1.
         -4    1    5    5    0  503  0.63218869744E+03  0.62305398605E+02 -0.11489311761E+03  0.64555785205E+03  0.00000000000E+00 0.  1.
         -1    1    6    6    0  502  0.26781810464E+02 -0.28308720318E+03  0.28974152865E+03  0.40596278574E+03  0.00000000000E+00 0.  1.
<mgrwt>
<rscale>  0 0.22873290E+04</rscale>
<asrwt>0</asrwt>
<pdfrwt beam="1">  1        1 0.20082325E+00 0.22873290E+04</pdfrwt>
<pdfrwt beam="2">  1       -1 0.15415463E+00 0.22873290E+04</pdfrwt>
<totfact> 0.26284262E+00</totfact>
</mgrwt>
</event>
<event>
12    1  0.1472088E-007  0.1437974E+04  0.7818608E-02  0.8926781E-01
          1   -1    0    0  501    0  0.00000000000E+00  0.00000000000E+00  0.22101640341E+04  0.22101640341E+04  0.00000000000E+00 0. -1.
         -1   -1    0    0    0  501 -0.00000000000E+00 -0.00000000000E+00 -0.23389311518E+03  0.23389311518E+03  0.00000000000E+00 0.  1.
         23    2    1    2    0    0  0.35039146098E+03 -0.23059497892E+03  0.43145784380E+03  0.60809218738E+03  0.87590051613E+02 0.  0.
        254    2    1    2    0    0 -0.35039146098E+03  0.23059497892E+03  0.15448130751E+04  0.18359649619E+04  0.89909492493E+03 0.  0.
        -24    2    4    4    0    0 -0.46448912864E+03 -0.22014031452E+03  0.81173632457E+03  0.96426257978E+03  0.81697940177E+02 0.  0.
         24    2    4    4    0    0  0.11409766766E+03  0.45073529344E+03  0.73307675054E+03  0.87170238211E+03  0.79264987735E+02 0.  0.
         11    1    3    3    0    0  0.24917604838E+03 -0.15053899390E+03  0.35099747203E+03  0.45601525977E+03  0.00000000000E+00 0.  1.
        -11    1    3    3    0    0  0.10121541260E+03 -0.80055985020E+02  0.80460371769E+02  0.15207692761E+03  0.00000000000E+00 0. -1.
          2    1    6    6  502    0  0.10890694868E+03  0.27550502300E+03  0.45166719632E+03  0.54015460509E+03  0.00000000000E+00 0. -1.
          3    1    5    5  503    0 -0.43979807916E+03 -0.18820116360E+03  0.72512636175E+03  0.86870608892E+03  0.00000000000E+00 0. -1.
         -4    1    5    5    0  503 -0.24691049477E+02 -0.31939150927E+02  0.86609962813E+02  0.95556490856E+02  0.00000000000E+00 0.  1.
         -1    1    6    6    0  502  0.51907189806E+01  0.17523027043E+03  0.28140955422E+03  0.33154777701E+03  0.00000000000E+00 0.  1.
<mgrwt>
<rscale>  0 0.14379738E+04</rscale>
<asrwt>0</asrwt>
<pdfrwt beam="1">  1        1 0.34002522E+00 0.14379738E+04</pdfrwt>
<pdfrwt beam="2">  1       -1 0.35983558E-01 0.14379738E+04</pdfrwt>
<totfact> 0.15412057E+01</totfact>
</mgrwt>
</event>
<event>
12    1  0.1472088E-007  0.2652664E+04  0.7818608E-02  0.8350529E-01
          2   -1    0    0  501    0  0.00000000000E+00  0.00000000000E+00  0.11137021479E+04  0.11137021479E+04  0.00000000000E+00 0. -1.
         -2   -1    0    0    0  501 -0.00000000000E+00 -0.00000000000E+00 -0.15795576537E+04  0.15795576537E+04  0.00000000000E+00 0.  1.
         23    2    1    2    0    0  0.10746318886E+04 -0.41301180823E+03 -0.43134054517E+03  0.12326139622E+04  0.88713381861E+02 0.  0.
        254    2    1    2    0    0 -0.10746318886E+04  0.41301180823E+03 -0.34514960568E+02  0.14606458394E+04  0.89826640592E+03 0.  0.
        -24    2    4    4    0    0 -0.10720322829E+04  0.38848492327E+02  0.17983565710E+01  0.10763964863E+04  0.88677735375E+02 0.  0.
         24    2    4    4    0    0 -0.25996056573E+01  0.37416331590E+03 -0.36313317139E+02  0.38424935307E+03  0.79523351371E+02 0.  0.
         11    1    3    3    0    0  0.62897898948E+03 -0.28132037832E+03 -0.28205405407E+03  0.74452012322E+03  0.00000000000E+00 0.  1.
        -11    1    3    3    0    0  0.44565289909E+03 -0.13169142991E+03 -0.14928649110E+03  0.48809383893E+03  0.00000000000E+00 0. -1.
          4    1    6    6  502    0 -0.26095676483E+02  0.21964839142E+03  0.94534501345E+01  0.22139504941E+03  0.00000000000E+00 0. -1.
          3    1    5    5  503    0 -0.77981574353E+03  0.31679148671E+02  0.40674398560E+02  0.78151811816E+03  0.00000000000E+00 0. -1.
         -4    1    5    5    0  503 -0.29221653939E+03  0.71693436561E+01 -0.38876041989E+02  0.29487836818E+03  0.00000000000E+00 0.  1.
         -3    1    6    6    0  502  0.23496070826E+02  0.15451492448E+03 -0.45766767274E+02  0.16285430366E+03  0.00000000000E+00 0.  1.
<mgrwt>
<rscale>  0 0.26526641E+04</rscale>
<asrwt>0</asrwt>
<pdfrwt beam="1">  1        2 0.17133879E+00 0.26526641E+04</pdfrwt>
<pdfrwt beam="2">  1       -2 0.24300887E+00 0.26526641E+04</pdfrwt>
<totfact> 0.13353760E+00</totfact>
</mgrwt>
</event>
<event>
12    1  0.1472088E-007  0.2010462E+04  0.7818608E-02  0.8601745E-01
          1   -1    0    0  501    0  0.00000000000E+00  0.00000000000E+00  0.11298411037E+04  0.11298411037E+04  0.00000000000E+00 0. -1.
         -1   -1    0    0    0  501 -0.00000000000E+00 -0.00000000000E+00 -0.89436433536E+03  0.89436433536E+03  0.00000000000E+00 0.  1.
         23    2    1    2    0    0 -0.65552074236E+02 -0.27505613444E+03 -0.65710872408E+03  0.72095637895E+03  0.89628530955E+02 0.  0.
        254    2    1    2    0    0  0.65552074236E+02  0.27505613444E+03  0.89258549246E+03  0.13032490602E+04  0.90652981193E+03 0.  0.
        -24    2    4    4    0    0 -0.23998921138E+03  0.31990342299E+03  0.59353702682E+02  0.41114977390E+03  0.74754618148E+02 0.  0.
         24    2    4    4    0    0  0.30554128562E+03 -0.44847288548E+02  0.83323178978E+03  0.89209928626E+03  0.78734773298E+02 0.  0.
         13    1    3    3    0    0 -0.82638511662E+02 -0.19523346145E+03 -0.51736923035E+03  0.55912087118E+03  0.00000000000E+00 0.  1.
        -13    1    3    3    0    0  0.17086437426E+02 -0.79822672994E+02 -0.13973949373E+03  0.16183550778E+03  0.00000000000E+00 0. -1.
          2    1    6    6  502    0  0.10038445414E+03 -0.49550777955E+02  0.25346560215E+03  0.27708686309E+03  0.00000000000E+00 0. -1.
          1    1    5    5  503    0 -0.13815099905E+03  0.24166786346E+03  0.37499676366E+02  0.28088303704E+03  0.00000000000E+00 0. -1.
         -2    1    5    5    0  503 -0.10183821234E+03  0.78235559530E+02  0.21854026316E+02  0.13026673686E+03  0.00000000000E+00 0.  1.
         -1    1    6    6    0  502  0.20515683149E+03  0.47034894072E+01  0.57976618764E+03  0.61501242316E+03  0.00000000000E+00 0.  1.
<mgrwt>
<rscale>  0 0.20104622E+04</rscale>
<asrwt>0</asrwt>
<pdfrwt beam="1">  1        1 0.17382171E+00 0.20104622E+04</pdfrwt>
<pdfrwt beam="2">  1       -1 0.13759451E+00 0.20104622E+04</pdfrwt>
<totfact> 0.48948265E+00</totfact>
</mgrwt>
</event>
<event>
12    1  0.1472088E-007  0.2632956E+04  0.7818608E-02  0.8357092E-01
          2   -1    0    0  501    0  0.00000000000E+00  0.00000000000E+00  0.35036618379E+04  0.35036618379E+04  0.00000000000E+00 0.  1.
         -2   -1    0    0    0  501 -0.00000000000E+00 -0.00000000000E+00 -0.49465794345E+03  0.49465794345E+03  0.00000000000E+00 0. -1.
         23    2    1    2    0    0  0.98994134380E+03  0.61230210495E+03  0.12272803655E+04  0.16941377918E+04  0.94805223417E+02 0.  0.
        254    2    1    2    0    0 -0.98994134380E+03 -0.61230210495E+03  0.17817235289E+04  0.23041819895E+04  0.88307314256E+03 0.  0.
        -24    2    4    4    0    0 -0.11237600423E+04 -0.40098079800E+03  0.15162602207E+04  0.19310794789E+04  0.80004149157E+02 0.  0.
         24    2    4    4    0    0  0.13381869845E+03 -0.21132130695E+03  0.26546330824E+03  0.37310251060E+03  0.78553017568E+02 0.  0.
         13    1    3    3    0    0  0.73380378298E+03  0.46775167146E+03  0.85812053556E+03  0.12221417559E+04  0.00000000000E+00 0. -1.
        -13    1    3    3    0    0  0.25613756082E+03  0.14455043349E+03  0.36915982991E+03  0.47199603590E+03  0.00000000000E+00 0.  1.
          4    1    6    6  502    0  0.12235169755E+03 -0.21596814569E+03  0.26035173887E+03  0.35971545113E+03  0.00000000000E+00 0. -1.
          3    1    5    5  503    0 -0.10503641344E+04 -0.37073446886E+03  0.14443575048E+04  0.18239729886E+04  0.00000000000E+00 0. -1.
         -4    1    5    5    0  503 -0.73395907826E+02 -0.30246329138E+02  0.71902715848E+02  0.10710649027E+03  0.00000000000E+00 0.  1.
         -1    1    6    6    0  502  0.11467000904E+02  0.46468387393E+01  0.51115693688E+01  0.13387059476E+02  0.00000000000E+00 0.  1.
<mgrwt>
<rscale>  0 0.26329559E+04</rscale>
<asrwt>0</asrwt>
<pdfrwt beam="1">  1        2 0.53902488E+00 0.26329559E+04</pdfrwt>
<pdfrwt beam="2">  1       -2 0.76101224E-01 0.26329559E+04</pdfrwt>
<totfact> 0.11027440E+00</totfact>
</mgrwt>
</event>
<event>
12    1  0.1472088E-007  0.2555223E+04  0.7818608E-02  0.8383572E-01
          1   -1    0    0  501    0  0.00000000000E+00  0.00000000000E+00  0.16803981167E+04  0.16803981167E+04  0.00000000000E+00 0. -1.
         -1   -1    0    0    0  501 -0.00000000000E+00 -0.00000000000E+00 -0.97137185570E+03  0.97137185570E+03  0.00000000000E+00 0.  1.
         23    2    1    2    0    0 -0.41186429925E+03  0.97540283863E+03  0.67882847179E+03  0.12606926560E+04  0.86573554110E+02 0.  0.
        254    2    1    2    0    0  0.41186429925E+03 -0.97540283863E+03  0.30197789209E+02  0.13910773164E+04  0.90174347516E+03 0.  0.
        -24    2    4    4    0    0  0.44980467641E+03 -0.60425089770E+02 -0.70969422903E+02  0.46620675526E+03  0.79603022998E+02 0.  0.
         24    2    4    4    0    0 -0.37940377157E+02 -0.91497774886E+03  0.10116721211E+03  0.92487056109E+03  0.80789831272E+02 0.  0.
         13    1    3    3    0    0 -0.42410110384E+01 -0.24749340126E+00  0.61622730329E+01  0.74847202048E+01  0.00000000000E+00 0.  1.
        -13    1    3    3    0    0 -0.40762328822E+03  0.97565033203E+03  0.67266619876E+03  0.12532079358E+04  0.00000000000E+00 0. -1.
          4    1    6    6  502    0 -0.54133886797E+02 -0.65407879301E+03  0.96937497109E+02  0.66343531977E+03  0.00000000000E+00 0. -1.
          3    1    5    5  503    0  0.34289964367E+03 -0.35819191653E+02 -0.20279318995E+02  0.34536130486E+03  0.00000000000E+00 0. -1.
         -4    1    5    5    0  503  0.10690503274E+03 -0.24605898117E+02 -0.50690103908E+02  0.12084545040E+03  0.00000000000E+00 0.  1.
         -3    1    6    6    0  502  0.16193509640E+02 -0.26089895584E+03  0.42297150031E+01  0.26143524132E+03  0.00000000000E+00 0.  1.
<mgrwt>
<rscale>  0 0.25552232E+04</rscale>
<asrwt>0</asrwt>
<pdfrwt beam="1">  1        1 0.25852279E+00 0.25552232E+04</pdfrwt>
<pdfrwt beam="2">  1       -1 0.14944182E+00 0.25552232E+04</pdfrwt>
<totfact> 0.15316050E+00</totfact>
</mgrwt>
</event>
<event>
12    1  0.1472088E-007  0.1333993E+04  0.7818608E-02  0.9003034E-01
         -1   -1    0    0    0  501 -0.00000000000E+00  0.00000000000E+00  0.96353346254E+03  0.96353346254E+03  0.00000000000E+00 0.  1.
          1   -1    0    0  501    0  0.00000000000E+00 -0.00000000000E+00 -0.46172183013E+03  0.46172183013E+03  0.00000000000E+00 0. -1.
         23    2    1    2    0    0 -0.23628452828E+03 -0.22085143537E+03 -0.13080525181E+02  0.33618162174E+03  0.90781318812E+02 0.  0.
        254    2    1    2    0    0  0.23628452828E+03  0.22085143537E+03  0.51489215758E+03  0.10890736709E+04  0.90352741628E+03 0.  0.
        -24    2    4    4    0    0  0.31617704355E+03 -0.19061044958E+03  0.54328289276E+03  0.66175756143E+03  0.80414564524E+02 0.  0.
         24    2    4    4    0    0 -0.79892515271E+02  0.41146188495E+03 -0.28390735171E+02  0.42731610950E+03  0.78162182868E+02 0.  0.
         13    1    3    3    0    0 -0.90326309166E+02 -0.46071501982E+02  0.27094116659E+02  0.10495483114E+03  0.00000000000E+00 0.  1.
        -13    1    3    3    0    0 -0.14595821911E+03 -0.17477993339E+03 -0.40174641840E+02  0.23122679060E+03  0.00000000000E+00 0. -1.
          4    1    6    6  502    0 -0.14846060673E+02  0.24877290566E+03  0.34317048348E+01  0.24923912354E+03  0.00000000000E+00 0. -1.
          1    1    5    5  503    0  0.15024255864E+03 -0.13616482106E+03  0.30778277642E+03  0.36857010511E+03  0.00000000000E+00 0. -1.
         -2    1    5    5    0  503  0.16593448491E+03 -0.54445628524E+02  0.23550011634E+03  0.29318745632E+03  0.00000000000E+00 0.  1.
         -3    1    6    6    0  502 -0.65046454599E+02  0.16268897930E+03 -0.31822440005E+02  0.17807698596E+03  0.00000000000E+00 0.  1.
<mgrwt>
<rscale>  0 0.13339932E+04</rscale>
<asrwt>0</asrwt>
<pdfrwt beam="1">  1        1 0.71034128E-01 0.13339932E+04</pdfrwt>
<pdfrwt beam="2">  1       -1 0.14823592E+00 0.13339932E+04</pdfrwt>
<totfact> 0.17455231E+01</totfact>
</mgrwt>
</event>
<event>
12    1  0.1472088E-007  0.2858942E+04  0.7818608E-02  0.8285199E-01
         -2   -1    0    0    0  501 -0.00000000000E+00  0.00000000000E+00  0.87232657177E+03  0.87232657177E+03  0.00000000000E+00 0.  1.
          2   -1    0    0  501    0  0.00000000000E+00 -0.00000000000E+00 -0.23424564177E+04  0.23424564177E+04  0.00000000000E+00 0. -1.
         23    2    1    2    0    0  0.59631177304E+03 -0.32169994592E+03  0.56648200854E+03  0.88776799496E+03  0.90285995658E+02 0.  0.
        254    2    1    2    0    0 -0.59631177304E+03  0.32169994592E+03 -0.20366118545E+04  0.23270149945E+04  0.89896181957E+03 0.  0.
        -24    2    4    4    0    0  0.48123177333E+00  0.48015235274E+03 -0.10938599797E+04  0.11973780945E+04  0.81474736372E+02 0.  0.
         24    2    4    4    0    0 -0.59679300482E+03 -0.15845240682E+03 -0.94275187476E+03  0.11296369000E+04  0.77649034610E+02 0.  0.
         13    1    3    3    0    0  0.45394926373E+03 -0.22362728084E+03  0.46537880038E+03  0.68750019827E+03  0.00000000000E+00 0.  1.
        -13    1    3    3    0    0  0.14236250931E+03 -0.98072665079E+02  0.10110320816E+03  0.20026779670E+03  0.00000000000E+00 0. -1.
          4    1    6    6  502    0 -0.41148940093E+03 -0.12459219204E+03 -0.59407103162E+03  0.73332607481E+03  0.00000000000E+00 0. -1.
          3    1    5    5  503    0  0.65279550271E+01  0.33842559460E+03 -0.67437685373E+03  0.75455857170E+03  0.00000000000E+00 0. -1.
         -4    1    5    5    0  503 -0.60467232538E+01  0.14172675814E+03 -0.41948312597E+03  0.44281952284E+03  0.00000000000E+00 0.  1.
         -3    1    6    6    0  502 -0.18530360389E+03 -0.33860214784E+02 -0.34868084314E+03  0.39631082515E+03  0.00000000000E+00 0.  1.
<mgrwt>
<rscale>  0 0.28589417E+04</rscale>
<asrwt>0</asrwt>
<pdfrwt beam="1">  1        2 0.36037791E+00 0.28589417E+04</pdfrwt>
<pdfrwt beam="2">  1       -2 0.13420409E+00 0.28589417E+04</pdfrwt>
<totfact> 0.14871843E+00</totfact>
</mgrwt>
</event>
<event>
12    1  0.1472088E-007  0.1416150E+04  0.7818608E-02  0.8942211E-01
         -1   -1    0    0    0  501 -0.00000000000E+00  0.00000000000E+00  0.44912858042E+03  0.44912858042E+03  0.00000000000E+00 0.  1.
          1   -1    0    0  501    0  0.00000000000E+00 -0.00000000000E+00 -0.11163174517E+04  0.11163174517E+04  0.00000000000E+00 0. -1.
         23    2    1    2    0    0  0.11730840470E+03  0.38174598152E+03 -0.38815450039E+02  0.41180421100E+03  0.92654264956E+02 0.  0.
        254    2    1    2    0    0 -0.11730840470E+03 -0.38174598152E+03 -0.62837342126E+03  0.11536418212E+04  0.88121792920E+03 0.  0.
        -24    2    4    4    0    0 -0.41299353899E+03 -0.40427651501E+03 -0.61271297090E+03  0.84609657811E+03  0.80368345408E+02 0.  0.
         24    2    4    4    0    0  0.29568513429E+03  0.22530533492E+02 -0.15660450362E+02  0.30754524304E+03  0.80009394645E+02 0.  0.
         13    1    3    3    0    0  0.63510343359E+02  0.13898690929E+03  0.25618110606E+02  0.15494260957E+03  0.00000000000E+00 0. -1.
        -13    1    3    3    0    0  0.53798061337E+02  0.24275907223E+03 -0.64433560645E+02  0.25686160143E+03  0.00000000000E+00 0.  1.
          4    1    6    6  502    0  0.73062398869E+02 -0.12540853074E+01  0.30095234525E+02  0.79027906460E+02  0.00000000000E+00 0. -1.
          1    1    5    5  503    0 -0.10975424305E+03 -0.15684779456E+03 -0.22069699276E+03  0.29215473151E+03  0.00000000000E+00 0. -1.
         -2    1    5    5    0  503 -0.30323929594E+03 -0.24742872045E+03 -0.39201597814E+03  0.55394184660E+03  0.00000000000E+00 0.  1.
         -3    1    6    6    0  502  0.22262273542E+03  0.23784618800E+02 -0.45755684887E+02  0.22851733658E+03  0.00000000000E+00 0.  1.
<mgrwt>
<rscale>  0 0.14161498E+04</rscale>
<asrwt>0</asrwt>
<pdfrwt beam="1">  1        1 0.17174115E+00 0.14161498E+04</pdfrwt>
<pdfrwt beam="2">  1       -1 0.69096704E-01 0.14161498E+04</pdfrwt>
<totfact> 0.25436598E+01</totfact>
</mgrwt>
</event>
<event>
12    1  0.1472088E-007  0.2094318E+04  0.7818608E-02  0.8563751E-01
         -2   -1    0    0    0  501 -0.00000000000E+00  0.00000000000E+00  0.88599594750E+03  0.88599594750E+03  0.00000000000E+00 0. -1.
          2   -1    0    0  501    0  0.00000000000E+00 -0.00000000000E+00 -0.12376372063E+04  0.12376372063E+04  0.00000000000E+00 0.  1.
         23    2    1    2    0    0  0.45259762779E+03 -0.71145214222E+03 -0.38695832147E+02  0.84900583651E+03  0.91130563827E+02 0.  0.
        254    2    1    2    0    0 -0.45259762779E+03  0.71145214222E+03 -0.31294542663E+03  0.12746273173E+04  0.90317838467E+03 0.  0.
        -24    2    4    4    0    0  0.13750280650E+03  0.61061499980E+03 -0.17368165017E+03  0.65465144428E+03  0.81519924711E+02 0.  0.
         24    2    4    4    0    0 -0.59010043429E+03  0.10083714242E+03 -0.13926377646E+03  0.61997587299E+03  0.81172851430E+02 0.  0.
         13    1    3    3    0    0  0.36565104927E+03 -0.62438597881E+03 -0.15176448093E+02  0.72373259215E+03  0.00000000000E+00 0. -1.
        -13    1    3    3    0    0  0.86946578520E+02 -0.87066163410E+02 -0.23519384055E+02  0.12527324436E+03  0.00000000000E+00 0.  1.
          4    1    6    6  502    0 -0.63697071416E+02  0.10426135013E+01 -0.39586760667E+02  0.75003437055E+02  0.00000000000E+00 0. -1.
          1    1    5    5  503    0  0.11789569608E+02  0.63539224198E+01 -0.80025123177E+01  0.15601489834E+02  0.00000000000E+00 0. -1.
         -2    1    5    5    0  503  0.12571323690E+03  0.60426107738E+03 -0.16567913785E+03  0.63904995445E+03  0.00000000000E+00 0.  1.
         -3    1    6    6    0  502 -0.52640336287E+03  0.99794528922E+02 -0.99677015798E+02  0.54497243593E+03  0.00000000000E+00 0.  1.
<mgrwt>
<rscale>  0 0.20943176E+04</rscale>
<asrwt>0</asrwt>
<pdfrwt beam="1">  1        2 0.19040572E+00 0.20943176E+04</pdfrwt>
<pdfrwt beam="2">  1       -2 0.13630707E+00 0.20943176E+04</pdfrwt>
<totfact> 0.63842657E+00</totfact>
</mgrwt>
</event>
<event>
12    1  0.1472088E-007  0.1495119E+04  0.7818608E-02  0.8887706E-01
          2   -1    0    0  501    0  0.00000000000E+00  0.00000000000E+00  0.32704883774E+04  0.32704883774E+04  0.00000000000E+00 0. -1.
         -2   -1    0    0    0  501 -0.00000000000E+00 -0.00000000000E+00 -0.17087504533E+03  0.17087504533E+03  0.00000000000E+00 0.  1.
         23    2    1    2    0    0 -0.12237907536E+03  0.22897264482E+03  0.19185336669E+04  0.19382147472E+04  0.92194711637E+02 0.  0.
        254    2    1    2    0    0  0.12237907536E+03 -0.22897264482E+03  0.11810796651E+04  0.15031486755E+04  0.89280549688E+03 0.  0.
        -24    2    4    4    0    0 -0.52657119826E+02  0.27131233066E+03  0.11428044090E+03  0.30930659406E+03  0.78913857600E+02 0.  0.
         24    2    4    4    0    0  0.17503619519E+03 -0.50028497548E+03  0.10667992242E+04  0.11938420815E+04  0.79218712476E+02 0.  0.
         13    1    3    3    0    0 -0.54541941022E+02  0.94162756870E+02  0.11405010520E+04  0.11456806264E+04  0.00000000000E+00 0.  1.
        -13    1    3    3    0    0 -0.67837134340E+02  0.13480988795E+03  0.77803261499E+03  0.79253412082E+03  0.00000000000E+00 0. -1.
          4    1    6    6  502    0  0.12298825576E+03 -0.41997669803E+03  0.82688960403E+03  0.93554954716E+03  0.00000000000E+00 0. -1.
          1    1    5    5  503    0 -0.19404560901E+02  0.23768265159E+03  0.10729772733E+03  0.26150025266E+03  0.00000000000E+00 0. -1.
         -2    1    5    5    0  503 -0.33252558925E+02  0.33629679063E+02  0.69827135702E+01  0.47806341396E+02  0.00000000000E+00 0.  1.
         -3    1    6    6    0  502  0.52047939433E+02 -0.80308277446E+02  0.23990962018E+03  0.25829253431E+03  0.00000000000E+00 0.  1.
<mgrwt>
<rscale>  0 0.14951185E+04</rscale>
<asrwt>0</asrwt>
<pdfrwt beam="1">  1        2 0.50315201E+00 0.14951185E+04</pdfrwt>
<pdfrwt beam="2">  1       -2 0.26288471E-01 0.14951185E+04</pdfrwt>
<totfact> 0.14906072E+01</totfact>
</mgrwt>
</event>
<event>
12    1  0.1472088E-007  0.1217602E+04  0.7818608E-02  0.9097588E-01
          1   -1    0    0  501    0  0.00000000000E+00  0.00000000000E+00  0.18169997884E+03  0.18169997884E+03  0.00000000000E+00 0. -1.
         -1   -1    0    0    0  501 -0.00000000000E+00 -0.00000000000E+00 -0.20398387937E+04  0.20398387937E+04  0.00000000000E+00 0.  1.
         23    2    1    2    0    0  0.99995450641E+02  0.23552306955E+03 -0.29974212969E+03  0.40437037644E+03  0.90553026424E+02 0.  0.
        254    2    1    2    0    0 -0.99995450641E+02 -0.23552306955E+03 -0.15583966851E+04  0.18171683961E+04  0.89890519241E+03 0.  0.
        -24    2    4    4    0    0 -0.26904339318E+03 -0.33055171119E+03 -0.15459181907E+04  0.16056189984E+04  0.80625892569E+02 0.  0.
         24    2    4    4    0    0  0.16904794254E+03  0.95028641634E+02 -0.12478494446E+02  0.21154939765E+03  0.83604935362E+02 0.  0.
         13    1    3    3    0    0  0.41264371581E+00  0.13930316089E+01 -0.42620118913E+02  0.42644874816E+02  0.00000000000E+00 0. -1.
        -13    1    3    3    0    0  0.99582806926E+02  0.23413003794E+03 -0.25712201078E+03  0.36172550163E+03  0.00000000000E+00 0.  1.
          4    1    6    6  502    0  0.11057358903E+03  0.16528586480E+02  0.58837348452E+01  0.11195682694E+03  0.00000000000E+00 0. -1.
          1    1    5    5  503    0 -0.12396037219E+03 -0.92444453722E+02 -0.52320691220E+03  0.54558008017E+03  0.00000000000E+00 0. -1.
         -2    1    5    5    0  503 -0.14508302099E+03 -0.23810725746E+03 -0.10227112785E+04  0.10600389182E+04  0.00000000000E+00 0.  1.
         -3    1    6    6    0  502  0.58474353505E+02  0.78500055154E+02 -0.18362229291E+02  0.99592570714E+02  0.00000000000E+00 0.  1.
<mgrwt>
<rscale>  0 0.12176020E+04</rscale>
<asrwt>0</asrwt>
<pdfrwt beam="1">  1        1 0.27953845E-01 0.12176020E+04</pdfrwt>
<pdfrwt beam="2">  1       -1 0.31382133E+00 0.12176020E+04</pdfrwt>
<totfact> 0.45109139E+00</totfact>
</mgrwt>
</event>
<event>
12    1  0.1472088E-007  0.1652828E+04  0.7818608E-02  0.8788735E-01
         -2   -1    0    0    0  501 -0.00000000000E+00  0.00000000000E+00  0.35677070282E+03  0.35677070282E+03  0.00000000000E+00 0.  1.
          2   -1    0    0  501    0  0.00000000000E+00 -0.00000000000E+00 -0.19142832144E+04  0.19142832144E+04  0.00000000000E+00 0. -1.
         23    2    1    2    0    0 -0.19088747207E+03 -0.53365558059E+03 -0.41247371945E+03  0.70685082201E+03  0.90979171480E+02 0.  0.
        254    2    1    2    0    0  0.19088747207E+03  0.53365558059E+03 -0.11450387921E+04  0.15642030952E+04  0.90243624810E+03 0.  0.
        -24    2    4    4    0    0 -0.11696191547E+03  0.21964628669E+03  0.70039547203E+02  0.26942190292E+03  0.75881767728E+02 0.  0.
         24    2    4    4    0    0  0.30784938754E+03  0.31400929391E+03 -0.12150783393E+04  0.12947811923E+04  0.81669352508E+02 0.  0.
         11    1    3    3    0    0 -0.14860826210E+03 -0.40722088496E+03 -0.26510487547E+03  0.50812779861E+03  0.00000000000E+00 0. -1.
        -11    1    3    3    0    0 -0.42279209965E+02 -0.12643469563E+03 -0.14736884398E+03  0.19872302340E+03  0.00000000000E+00 0.  1.
          4    1    6    6  502    0  0.30407409362E+03  0.28100255214E+03 -0.11266359904E+04  0.12003050210E+04  0.00000000000E+00 0. -1.
          1    1    5    5  503    0 -0.95782233692E+02  0.17935285809E+03  0.86575216850E+02  0.22099084182E+03  0.00000000000E+00 0. -1.
         -2    1    5    5    0  503 -0.21179681781E+02  0.40293428597E+02 -0.16535669646E+02  0.48431061098E+02  0.00000000000E+00 0.  1.
         -3    1    6    6    0  502  0.37752939170E+01  0.33006741770E+02 -0.88442348914E+02  0.94476171217E+02  0.00000000000E+00 0.  1.
<mgrwt>
<rscale>  0 0.16528281E+04</rscale>
<asrwt>0</asrwt>
<pdfrwt beam="1">  1        2 0.29450511E+00 0.16528281E+04</pdfrwt>
<pdfrwt beam="2">  1       -2 0.54887801E-01 0.16528281E+04</pdfrwt>
<totfact> 0.22233594E+01</totfact>
</mgrwt>
</event>
<event>
12    1  0.1472088E-007  0.1156806E+04  0.7818608E-02  0.9151528E-01
         -2   -1    0    0    0  501 -0.00000000000E+00  0.00000000000E+00  0.26759055434E+03  0.26759055434E+03  0.00000000000E+00 0.  1.
          2   -1    0    0  501    0  0.00000000000E+00 -0.00000000000E+00 -0.12502302734E+04  0.12502302734E+04  0.00000000000E+00 0. -1.
         23    2    1    2    0    0 -0.13338354081E+03  0.12984186795E+03 -0.29024420703E+02  0.21007439858E+03  0.92944910073E+02 0.  0.
        254    2    1    2    0    0  0.13338354081E+03 -0.12984186795E+03 -0.95361529834E+03  0.13077464291E+04  0.87531051979E+03 0.  0.
        -24    2    4    4    0    0 -0.12559645475E+03 -0.95445679116E+02 -0.10127767296E+04  0.10280632679E+04  0.79454589117E+02 0.  0.
         24    2    4    4    0    0  0.25897999557E+03 -0.34396188837E+02  0.59161431244E+02  0.27968316122E+03  0.80429222386E+02 0.  0.
         11    1    3    3    0    0 -0.28483355922E+02 -0.51103494216E+01  0.16335855546E+02  0.33230669752E+02  0.00000000000E+00 0. -1.
        -11    1    3    3    0    0 -0.10490018489E+03  0.13495221737E+03 -0.45360276249E+02  0.17684372883E+03  0.00000000000E+00 0.  1.
          4    1    6    6  502    0  0.25487840621E+03 -0.38545225223E+02  0.70229065740E+02  0.26717196338E+03  0.00000000000E+00 0. -1.
          1    1    5    5  503    0 -0.13333310777E+03 -0.83151433345E+02 -0.83235193883E+03  0.84705467862E+03  0.00000000000E+00 0. -1.
         -2    1    5    5    0  503  0.77366530172E+01 -0.12294245770E+02 -0.18042479075E+03  0.18100858929E+03  0.00000000000E+00 0.  1.
         -3    1    6    6    0  502  0.41015893572E+01  0.41490363868E+01 -0.11067634496E+02  0.12511197845E+02  0.00000000000E+00 0.  1.
<mgrwt>
<rscale>  0 0.11568056E+04</rscale>
<asrwt>0</asrwt>
<pdfrwt beam="1">  1        2 0.19234312E+00 0.11568056E+04</pdfrwt>
<pdfrwt beam="2">  1       -2 0.41167777E-01 0.11568056E+04</pdfrwt>
<totfact> 0.97718744E+01</totfact>
</mgrwt>
</event>
<event>
12    1  0.1472088E-007  0.1798291E+04  0.7818608E-02  0.8707209E-01
          2   -1    0    0  501    0  0.00000000000E+00  0.00000000000E+00  0.88022319982E+03  0.88022319982E+03  0.00000000000E+00 0.  1.
         -2   -1    0    0    0  501 -0.00000000000E+00 -0.00000000000E+00 -0.91847454830E+03  0.91847454830E+03  0.00000000000E+00 0. -1.
         23    2    1    2    0    0  0.19477499268E+03  0.59599449521E+03 -0.25298366997E+03  0.68208906036E+03  0.89988959878E+02 0.  0.
        254    2    1    2    0    0 -0.19477499268E+03 -0.59599449521E+03  0.21473232149E+03  0.11166086878E+04  0.89864245147E+03 0.  0.
        -24    2    4    4    0    0 -0.16980890131E+03  0.15260423448E+03  0.26771558890E+03  0.36152427477E+03  0.83096626658E+02 0.  0.
         24    2    4    4    0    0 -0.24966091372E+02 -0.74859872969E+03 -0.52983267412E+02  0.75508441299E+03  0.79510252748E+02 0.  0.
         13    1    3    3    0    0  0.12819572415E+03  0.49210206546E+03 -0.18448350173E+03  0.54095540383E+03  0.00000000000E+00 0. -1.
        -13    1    3    3    0    0  0.66579268530E+02  0.10389242975E+03 -0.68500168247E+02  0.14113365653E+03  0.00000000000E+00 0.  1.
          2    1    6    6  502    0 -0.72843183764E+01 -0.69663485977E+03 -0.35898557530E+02  0.69759723020E+03  0.00000000000E+00 0. -1.
          3    1    5    5  503    0 -0.69085009389E+02  0.10715247189E+03  0.17927744041E+03  0.21998816194E+03  0.00000000000E+00 0. -1.
         -4    1    5    5    0  503 -0.10072389192E+03  0.45451762595E+02  0.88438148487E+02  0.14153611283E+03  0.00000000000E+00 0.  1.
         -1    1    6    6    0  502 -0.17681772995E+02 -0.51963869921E+02 -0.17084709882E+02  0.57487182790E+02  0.00000000000E+00 0.  1.
<mgrwt>
<rscale>  0 0.17982910E+04</rscale>
<asrwt>0</asrwt>
<pdfrwt beam="1">  1        2 0.13541895E+00 0.17982910E+04</pdfrwt>
<pdfrwt beam="2">  1       -2 0.14130378E+00 0.17982910E+04</pdfrwt>
<totfact> 0.10010282E+01</totfact>
</mgrwt>
</event>
<event>
12    1  0.1472088E-007  0.1389141E+04  0.7818608E-02  0.8961716E-01
         -1   -1    0    0    0  501 -0.00000000000E+00  0.00000000000E+00  0.36100932885E+03  0.36100932885E+03  0.00000000000E+00 0.  1.
          1   -1    0    0  501    0  0.00000000000E+00 -0.00000000000E+00 -0.13363323383E+04  0.13363323383E+04  0.00000000000E+00 0. -1.
         23    2    1    2    0    0 -0.15859745822E+03 -0.21282223630E+03 -0.63769941406E+03  0.69654138253E+03  0.89793634921E+02 0.  0.
        254    2    1    2    0    0  0.15859745822E+03  0.21282223630E+03 -0.33762359534E+03  0.10008002846E+04  0.90397182448E+03 0.  0.
        -24    2    4    4    0    0  0.20488747659E+03  0.54664930465E+03 -0.26985356262E+03  0.64809807041E+03  0.80036387178E+02 0.  0.
         24    2    4    4    0    0 -0.46290018372E+02 -0.33382706836E+03 -0.67770032718E+02  0.35270221416E+03  0.78884708090E+02 0.  0.
         13    1    3    3    0    0 -0.48234250826E+02 -0.78725571957E+02 -0.12623606816E+03  0.15639630282E+03  0.00000000000E+00 0. -1.
        -13    1    3    3    0    0 -0.11036320739E+03 -0.13409666434E+03 -0.51146334590E+03  0.54014507971E+03  0.00000000000E+00 0.  1.
          2    1    6    6  502    0  0.15702806897E+02 -0.35285725747E+02  0.57663371571E+01  0.39050111782E+02  0.00000000000E+00 0. -1.
          1    1    5    5  503    0  0.33001486187E+01  0.80401648156E+02 -0.48900808143E+02  0.94162652066E+02  0.00000000000E+00 0. -1.
         -2    1    5    5    0  503  0.20158732797E+03  0.46624765650E+03 -0.22095275448E+03  0.55393541835E+03  0.00000000000E+00 0.  1.
         -1    1    6    6    0  502 -0.61992825269E+02 -0.29854134261E+03 -0.73536369875E+02  0.31365210238E+03  0.00000000000E+00 0.  1.
<mgrwt>
<rscale>  0 0.13891414E+04</rscale>
<asrwt>0</asrwt>
<pdfrwt beam="1">  1        1 0.20558959E+00 0.13891414E+04</pdfrwt>
<pdfrwt beam="2">  1       -1 0.55539897E-01 0.13891414E+04</pdfrwt>
<totfact> 0.27259280E+01</totfact>
</mgrwt>
</event>
<event>
12    1  0.1472088E-007  0.1425375E+04  0.7818608E-02  0.8935653E-01
          1   -1    0    0  501    0  0.00000000000E+00  0.00000000000E+00  0.30128231202E+03  0.30128231202E+03  0.00000000000E+00 0. -1.
         -1   -1    0    0    0  501 -0.00000000000E+00 -0.00000000000E+00 -0.16858710586E+04  0.16858710586E+04  0.00000000000E+00 0.  1.
         23    2    1    2    0    0 -0.37580050160E+03  0.41681932525E+02 -0.64705461892E+03  0.75499298096E+03  0.91494922997E+02 0.  0.
        254    2    1    2    0    0  0.37580050160E+03 -0.41681932525E+02 -0.73753412761E+03  0.12321603896E+04  0.91175612739E+03 0.  0.
        -24    2    4    4    0    0  0.13993420616E+03  0.42579089764E+03 -0.30419401232E+03  0.54761700269E+03  0.80441991119E+02 0.  0.
         24    2    4    4    0    0  0.23586629544E+03 -0.46747283017E+03 -0.43334011529E+03  0.68454338692E+03  0.81561245666E+02 0.  0.
         11    1    3    3    0    0 -0.12326440124E+03 -0.25922424501E+02 -0.17899112221E+03  0.21886961081E+03  0.00000000000E+00 0. -1.
        -11    1    3    3    0    0 -0.25253610037E+03  0.67604357026E+02 -0.46806349671E+03  0.53612337016E+03  0.00000000000E+00 0.  1.
          2    1    6    6  502    0  0.11222718468E+03 -0.16455480361E+03 -0.20312464345E+03  0.28448698590E+03  0.00000000000E+00 0. -1.
          3    1    5    5  503    0  0.29447041911E+02  0.23330676799E+02 -0.18745549343E+02  0.41986240334E+02  0.00000000000E+00 0. -1.
         -4    1    5    5    0  503  0.11048716425E+03  0.40246022084E+03 -0.28544846298E+03  0.50563076236E+03  0.00000000000E+00 0.  1.
         -1    1    6    6    0  502  0.12363911076E+03 -0.30291802656E+03 -0.23021547184E+03  0.40005640102E+03  0.00000000000E+00 0.  1.
<mgrwt>
<rscale>  0 0.14253745E+04</rscale>
<asrwt>0</asrwt>
<pdfrwt beam="1">  1        1 0.46351126E-01 0.14253745E+04</pdfrwt>
<pdfrwt beam="2">  1       -1 0.25936477E+00 0.14253745E+04</pdfrwt>
<totfact> 0.51458831E+00</totfact>
</mgrwt>
</event>
<event>
12    1  0.1472088E-007  0.2212110E+04  0.7818608E-02  0.8513405E-01
         -2   -1    0    0    0  501 -0.00000000000E+00  0.00000000000E+00  0.22185517160E+04  0.22185517160E+04  0.00000000000E+00 0.  1.
          2   -1    0    0  501    0  0.00000000000E+00 -0.00000000000E+00 -0.55142152891E+03  0.55142152891E+03  0.00000000000E+00 0. -1.
         23    2    1    2    0    0 -0.62767438061E+03 -0.43468141555E+03  0.51109813038E+02  0.77108614347E+03  0.95071376104E+02 0.  0.
        254    2    1    2    0    0  0.62767438061E+03  0.43468141555E+03  0.16160203740E+04  0.19988871014E+04  0.89504454294E+03 0.  0.
        -24    2    4    4    0    0 -0.44731878631E+01  0.15401371331E+03  0.11454621599E+04  0.11585052016E+04  0.79438713171E+02 0.  0.
         24    2    4    4    0    0  0.63214756847E+03  0.28066770225E+03  0.47055821410E+03  0.84038189976E+03  0.80198486161E+02 0.  0.
         11    1    3    3    0    0 -0.21714537116E+03 -0.14462956530E+03  0.62564337563E+02  0.26829856449E+03  0.00000000000E+00 0.  1.
        -11    1    3    3    0    0 -0.41052900945E+03 -0.29005185026E+03 -0.11454524525E+02  0.50278757897E+03  0.00000000000E+00 0. -1.
          4    1    6    6  502    0  0.45887863703E+03  0.18442038731E+03  0.29666371018E+03  0.57670602538E+03  0.00000000000E+00 0. -1.
          3    1    5    5  503    0 -0.12721399239E+02  0.15305015411E+03  0.90788960634E+03  0.92078755475E+03  0.00000000000E+00 0. -1.
         -4    1    5    5    0  503  0.82482113763E+01  0.96355920027E+00  0.23757255357E+03  0.23771764690E+03  0.00000000000E+00 0.  1.
         -3    1    6    6    0  502  0.17326893145E+03  0.96247314938E+02  0.17389450392E+03  0.26367587438E+03  0.00000000000E+00 0.  1.
<mgrwt>
<rscale>  0 0.22121096E+04</rscale>
<asrwt>0</asrwt>
<pdfrwt beam="1">  1        2 0.84834083E-01 0.22121096E+04</pdfrwt>
<pdfrwt beam="2">  1       -2 0.34131564E+00 0.22121096E+04</pdfrwt>
<totfact> 0.88527802E-01</totfact>
</mgrwt>
</event>
<event>
12    1  0.1472088E-007  0.1258888E+04  0.7818608E-02  0.9062818E-01
         -1   -1    0    0    0  501 -0.00000000000E+00  0.00000000000E+00  0.60671628578E+03  0.60671628578E+03  0.00000000000E+00 0.  1.
          1   -1    0    0  501    0  0.00000000000E+00 -0.00000000000E+00 -0.65302341522E+03  0.65302341522E+03  0.00000000000E+00 0. -1.
         23    2    1    2    0    0 -0.20331215550E+03 -0.21064154349E+03 -0.94176827176E+00  0.30584792246E+03  0.88523286900E+02 0.  0.
        254    2    1    2    0    0  0.20331215550E+03  0.21064154349E+03 -0.45365361172E+02  0.95389177854E+03  0.90672256879E+03 0.  0.
        -24    2    4    4    0    0  0.36752797574E+03  0.36732655132E+03 -0.29827901623E+03  0.60465784519E+03  0.81456307132E+02 0.  0.
         24    2    4    4    0    0 -0.16421582024E+03 -0.15668500783E+03  0.25291365506E+03  0.34923393335E+03  0.80510843967E+02 0.  0.
         13    1    3    3    0    0 -0.19621787706E+03 -0.21167318688E+03 -0.16101822709E+02  0.28907829738E+03  0.00000000000E+00 0. -1.
        -13    1    3    3    0    0 -0.70942784434E+01  0.10316433867E+01  0.15160054437E+02  0.16769625077E+02  0.00000000000E+00 0.  1.
          4    1    6    6  502    0  0.92508430818E+01 -0.94513045574E+01  0.11940000462E+02  0.17817656035E+02  0.00000000000E+00 0. -1.
          1    1    5    5  503    0  0.75794392160E+02  0.12691727101E+03 -0.89480950891E+02  0.17279937539E+03  0.00000000000E+00 0. -1.
         -2    1    5    5    0  503  0.29173358358E+03  0.24040928031E+03 -0.20879806534E+03  0.43185846980E+03  0.00000000000E+00 0.  1.
         -3    1    6    6    0  502 -0.17346666332E+03 -0.14723370327E+03  0.24097365460E+03  0.33141627732E+03  0.00000000000E+00 0.  1.
<mgrwt>
<rscale>  0 0.12588883E+04</rscale>
<asrwt>0</asrwt>
<pdfrwt beam="1">  1        1 0.10046514E+00 0.12588883E+04</pdfrwt>
<pdfrwt beam="2">  1       -1 0.93340968E-01 0.12588883E+04</pdfrwt>
<totfact> 0.33222551E+01</totfact>
</mgrwt>
</event>
<event>
12    1  0.1472088E-007  0.1267556E+04  0.7818608E-02  0.9055697E-01
          2   -1    0    0  501    0  0.00000000000E+00  0.00000000000E+00  0.39929342138E+03  0.39929342138E+03  0.00000000000E+00 0. -1.
         -2   -1    0    0    0  501 -0.00000000000E+00 -0.00000000000E+00 -0.10059633394E+04  0.10059633394E+04  0.00000000000E+00 0.  1.
         23    2    1    2    0    0 -0.61135240617E+02 -0.22851410095E+03 -0.36733096750E+03  0.44123403118E+03  0.61637801820E+02 0.  0.
        254    2    1    2    0    0  0.61135240617E+02  0.22851410095E+03 -0.23933895056E+03  0.96402272964E+03  0.90338279706E+03 0.  0.
        -24    2    4    4    0    0  0.42868350410E+03  0.19443106174E+03 -0.32399745474E+03  0.57698163091E+03  0.79752537712E+02 0.  0.
         24    2    4    4    0    0 -0.36754826348E+03  0.34083039208E+02  0.84658504183E+02  0.38704109872E+03  0.79877219649E+02 0.  0.
         13    1    3    3    0    0 -0.90097552674E+01 -0.25898946926E+02 -0.88440456155E+02  0.92593981590E+02  0.00000000000E+00 0.  1.
        -13    1    3    3    0    0 -0.52125485350E+02 -0.20261515402E+03 -0.27889051134E+03  0.34864004959E+03  0.00000000000E+00 0. -1.
          2    1    6    6  502    0 -0.10299989250E+03  0.32488749942E+02  0.53902427817E+02  0.12070612434E+03  0.00000000000E+00 0. -1.
          1    1    5    5  503    0  0.31772996769E+03  0.12129355979E+03 -0.26701249871E+03  0.43238886952E+03  0.00000000000E+00 0. -1.
         -2    1    5    5    0  503  0.11095353641E+03  0.73137501948E+02 -0.56984956032E+02  0.14459276139E+03  0.00000000000E+00 0.  1.
         -1    1    6    6    0  502 -0.26454837098E+03  0.15942892659E+01  0.30756076367E+02  0.26633497438E+03  0.00000000000E+00 0.  1.
<mgrwt>
<rscale>  0 0.12675560E+04</rscale>
<asrwt>0</asrwt>
<pdfrwt beam="1">  1        2 0.61429758E-01 0.12675560E+04</pdfrwt>
<pdfrwt beam="2">  1       -2 0.15476359E+00 0.12675560E+04</pdfrwt>
<totfact> 0.21551637E+01</totfact>
</mgrwt>
</event>
<event>
12    1  0.1472088E-007  0.1224189E+04  0.7818608E-02  0.9091943E-01
          1   -1    0    0  501    0  0.00000000000E+00  0.00000000000E+00  0.14421194305E+04  0.14421194305E+04  0.00000000000E+00 0. -1.
         -1   -1    0    0    0  501 -0.00000000000E+00 -0.00000000000E+00 -0.25979799411E+03  0.25979799411E+03  0.00000000000E+00 0.  1.
         23    2    1    2    0    0 -0.48409181955E+02 -0.11150457300E+03  0.57835612547E+03  0.59804542242E+03  0.91574017682E+02 0.  0.
        254    2    1    2    0    0  0.48409181955E+02  0.11150457300E+03  0.60396531097E+03  0.11038720022E+04  0.91595992367E+03 0.  0.
        -24    2    4    4    0    0  0.27868694259E+03  0.33925580109E+03  0.62748002967E+03  0.76953137191E+03  0.75408448933E+02 0.  0.
         24    2    4    4    0    0 -0.23027776064E+03 -0.22775122809E+03 -0.23514718702E+02  0.33434063033E+03  0.79575411743E+02 0.  0.
         11    1    3    3    0    0 -0.51882730168E+02 -0.11014208165E+03  0.58090513717E+03  0.59352664156E+03  0.00000000000E+00 0. -1.
        -11    1    3    3    0    0  0.34735482129E+01 -0.13624913430E+01 -0.25490117045E+01  0.45187808662E+01  0.00000000000E+00 0.  1.
          4    1    6    6  502    0 -0.17866198585E+03 -0.20806686530E+03  0.13832382358E+00  0.27424796217E+03  0.00000000000E+00 0. -1.
          1    1    5    5  503    0  0.26924219771E+03  0.30398045116E+03  0.54792244579E+03  0.68199302219E+03  0.00000000000E+00 0. -1.
         -4    1    5    5    0  503  0.94447448847E+01  0.35275349929E+02  0.79557583881E+02  0.87538349718E+02  0.00000000000E+00 0.  1.
         -3    1    6    6    0  502 -0.51615774789E+02 -0.19684362789E+02 -0.23653042525E+02  0.60092668157E+02  0.00000000000E+00 0.  1.
<mgrwt>
<rscale>  0 0.12241891E+04</rscale>
<asrwt>0</asrwt>
<pdfrwt beam="1">  1        1 0.22186452E+00 0.12241891E+04</pdfrwt>
<pdfrwt beam="2">  1       -1 0.39968923E-01 0.12241891E+04</pdfrwt>
<totfact> 0.43244811E+01</totfact>
</mgrwt>
</event>
<event>
12    1  0.1472088E-007  0.1017122E+04  0.7818608E-02  0.9289962E-01
          2   -1    0    0  501    0  0.00000000000E+00  0.00000000000E+00  0.26028557221E+03  0.26028557221E+03  0.00000000000E+00 0.  1.
         -2   -1    0    0    0  501 -0.00000000000E+00 -0.00000000000E+00 -0.99365666822E+03  0.99365666822E+03  0.00000000000E+00 0. -1.
         23    2    1    2    0    0 -0.18021386994E+02  0.63583109437E+01  0.53992553565E+01  0.92330081588E+02  0.90169249195E+02 0.  0.
        254    2    1    2    0    0  0.18021386994E+02 -0.63583109437E+01 -0.73877035137E+03  0.11616121588E+04  0.89621201565E+03 0.  0.
        -24    2    4    4    0    0  0.28670634162E+03 -0.34521503439E+03 -0.40222762582E+03  0.60786579508E+03  0.79622958748E+02 0.  0.
         24    2    4    4    0    0 -0.26868495462E+03  0.33885672345E+03 -0.33654272555E+03  0.55374636376E+03  0.79740487767E+02 0.  0.
         11    1    3    3    0    0 -0.70026933515E+01 -0.39272065873E+02 -0.12932827478E+02  0.41935556497E+02  0.00000000000E+00 0. -1.
        -11    1    3    3    0    0 -0.11018693642E+02  0.45630376817E+02  0.18332082835E+02  0.50394525091E+02  0.00000000000E+00 0.  1.
          4    1    6    6  502    0 -0.79202493818E+02  0.60796837718E+02 -0.49401722121E+02  0.11139937456E+03  0.00000000000E+00 0. -1.
          1    1    5    5  503    0  0.40785516015E+02 -0.16819894142E+02 -0.54047429864E+02  0.69767412382E+02  0.00000000000E+00 0. -1.
         -2    1    5    5    0  503  0.24592082560E+03 -0.32839514025E+03 -0.34818019596E+03  0.53809838270E+03  0.00000000000E+00 0.  1.
         -3    1    6    6    0  502 -0.18948246080E+03  0.27805988573E+03 -0.28714100343E+03  0.44234698920E+03  0.00000000000E+00 0.  1.
<mgrwt>
<rscale>  0 0.10171224E+04</rscale>
<asrwt>0</asrwt>
<pdfrwt beam="1">  1        2 0.40043934E-01 0.10171224E+04</pdfrwt>
<pdfrwt beam="2">  1       -2 0.15287026E+00 0.10171224E+04</pdfrwt>
<totfact> 0.36522755E+01</totfact>
</mgrwt>
</event>
<event>
12    1  0.1472088E-007  0.1566792E+04  0.7818608E-02  0.8841213E-01
          2   -1    0    0  501    0  0.00000000000E+00  0.00000000000E+00  0.37097293749E+03  0.37097293749E+03  0.00000000000E+00 0. -1.
         -2   -1    0    0    0  501 -0.00000000000E+00 -0.00000000000E+00 -0.16543234744E+04  0.16543234744E+04  0.00000000000E+00 0.  1.
         23    2    1    2    0    0 -0.37027735164E+03 -0.36766680351E+03 -0.45837774531E+03  0.70021292569E+03  0.88903252879E+02 0.  0.
        254    2    1    2    0    0  0.37027735164E+03  0.36766680351E+03 -0.82497279159E+03  0.13250834862E+04  0.89609259730E+03 0.  0.
        -24    2    4    4    0    0 -0.14450512187E+03  0.38158781195E+03 -0.91145304306E+02  0.42525927315E+03  0.77762422967E+02 0.  0.
         24    2    4    4    0    0  0.51478247351E+03 -0.13921008436E+02 -0.73382748729E+03  0.89982421303E+03  0.77369527313E+02 0.  0.
         11    1    3    3    0    0 -0.22496014579E+03 -0.18340863143E+03 -0.29790787094E+03  0.41592654742E+03  0.00000000000E+00 0.  1.
        -11    1    3    3    0    0 -0.14531720585E+03 -0.18425817208E+03 -0.16046987437E+03  0.28428637827E+03  0.00000000000E+00 0. -1.
          2    1    6    6  502    0  0.26795121119E+02 -0.83316024010E+01 -0.17549780074E+02  0.33096659877E+02  0.00000000000E+00 0. -1.
          1    1    5    5  503    0 -0.61042435516E+02  0.10632115673E+03 -0.58280896753E+02  0.13574619784E+03  0.00000000000E+00 0. -1.
         -2    1    5    5    0  503 -0.83462686351E+02  0.27526665522E+03 -0.32864407553E+02  0.28951307530E+03  0.00000000000E+00 0.  1.
         -1    1    6    6    0  502  0.48798735239E+03 -0.55894060351E+01 -0.71627770721E+03  0.86672755316E+03  0.00000000000E+00 0.  1.
<mgrwt>
<rscale>  0 0.15667919E+04</rscale>
<asrwt>0</asrwt>
<pdfrwt beam="1">  1        2 0.57072761E-01 0.15667919E+04</pdfrwt>
<pdfrwt beam="2">  1       -2 0.25451130E+00 0.15667919E+04</pdfrwt>
<totfact> 0.50199315E+00</totfact>
</mgrwt>
</event>
<event>
12    1  0.1472088E-007  0.2146088E+04  0.7818608E-02  0.8541209E-01
         -2   -1    0    0    0  501 -0.00000000000E+00  0.00000000000E+00  0.77313592368E+03  0.77313592368E+03  0.00000000000E+00 0.  1.
          2   -1    0    0  501    0  0.00000000000E+00 -0.00000000000E+00 -0.14892893944E+04  0.14892893944E+04  0.00000000000E+00 0. -1.
         23    2    1    2    0    0  0.37529695475E+03 -0.19190661497E+03 -0.11102283590E+04  0.11902690186E+04  0.80357790591E+02 0.  0.
        254    2    1    2    0    0 -0.37529695475E+03  0.19190661497E+03  0.39407488826E+03  0.10721562994E+04  0.90363054385E+03 0.  0.
        -24    2    4    4    0    0 -0.47552989657E+02  0.32221380853E+03 -0.18980259431E+03  0.38550529611E+03  0.80661535363E+02 0.  0.
         24    2    4    4    0    0 -0.32774396509E+03 -0.13030719357E+03  0.58387748257E+03  0.68665100334E+03  0.78616883562E+02 0.  0.
         13    1    3    3    0    0  0.20224167005E+03 -0.13307234352E+03 -0.71364155710E+03  0.75358756209E+03  0.00000000000E+00 0.  1.
        -13    1    3    3    0    0  0.17305528470E+03 -0.58834271442E+02 -0.39658680189E+03  0.43668145655E+03  0.00000000000E+00 0. -1.
          4    1    6    6  502    0 -0.29382363697E+03 -0.12885990523E+03  0.55911368402E+03  0.64462804506E+03  0.00000000000E+00 0. -1.
          1    1    5    5  503    0 -0.48142787453E+02  0.25373559050E+03 -0.11100280647E+03  0.28110692079E+03  0.00000000000E+00 0. -1.
         -2    1    5    5    0  503  0.58979779574E+00  0.68478218030E+02 -0.78799787837E+02  0.10439837532E+03  0.00000000000E+00 0.  1.
         -3    1    6    6    0  502 -0.33920328128E+02 -0.14472883354E+01  0.24763798544E+02  0.42022958275E+02  0.00000000000E+00 0.  1.
<mgrwt>
<rscale>  0 0.21460877E+04</rscale>
<asrwt>0</asrwt>
<pdfrwt beam="1">  1        2 0.22912144E+00 0.21460877E+04</pdfrwt>
<pdfrwt beam="2">  1       -2 0.11894399E+00 0.21460877E+04</pdfrwt>
<totfact> 0.64156876E+00</totfact>
</mgrwt>
</event>
<event>
12    1  0.1472088E-007  0.1498492E+04  0.7818608E-02  0.8885456E-01
         -1   -1    0    0    0  501 -0.00000000000E+00  0.00000000000E+00  0.66613413257E+03  0.66613413257E+03  0.00000000000E+00 0.  1.
          1   -1    0    0  501    0  0.00000000000E+00 -0.00000000000E+00 -0.84272765079E+03  0.84272765079E+03  0.00000000000E+00 0. -1.
         23    2    1    2    0    0 -0.22760566900E+03  0.40118717622E+03  0.24880917240E+02  0.47079259228E+03  0.90945664967E+02 0.  0.
        254    2    1    2    0    0  0.22760566900E+03 -0.40118717622E+03 -0.20147443546E+03  0.10380691911E+04  0.90787675727E+03 0.  0.
        -24    2    4    4    0    0  0.94318473554E+02 -0.58931084754E+03 -0.40024292559E+03  0.72310743931E+03  0.80664241278E+02 0.  0.
         24    2    4    4    0    0  0.13328719544E+03  0.18812367131E+03  0.19876849013E+03  0.31496175177E+03  0.80845533172E+02 0.  0.
         13    1    3    3    0    0 -0.88456259032E+02  0.12264437973E+03  0.47783426211E+02  0.15858565339E+03  0.00000000000E+00 0. -1.
        -13    1    3    3    0    0 -0.13914940997E+03  0.27854279649E+03 -0.22902508971E+02  0.31220693889E+03  0.00000000000E+00 0.  1.
          4    1    6    6  502    0  0.89093201211E+02  0.58850489957E+02  0.73699533866E+02  0.12974051010E+03  0.00000000000E+00 0. -1.
          1    1    5    5  503    0  0.38459574854E+01 -0.30416186625E+02 -0.45891246571E+02  0.55190056257E+02  0.00000000000E+00 0. -1.
         -2    1    5    5    0  503  0.90472516069E+02 -0.55889466091E+03 -0.35435167902E+03  0.66791738305E+03  0.00000000000E+00 0.  1.
         -3    1    6    6    0  502  0.44193994233E+02  0.12927318135E+03  0.12506895626E+03  0.18522124167E+03  0.00000000000E+00 0.  1.
<mgrwt>
<rscale>  0 0.14984921E+04</rscale>
<asrwt>0</asrwt>
<pdfrwt beam="1">  1        1 0.12965041E+00 0.14984921E+04</pdfrwt>
<pdfrwt beam="2">  1       -1 0.10248217E+00 0.14984921E+04</pdfrwt>
<totfact> 0.17708774E+01</totfact>
</mgrwt>
</event>
<event>
12    1  0.1472088E-007  0.1491284E+04  0.7818608E-02  0.8890270E-01
          1   -1    0    0  501    0  0.00000000000E+00  0.00000000000E+00  0.48931319890E+03  0.48931319890E+03  0.00000000000E+00 0. -1.
         -1   -1    0    0    0  501 -0.00000000000E+00 -0.00000000000E+00 -0.11362493302E+04  0.11362493302E+04  0.00000000000E+00 0.  1.
         23    2    1    2    0    0 -0.15434714561E+03  0.26362491609E+03  0.18015784316E+03  0.36636320370E+03  0.91891298998E+02 0.  0.
        254    2    1    2    0    0  0.15434714561E+03 -0.26362491609E+03 -0.82709397444E+03  0.12591993254E+04  0.89898685237E+03 0.  0.
        -24    2    4    4    0    0  0.52627571826E+03 -0.14415137138E+03 -0.47507736936E+03  0.72799684658E+03  0.80840288599E+02 0.  0.
         24    2    4    4    0    0 -0.37192857265E+03 -0.11947354471E+03 -0.35201660508E+03  0.53120247879E+03  0.75203671367E+02 0.  0.
         13    1    3    3    0    0 -0.12503066989E+03  0.25625680069E+03  0.14462902535E+03  0.31971514084E+03  0.00000000000E+00 0. -1.
        -13    1    3    3    0    0 -0.29316475719E+02  0.73681154039E+01  0.35528817809E+02  0.46648062854E+02  0.00000000000E+00 0.  1.
          4    1    6    6  502    0 -0.17792441937E+03 -0.81318367477E+02 -0.21480584562E+03  0.29053627520E+03  0.00000000000E+00 0. -1.
          1    1    5    5  503    0  0.50790174920E+03 -0.14941092441E+03 -0.44147164308E+03  0.68933665419E+03  0.00000000000E+00 0. -1.
         -2    1    5    5    0  503  0.18373969061E+02  0.52595530267E+01 -0.33605726275E+02  0.38660192389E+02  0.00000000000E+00 0.  1.
         -3    1    6    6    0  502 -0.19400415328E+03 -0.38155177233E+02 -0.13721075946E+03  0.24066620359E+03  0.00000000000E+00 0.  1.
<mgrwt>
<rscale>  0 0.14912837E+04</rscale>
<asrwt>0</asrwt>
<pdfrwt beam="1">  1        1 0.75278954E-01 0.14912837E+04</pdfrwt>
<pdfrwt beam="2">  1       -1 0.17480759E+00 0.14912837E+04</pdfrwt>
<totfact> 0.10029626E+01</totfact>
</mgrwt>
</event>
<event>
12    1  0.1472088E-007  0.1756880E+04  0.7818608E-02  0.8729572E-01
         -1   -1    0    0    0  501 -0.00000000000E+00  0.00000000000E+00  0.29970286487E+03  0.29970286487E+03  0.00000000000E+00 0.  1.
          1   -1    0    0  501    0  0.00000000000E+00 -0.00000000000E+00 -0.25747405363E+04  0.25747405363E+04  0.00000000000E+00 0. -1.
         23    2    1    2    0    0 -0.32500598760E+03 -0.14833951147E+03  0.36288404031E+02  0.37086469672E+03  0.92683722243E+02 0.  0.
        254    2    1    2    0    0  0.32500598760E+03  0.14833951147E+03 -0.23113260755E+04  0.25035787045E+04  0.89333342019E+03 0.  0.
        -24    2    4    4    0    0  0.87573646282E+02 -0.19320526934E+02  0.46301840032E+02  0.12671168345E+03  0.76613080130E+02 0.  0.
         24    2    4    4    0    0  0.23743234132E+03  0.16766003840E+03 -0.23576279155E+04  0.23768670210E+04  0.81261568066E+02 0.  0.
         11    1    3    3    0    0 -0.70991843294E+02 -0.78942582866E+01 -0.22150461799E+02  0.74785052558E+02  0.00000000000E+00 0. -1.
        -11    1    3    3    0    0 -0.25401414431E+03 -0.14044525318E+03  0.58438865830E+02  0.29607964417E+03  0.00000000000E+00 0.  1.
          2    1    6    6  502    0  0.15259777139E+03  0.62928283236E+02 -0.11616792757E+04  0.11733476843E+04  0.00000000000E+00 0. -1.
          1    1    5    5  503    0  0.10167842539E+03 -0.18453374194E+02  0.44318383958E+02  0.11244175543E+03  0.00000000000E+00 0. -1.
         -2    1    5    5    0  503 -0.14104779105E+02 -0.86715274004E+00  0.19834560740E+01  0.14269928012E+02  0.00000000000E+00 0.  1.
         -1    1    6    6    0  502  0.84834569928E+02  0.10473175517E+03 -0.11959486398E+04  0.12035193367E+04  0.00000000000E+00 0.  1.
<mgrwt>
<rscale>  0 0.17568803E+04</rscale>
<asrwt>0</asrwt>
<pdfrwt beam="1">  1        1 0.39611395E+00 0.17568803E+04</pdfrwt>
<pdfrwt beam="2">  1       -1 0.46108131E-01 0.17568803E+04</pdfrwt>
<totfact> 0.53336239E+00</totfact>
</mgrwt>
</event>
<event>
12    1  0.1472088E-007  0.1763984E+04  0.7818608E-02  0.8725690E-01
          1   -1    0    0  501    0  0.00000000000E+00  0.00000000000E+00  0.56285078926E+03  0.56285078926E+03  0.00000000000E+00 0. -1.
         -1   -1    0    0    0  501 -0.00000000000E+00 -0.00000000000E+00 -0.13820888677E+04  0.13820888677E+04  0.00000000000E+00 0.  1.
         23    2    1    2    0    0 -0.46751755026E+03  0.32992089033E+03  0.26544586932E+02  0.57981657496E+03  0.89789708911E+02 0.  0.
        254    2    1    2    0    0  0.46751755026E+03 -0.32992089033E+03 -0.84578266541E+03  0.13651230820E+04  0.90597585967E+03 0.  0.
        -24    2    4    4    0    0  0.62793333831E+03 -0.74005818409E+02 -0.83839666040E+03  0.10530863930E+04  0.79403100473E+02 0.  0.
         24    2    4    4    0    0 -0.16041578805E+03 -0.25591507192E+03 -0.73860050179E+01  0.31203668907E+03  0.78016621067E+02 0.  0.
         13    1    3    3    0    0 -0.72289637904E+02  0.84072614336E+02 -0.17633590047E+02  0.11227172274E+03  0.00000000000E+00 0.  1.
        -13    1    3    3    0    0 -0.39522791236E+03  0.24584827600E+03  0.44178176979E+02  0.46754485222E+03  0.00000000000E+00 0. -1.
          4    1    6    6  502    0 -0.12710087723E+02 -0.54858806575E+02 -0.25670143208E+02  0.61886923022E+02  0.00000000000E+00 0. -1.
          3    1    5    5  503    0  0.20481810017E+03  0.13176938011E+02 -0.26960531816E+03  0.33883788665E+03  0.00000000000E+00 0. -1.
         -4    1    5    5    0  503  0.42311523814E+03 -0.87182756420E+02 -0.56879134224E+03  0.71424850631E+03  0.00000000000E+00 0.  1.
         -3    1    6    6    0  502 -0.14770570033E+03 -0.20105626535E+03  0.18284138190E+02  0.25014976605E+03  0.00000000000E+00 0.  1.
<mgrwt>
<rscale>  0 0.17639839E+04</rscale>
<asrwt>0</asrwt>
<pdfrwt beam="1">  1        1 0.86592430E-01 0.17639839E+04</pdfrwt>
<pdfrwt beam="2">  1       -1 0.21262905E+00 0.17639839E+04</pdfrwt>
<totfact> 0.43833159E+00</totfact>
</mgrwt>
</event>
<event>
12    1  0.1472088E-007  0.1206209E+04  0.7818608E-02  0.9107439E-01
          1   -1    0    0  501    0  0.00000000000E+00  0.00000000000E+00  0.27711105260E+04  0.27711105260E+04  0.00000000000E+00 0. -1.
         -1   -1    0    0    0  501 -0.00000000000E+00 -0.00000000000E+00 -0.13125968841E+03  0.13125968841E+03  0.00000000000E+00 0.  1.
         23    2    1    2    0    0  0.52571185323E+02 -0.16322996011E+03  0.19009074685E+03  0.27134414414E+03  0.89918869653E+02 0.  0.
        254    2    1    2    0    0 -0.52571185323E+02  0.16322996011E+03  0.24497600907E+04  0.26310260702E+04  0.94422769011E+03 0.  0.
        -24    2    4    4    0    0 -0.55983467805E+02  0.41534979831E+03  0.22728906502E+04  0.23126131264E+04  0.80609932692E+02 0.  0.
         24    2    4    4    0    0  0.34122824815E+01 -0.25211983820E+03  0.17686944053E+03  0.31841294379E+03  0.80795713365E+02 0.  0.
         11    1    3    3    0    0 -0.18157005567E+02 -0.48345707774E+02  0.88481435261E+02  0.10244973742E+03  0.00000000000E+00 0. -1.
        -11    1    3    3    0    0  0.70728190891E+02 -0.11488425234E+03  0.10160931159E+03  0.16889440673E+03  0.00000000000E+00 0.  1.
          2    1    6    6  502    0  0.30010355998E+02 -0.91899529253E+02  0.98730766971E+02  0.13818071244E+03  0.00000000000E+00 0. -1.
          1    1    5    5  503    0  0.13800671631E+02  0.19499492548E+03  0.10734674436E+04  0.10911213645E+04  0.00000000000E+00 0. -1.
         -2    1    5    5    0  503 -0.69784139436E+02  0.22035487283E+03  0.11994232065E+04  0.12214917619E+04  0.00000000000E+00 0.  1.
         -1    1    6    6    0  502 -0.26598073516E+02 -0.16022030894E+03  0.78138673555E+02  0.18023223135E+03  0.00000000000E+00 0.  1.
<mgrwt>
<rscale>  0 0.12062091E+04</rscale>
<asrwt>0</asrwt>
<pdfrwt beam="1">  1        1 0.42632465E+00 0.12062091E+04</pdfrwt>
<pdfrwt beam="2">  1       -1 0.20193800E-01 0.12062091E+04</pdfrwt>
<totfact> 0.17566260E+01</totfact>
</mgrwt>
</event>
<event>
12    1  0.1472088E-007  0.1722713E+04  0.7818608E-02  0.8748515E-01
          2   -1    0    0  501    0  0.00000000000E+00  0.00000000000E+00  0.16150213086E+04  0.16150213086E+04  0.00000000000E+00 0.  1.
         -2   -1    0    0    0  501 -0.00000000000E+00 -0.00000000000E+00 -0.45939633506E+03  0.45939633506E+03  0.00000000000E+00 0. -1.
         23    2    1    2    0    0  0.26109122773E+03  0.49956279118E+03  0.10734161473E+03  0.58111407264E+03  0.91868012089E+02 0.  0.
        254    2    1    2    0    0 -0.26109122773E+03 -0.49956279118E+03  0.10482833588E+04  0.14933035710E+04  0.90184585342E+03 0.  0.
        -24    2    4    4    0    0 -0.92283160166E+01 -0.78309073351E+02 -0.15463405763E+03  0.19172806805E+03  0.81427805535E+02 0.  0.
         24    2    4    4    0    0 -0.25186291171E+03 -0.42125371782E+03  0.12029174164E+04  0.13015755030E+04  0.78732827135E+02 0.  0.
         13    1    3    3    0    0  0.25815477894E+02  0.11235445831E+02 -0.16974307212E+01  0.28205591874E+02  0.00000000000E+00 0.  1.
        -13    1    3    3    0    0  0.23527574983E+03  0.48832734535E+03  0.10903904545E+03  0.55290848077E+03  0.00000000000E+00 0. -1.
          2    1    6    6  502    0 -0.15575914610E+03 -0.18383862186E+03  0.58300908246E+03  0.63083844264E+03  0.00000000000E+00 0. -1.
          3    1    5    5  503    0 -0.11106928345E+02  0.39880793800E+01  0.44463013735E+01  0.12611036052E+02  0.00000000000E+00 0. -1.
         -4    1    5    5    0  503  0.18786123281E+01 -0.82297152731E+02 -0.15908035900E+03  0.17911703200E+03  0.00000000000E+00 0.  1.
         -1    1    6    6    0  502 -0.96103765609E+02 -0.23741509596E+03  0.61990833396E+03  0.67073706031E+03  0.00000000000E+00 0.  1.
<mgrwt>
<rscale>  0 0.17227128E+04</rscale>
<asrwt>0</asrwt>
<pdfrwt beam="1">  1        2 0.24846481E+00 0.17227128E+04</pdfrwt>
<pdfrwt beam="2">  1       -2 0.70676360E-01 0.17227128E+04</pdfrwt>
<totfact> 0.18909569E+01</totfact>
</mgrwt>
</event>
<event>
12    1  0.1472088E-007  0.1201263E+04  0.7818608E-02  0.9111752E-01
         -1   -1    0    0    0  501 -0.00000000000E+00  0.00000000000E+00  0.39278349311E+03  0.39278349311E+03  0.00000000000E+00 0.  1.
          1   -1    0    0  501    0  0.00000000000E+00 -0.00000000000E+00 -0.91846565113E+03  0.91846565113E+03  0.00000000000E+00 0. -1.
         23    2    1    2    0    0  0.18131638916E+03 -0.84674302852E+02  0.45016315019E+02  0.22490088884E+03  0.92241913704E+02 0.  0.
        254    2    1    2    0    0 -0.18131638916E+03  0.84674302852E+02 -0.57069847305E+03  0.10863482554E+04  0.90244690388E+03 0.  0.
        -24    2    4    4    0    0 -0.13640111589E+03  0.41828240193E+03 -0.32871519404E+02  0.44788244189E+03  0.77153825498E+02 0.  0.
         24    2    4    4    0    0 -0.44915273267E+02 -0.33360809907E+03 -0.53782695364E+03  0.63846581351E+03  0.71197032314E+02 0.  0.
         13    1    3    3    0    0  0.10449981984E+02 -0.10837542687E+02  0.35453773394E+02  0.38517846550E+02  0.00000000000E+00 0. -1.
        -13    1    3    3    0    0  0.17086640717E+03 -0.73836760165E+02  0.95625416251E+01  0.18638304229E+03  0.00000000000E+00 0.  1.
          2    1    6    6  502    0 -0.11786833626E+02 -0.35117088076E+01 -0.18268742353E+02  0.22022908365E+02  0.00000000000E+00 0. -1.
          1    1    5    5  503    0 -0.29943151671E+02  0.47470140432E+02  0.17562066757E+02  0.58808441175E+02  0.00000000000E+00 0. -1.
         -2    1    5    5    0  503 -0.10645796422E+03  0.37081226149E+03 -0.50433586161E+02  0.38907400072E+03  0.00000000000E+00 0.  1.
         -1    1    6    6    0  502 -0.33128439641E+02 -0.33009639027E+03 -0.51955821129E+03  0.61644290514E+03  0.00000000000E+00 0.  1.
<mgrwt>
<rscale>  0 0.12012629E+04</rscale>
<asrwt>0</asrwt>
<pdfrwt beam="1">  1        1 0.14130241E+00 0.12012629E+04</pdfrwt>
<pdfrwt beam="2">  1       -1 0.60428230E-01 0.12012629E+04</pdfrwt>
<totfact> 0.48303008E+01</totfact>
</mgrwt>
</event>
<event>
12    1  0.1472088E-007  0.2125866E+04  0.7818608E-02  0.8549934E-01
          2   -1    0    0  501    0  0.00000000000E+00  0.00000000000E+00  0.20654873470E+04  0.20654873470E+04  0.00000000000E+00 0. -1.
         -2   -1    0    0    0  501 -0.00000000000E+00 -0.00000000000E+00 -0.54700260038E+03  0.54700260038E+03  0.00000000000E+00 0.  1.
         23    2    1    2    0    0  0.77692509169E+02  0.78670459353E+03  0.17875971127E+03  0.81553901699E+03  0.90601381908E+02 0.  0.
        254    2    1    2    0    0 -0.77692509169E+02 -0.78670459353E+03  0.13397250353E+04  0.17969509304E+04  0.89957169386E+03 0.  0.
        -24    2    4    4    0    0  0.14185978359E+03 -0.16776116196E+03 -0.66501641728E+02  0.24287997169E+03  0.79373840971E+02 0.  0.
         24    2    4    4    0    0 -0.21955229276E+03 -0.61894343156E+03  0.14062266771E+04  0.15540709587E+04  0.79805367016E+02 0.  0.
         13    1    3    3    0    0  0.55894396396E+01  0.50416371330E+02 -0.10728359757E+02  0.51847372514E+02  0.00000000000E+00 0. -1.
        -13    1    3    3    0    0  0.72103069529E+02  0.73628822220E+03  0.18948807102E+03  0.76369164448E+03  0.00000000000E+00 0.  1.
          2    1    6    6  502    0 -0.10270083606E+03 -0.26874070118E+03  0.52554317527E+03  0.59913659150E+03  0.00000000000E+00 0. -1.
          1    1    5    5  503    0 -0.45777276566E+01  0.49897123258E+01 -0.43210895854E+01  0.80327227511E+01  0.00000000000E+00 0. -1.
         -2    1    5    5    0  503  0.14643751125E+03 -0.17275087429E+03 -0.62180552143E+02  0.23484724894E+03  0.00000000000E+00 0.  1.
         -1    1    6    6    0  502 -0.11685145670E+03 -0.35020273038E+03  0.88068350179E+03  0.95493436718E+03  0.00000000000E+00 0.  1.
<mgrwt>
<rscale>  0 0.21258664E+04</rscale>
<asrwt>0</asrwt>
<pdfrwt beam="1">  1        2 0.31776728E+00 0.21258664E+04</pdfrwt>
<pdfrwt beam="2">  1       -2 0.84154247E-01 0.21258664E+04</pdfrwt>
<totfact> 0.69623564E+00</totfact>
</mgrwt>
</event>
<event>
12    1  0.1472088E-007  0.1158282E+04  0.7818608E-02  0.9150177E-01
         -1   -1    0    0    0  501 -0.00000000000E+00  0.00000000000E+00  0.58712295769E+03  0.58712295769E+03  0.00000000000E+00 0.  1.
          1   -1    0    0  501    0  0.00000000000E+00 -0.00000000000E+00 -0.57126742448E+03  0.57126742448E+03  0.00000000000E+00 0. -1.
         23    2    1    2    0    0 -0.13258525154E+03 -0.11474307436E+03 -0.47510205244E+02  0.20725167733E+03  0.99755782349E+02 0.  0.
        254    2    1    2    0    0  0.13258525154E+03  0.11474307436E+03  0.63365738450E+02  0.95113870484E+03  0.93268686975E+03 0.  0.
        -24    2    4    4    0    0  0.79013670765E+02 -0.31956316384E+02  0.48274283101E+03  0.49666731352E+03  0.79833659001E+02 0.  0.
         24    2    4    4    0    0  0.53571580775E+02  0.14669939075E+03 -0.41937709256E+03  0.45447139132E+03  0.79224202455E+02 0.  0.
         11    1    3    3    0    0 -0.14089922654E+03 -0.11304997996E+03 -0.61553085669E+02  0.19084462886E+03  0.00000000000E+00 0. -1.
        -11    1    3    3    0    0  0.83139749975E+01 -0.16930944038E+01  0.14042880424E+02  0.16407048471E+02  0.00000000000E+00 0.  1.
          4    1    6    6  502    0 -0.11670913137E+02 -0.21937009790E+01 -0.40195458667E+02  0.41912974541E+02  0.00000000000E+00 0. -1.
          3    1    5    5  503    0  0.24912692465E+02  0.26992572789E+02  0.15775858484E+03  0.16197843166E+03  0.00000000000E+00 0. -1.
         -4    1    5    5    0  503  0.54100978301E+02 -0.58948889174E+02  0.32498424617E+03  0.33468888187E+03  0.00000000000E+00 0.  1.
         -3    1    6    6    0  502  0.65242493912E+02  0.14889309173E+03 -0.37918163389E+03  0.41255841678E+03  0.00000000000E+00 0.  1.
<mgrwt>
<rscale>  0 0.11582819E+04</rscale>
<asrwt>0</asrwt>
<pdfrwt beam="1">  1        1 0.87887295E-01 0.11582819E+04</pdfrwt>
<pdfrwt beam="2">  1       -1 0.90326610E-01 0.11582819E+04</pdfrwt>
<totfact> 0.43741710E+01</totfact>
</mgrwt>
</event>
<event>
12    1  0.1472088E-007  0.1608802E+04  0.7818608E-02  0.8815159E-01
         -2   -1    0    0    0  501 -0.00000000000E+00  0.00000000000E+00  0.19195642106E+03  0.19195642106E+03  0.00000000000E+00 0.  1.
          2   -1    0    0  501    0  0.00000000000E+00 -0.00000000000E+00 -0.33708756516E+04  0.33708756516E+04  0.00000000000E+00 0. -1.
         23    2    1    2    0    0 -0.47856390983E+02 -0.13873206179E+03 -0.22582333794E+04  0.22648323815E+04  0.91164146357E+02 0.  0.
        254    2    1    2    0    0  0.47856390983E+02  0.13873206179E+03 -0.92068585116E+03  0.12979996911E+04  0.90310793514E+03 0.  0.
        -24    2    4    4    0    0  0.62714669169E+00  0.24850442001E+03 -0.10636702270E+04  0.10953291560E+04  0.81220490773E+02 0.  0.
         24    2    4    4    0    0  0.47229244292E+02 -0.10977235822E+03  0.14298437587E+03  0.20267053509E+03  0.79688405074E+02 0.  0.
         11    1    3    3    0    0 -0.72960228282E+01 -0.12690266394E+03 -0.14780164364E+04  0.14834723133E+04  0.00000000000E+00 0. -1.
        -11    1    3    3    0    0 -0.40560368155E+02 -0.11829397854E+02 -0.78021694295E+03  0.78136006821E+03  0.00000000000E+00 0.  1.
          4    1    6    6  502    0  0.45233207729E+02 -0.12078968023E+03  0.11606113724E+03  0.17351189443E+03  0.00000000000E+00 0. -1.
          3    1    5    5  503    0 -0.19919441810E+02  0.22079992596E+03 -0.82875502957E+03  0.85789526779E+03  0.00000000000E+00 0. -1.
         -4    1    5    5    0  503  0.20546588502E+02  0.27704494055E+02 -0.23491519746E+03  0.23743388825E+03  0.00000000000E+00 0.  1.
         -3    1    6    6    0  502  0.19960365624E+01  0.11017322013E+02  0.26923238635E+02  0.29158640655E+02  0.00000000000E+00 0.  1.
<mgrwt>
<rscale>  0 0.16088023E+04</rscale>
<asrwt>0</asrwt>
<pdfrwt beam="1">  1        2 0.51859622E+00 0.16088023E+04</pdfrwt>
<pdfrwt beam="2">  1       -2 0.29531759E-01 0.16088023E+04</pdfrwt>
<totfact> 0.10200151E+01</totfact>
</mgrwt>
</event>
<event>
12    1  0.1472088E-007  0.2289314E+04  0.7818608E-02  0.8482146E-01
         -2   -1    0    0    0  501 -0.00000000000E+00  0.00000000000E+00  0.79998695963E+03  0.79998695963E+03  0.00000000000E+00 0.  1.
          2   -1    0    0  501    0  0.00000000000E+00 -0.00000000000E+00 -0.16378261625E+04  0.16378261625E+04  0.00000000000E+00 0. -1.
         23    2    1    2    0    0  0.25980360857E+03 -0.90359749462E+03 -0.58874765248E+03  0.11131182628E+04  0.91772116269E+02 0.  0.
        254    2    1    2    0    0 -0.25980360857E+03  0.90359749462E+03 -0.24909155039E+03  0.13246948594E+04  0.89932392531E+03 0.  0.
        -24    2    4    4    0    0  0.41319072751E+02  0.33530148893E+03  0.31259231188E+03  0.46708187470E+03  0.79480626423E+02 0.  0.
         24    2    4    4    0    0 -0.30112268132E+03  0.56829600569E+03 -0.56168386227E+03  0.85761298465E+03  0.79850178668E+02 0.  0.
         11    1    3    3    0    0  0.12398671719E+03 -0.30262216446E+03 -0.17452359369E+03  0.37069038997E+03  0.00000000000E+00 0. -1.
        -11    1    3    3    0    0  0.13581689138E+03 -0.60097533016E+03 -0.41422405879E+03  0.74242787281E+03  0.00000000000E+00 0.  1.
          2    1    6    6  502    0 -0.28391704837E+03  0.56172367863E+03 -0.54139893192E+03  0.83021393928E+03  0.00000000000E+00 0. -1.
          1    1    5    5  503    0 -0.54639059582E+01  0.15716738473E+03  0.18611932313E+03  0.24366338160E+03  0.00000000000E+00 0. -1.
         -2    1    5    5    0  503  0.46782978709E+02  0.17813410420E+03  0.12647298875E+03  0.22341849310E+03  0.00000000000E+00 0.  1.
         -1    1    6    6    0  502 -0.17205632952E+02  0.65723270502E+01 -0.20284930350E+02  0.27399045375E+02  0.00000000000E+00 0.  1.
<mgrwt>
<rscale>  0 0.22893139E+04</rscale>
<asrwt>0</asrwt>
<pdfrwt beam="1">  1        2 0.25197325E+00 0.22893139E+04</pdfrwt>
<pdfrwt beam="2">  1       -2 0.12307492E+00 0.22893139E+04</pdfrwt>
<totfact> 0.48054291E+00</totfact>
</mgrwt>
</event>
<event>
12    1  0.1472088E-007  0.1939760E+04  0.7818608E-02  0.8635314E-01
          2   -1    0    0  501    0  0.00000000000E+00  0.00000000000E+00  0.14991412587E+04  0.14991412587E+04  0.00000000000E+00 0. -1.
         -2   -1    0    0    0  501 -0.00000000000E+00 -0.00000000000E+00 -0.62747077786E+03  0.62747077786E+03  0.00000000000E+00 0.  1.
         23    2    1    2    0    0 -0.69383397630E+01  0.26407636963E+03  0.11008859982E+04  0.11358531667E+04  0.91803953363E+02 0.  0.
        254    2    1    2    0    0  0.69383397630E+01 -0.26407636963E+03 -0.22921551734E+03  0.99075886982E+03  0.92697298515E+03 0.  0.
        -24    2    4    4    0    0 -0.38545200870E+03 -0.93517177183E+02 -0.35464893130E+03  0.53773819404E+03  0.77896003824E+02 0.  0.
         24    2    4    4    0    0  0.39239034847E+03 -0.17055919245E+03  0.12543341396E+03  0.45302067579E+03  0.80209523458E+02 0.  0.
         11    1    3    3    0    0  0.17854454146E+02  0.66625933522E+02  0.16138375602E+03  0.17550644791E+03  0.00000000000E+00 0.  1.
        -11    1    3    3    0    0 -0.24792793909E+02  0.19745043611E+03  0.93950224214E+03  0.96034671881E+03  0.00000000000E+00 0. -1.
          2    1    6    6  502    0  0.35637768323E+03 -0.17640374127E+03  0.12390731439E+03  0.41650492866E+03  0.00000000000E+00 0. -1.
          3    1    5    5  503    0 -0.32808879123E+03 -0.49642930000E+02 -0.29712878473E+03  0.44541238212E+03  0.00000000000E+00 0. -1.
         -4    1    5    5    0  503 -0.57363217474E+02 -0.43874247183E+02 -0.57520146566E+02  0.92325811916E+02  0.00000000000E+00 0.  1.
         -3    1    6    6    0  502  0.36012665234E+02  0.58445488225E+01  0.15260995753E+01  0.36515747125E+02  0.00000000000E+00 0.  1.
<mgrwt>
<rscale>  0 0.19397601E+04</rscale>
<asrwt>0</asrwt>
<pdfrwt beam="1">  1        2 0.23063712E+00 0.19397601E+04</pdfrwt>
<pdfrwt beam="2">  1       -2 0.96533966E-01 0.19397601E+04</pdfrwt>
<totfact> 0.10650886E+01</totfact>
</mgrwt>
</event>
<event>
12    1  0.1472088E-007  0.1321109E+04  0.7818608E-02  0.9012991E-01
         -1   -1    0    0    0  501 -0.00000000000E+00  0.00000000000E+00  0.40211755125E+03  0.40211755125E+03  0.00000000000E+00 0.  1.
          1   -1    0    0  501    0  0.00000000000E+00 -0.00000000000E+00 -0.10850862064E+04  0.10850862064E+04  0.00000000000E+00 0. -1.
         23    2    1    2    0    0 -0.15977996945E+03  0.20283799603E+03  0.71970165868E+02  0.28326359776E+03  0.91573302717E+02 0.  0.
        254    2    1    2    0    0  0.15977996945E+03 -0.20283799603E+03 -0.75493882098E+03  0.12039401598E+04  0.90159103467E+03 0.  0.
        -24    2    4    4    0    0  0.41570524060E+02  0.10897450775E+03  0.16747960056E+03  0.21988100134E+03  0.81821062922E+02 0.  0.
         24    2    4    4    0    0  0.11820944539E+03 -0.31181250377E+03 -0.92241842154E+03  0.98405915851E+03  0.79474351637E+02 0.  0.
         11    1    3    3    0    0 -0.76787204854E+02  0.39873520946E+02 -0.56294905827E+00  0.86524501810E+02  0.00000000000E+00 0. -1.
        -11    1    3    3    0    0 -0.82992764599E+02  0.16296447508E+03  0.72533114927E+02  0.19673909595E+03  0.00000000000E+00 0.  1.
          2    1    6    6  502    0  0.56233175191E+02 -0.23761374626E+03 -0.61118555869E+03  0.65815670593E+03  0.00000000000E+00 0. -1.
          3    1    5    5  503    0  0.38270660924E+02  0.12256606793E+03  0.15319146612E+03  0.19988674240E+03  0.00000000000E+00 0. -1.
         -2    1    5    5    0  503  0.32998631360E+01 -0.13591560181E+02  0.14288134436E+02  0.19994258939E+02  0.00000000000E+00 0.  1.
         -1    1    6    6    0  502  0.61976270201E+02 -0.74198757510E+02 -0.31123286284E+03  0.32590245258E+03  0.00000000000E+00 0.  1.
<mgrwt>
<rscale>  0 0.13211089E+04</rscale>
<asrwt>0</asrwt>
<pdfrwt beam="1">  1        1 0.16693634E+00 0.13211089E+04</pdfrwt>
<pdfrwt beam="2">  1       -1 0.61864239E-01 0.13211089E+04</pdfrwt>
<totfact> 0.33829199E+01</totfact>
</mgrwt>
</event>
<event>
12    1  0.1472088E-007  0.1123321E+04  0.7818608E-02  0.9182755E-01
         -2   -1    0    0    0  501 -0.00000000000E+00  0.00000000000E+00  0.22636234139E+03  0.22636234139E+03  0.00000000000E+00 0.  1.
          2   -1    0    0  501    0  0.00000000000E+00 -0.00000000000E+00 -0.13936180241E+04  0.13936180241E+04  0.00000000000E+00 0. -1.
         23    2    1    2    0    0 -0.12699140747E+01 -0.12678534401E+03 -0.50342529237E+03  0.52633225472E+03  0.86674570811E+02 0.  0.
        254    2    1    2    0    0  0.12699140747E+01  0.12678534401E+03 -0.66383039033E+03  0.10936481108E+04  0.85983676759E+03 0.  0.
        -24    2    4    4    0    0  0.42218562301E+03  0.39650907862E+02 -0.36019981281E+03  0.56153505389E+03  0.75926390858E+02 0.  0.
         24    2    4    4    0    0 -0.42091570893E+03  0.87134436149E+02 -0.30363057752E+03  0.53211305687E+03  0.78678673731E+02 0.  0.
         13    1    3    3    0    0  0.16804226757E+02 -0.79602434689E+02 -0.42722593255E+03  0.43490335374E+03  0.00000000000E+00 0. -1.
        -13    1    3    3    0    0 -0.18074140831E+02 -0.47182909322E+02 -0.76199359815E+02  0.91428900984E+02  0.00000000000E+00 0.  1.
          4    1    6    6  502    0 -0.18019042233E+03  0.57702036939E+02 -0.92668196883E+02  0.21067868445E+03  0.00000000000E+00 0. -1.
          1    1    5    5  503    0  0.86003960696E+02 -0.10783892990E+02 -0.43730284278E+02  0.97084042800E+02  0.00000000000E+00 0. -1.
         -2    1    5    5    0  503  0.33618166231E+03  0.50434800852E+02 -0.31646952853E+03  0.46445101109E+03  0.00000000000E+00 0.  1.
         -3    1    6    6    0  502 -0.24072528660E+03  0.29432399210E+02 -0.21096238064E+03  0.32143437243E+03  0.00000000000E+00 0.  1.
<mgrwt>
<rscale>  0 0.11233212E+04</rscale>
<asrwt>0</asrwt>
<pdfrwt beam="1">  1        2 0.21440278E+00 0.11233212E+04</pdfrwt>
<pdfrwt beam="2">  1       -2 0.34824975E-01 0.11233212E+04</pdfrwt>
<totfact> 0.11181697E+02</totfact>
</mgrwt>
</event>
<event>
12    1  0.1472088E-007  0.1326079E+04  0.7818608E-02  0.9009136E-01
         -1   -1    0    0    0  501 -0.00000000000E+00  0.00000000000E+00  0.26470336203E+03  0.26470336203E+03  0.00000000000E+00 0.  1.
          1   -1    0    0  501    0  0.00000000000E+00 -0.00000000000E+00 -0.16608069929E+04  0.16608069929E+04  0.00000000000E+00 0. -1.
         23    2    1    2    0    0  0.23008682268E+03 -0.16845199886E+03 -0.67683079444E+03  0.74006823688E+03  0.91022244763E+02 0.  0.
        254    2    1    2    0    0 -0.23008682268E+03  0.16845199886E+03 -0.71927283638E+03  0.11854421180E+04  0.89811111790E+03 0.  0.
        -24    2    4    4    0    0 -0.19505480682E+03 -0.22821184114E+03  0.50433927830E+02  0.31449756622E+03  0.78981744610E+02 0.  0.
         24    2    4    4    0    0 -0.35032015860E+02  0.39666384000E+03 -0.76970676421E+03  0.87094455178E+03  0.86755203379E+02 0.  0.
         11    1    3    3    0    0  0.19902371298E+03 -0.10788038510E+03 -0.57095460897E+03  0.61419685877E+03  0.00000000000E+00 0. -1.
        -11    1    3    3    0    0  0.31063109707E+02 -0.60571613756E+02 -0.10587618547E+03  0.12587137811E+03  0.00000000000E+00 0.  1.
          4    1    6    6  502    0 -0.41750111546E+02  0.24350136407E+03 -0.55104031854E+03  0.60388858143E+03  0.00000000000E+00 0. -1.
          1    1    5    5  503    0 -0.10229704832E+03 -0.16224934589E+03  0.47884448601E+01  0.19186574874E+03  0.00000000000E+00 0. -1.
         -2    1    5    5    0  503 -0.92757758507E+02 -0.65962495248E+02  0.45645482970E+02  0.12263181748E+03  0.00000000000E+00 0.  1.
         -3    1    6    6    0  502  0.67180956858E+01  0.15316247593E+03 -0.21866644566E+03  0.26705597035E+03  0.00000000000E+00 0.  1.
<mgrwt>
<rscale>  0 0.13260787E+04</rscale>
<asrwt>0</asrwt>
<pdfrwt beam="1">  1        1 0.25550877E+00 0.13260787E+04</pdfrwt>
<pdfrwt beam="2">  1       -1 0.40723593E-01 0.13260787E+04</pdfrwt>
<totfact> 0.29300021E+01</totfact>
</mgrwt>
</event>
<event>
12    1  0.1472088E-007  0.2333845E+04  0.7818608E-02  0.8464695E-01
          1   -1    0    0  501    0  0.00000000000E+00  0.00000000000E+00  0.11983908904E+04  0.11983908904E+04  0.00000000000E+00 0. -1.
         -1   -1    0    0    0  501 -0.00000000000E+00 -0.00000000000E+00 -0.11362800626E+04  0.11362800626E+04  0.00000000000E+00 0.  1.
         23    2    1    2    0    0 -0.32865789532E+03 -0.12766952105E+03 -0.90149359318E+03  0.97190576903E+03  0.87147039949E+02 0.  0.
        254    2    1    2    0    0  0.32865789532E+03  0.12766952105E+03  0.96360442101E+03  0.13627651840E+04  0.89681656310E+03 0.  0.
        -24    2    4    4    0    0  0.21454531688E+02  0.45327337580E+03  0.69738290566E+03  0.83572825988E+03  0.78624150981E+02 0.  0.
         24    2    4    4    0    0  0.30720336363E+03 -0.32560385475E+03  0.26622151535E+03  0.52703692415E+03  0.80636513611E+02 0.  0.
         13    1    3    3    0    0 -0.52205159124E+02 -0.50097386431E+02 -0.13104829783E+03  0.14969563498E+03  0.00000000000E+00 0. -1.
        -13    1    3    3    0    0 -0.27645273620E+03 -0.77572134621E+02 -0.77044529535E+03  0.82221013406E+03  0.00000000000E+00 0.  1.
          2    1    6    6  502    0  0.11612227136E+02 -0.26642956784E+02 -0.64654904897E+00  0.29070758348E+02  0.00000000000E+00 0. -1.
          1    1    5    5  503    0  0.51138669291E+02  0.28774039504E+03  0.45175718565E+03  0.53804670171E+03  0.00000000000E+00 0. -1.
         -2    1    5    5    0  503 -0.29684137603E+02  0.16553298076E+03  0.24562572001E+03  0.29768155817E+03  0.00000000000E+00 0.  1.
         -1    1    6    6    0  502  0.29559113650E+03 -0.29896089796E+03  0.26686806439E+03  0.49796616580E+03  0.00000000000E+00 0.  1.
<mgrwt>
<rscale>  0 0.23338446E+04</rscale>
<asrwt>0</asrwt>
<pdfrwt beam="1">  1        1 0.18436783E+00 0.23338446E+04</pdfrwt>
<pdfrwt beam="2">  1       -1 0.17481232E+00 0.23338446E+04</pdfrwt>
<totfact> 0.21912310E+00</totfact>
</mgrwt>
</event>
<event>
12    1  0.1472088E-007  0.2726964E+04  0.7818608E-02  0.8326309E-01
          2   -1    0    0  501    0  0.00000000000E+00  0.00000000000E+00  0.26405335808E+04  0.26405335808E+04  0.00000000000E+00 0.  1.
         -2   -1    0    0    0  501 -0.00000000000E+00 -0.00000000000E+00 -0.70405572664E+03  0.70405572664E+03  0.00000000000E+00 0. -1.
         23    2    1    2    0    0 -0.11305475291E+04  0.21144855458E+03  0.39323114451E+03  0.12188492685E+04  0.90081071437E+02 0.  0.
        254    2    1    2    0    0  0.11305475291E+04 -0.21144855458E+03  0.15432467097E+04  0.21257400390E+04  0.90239243102E+03 0.  0.
        -24    2    4    4    0    0 -0.54753222284E+02 -0.10835880473E+03  0.56436278346E+03  0.58296895593E+03  0.81289029431E+02 0.  0.
         24    2    4    4    0    0  0.11853007514E+04 -0.10308974984E+03  0.97888392621E+03  0.15427710831E+04  0.79771585758E+02 0.  0.
         11    1    3    3    0    0 -0.12108975853E+03  0.38800296440E+02  0.68798498511E+02  0.14457325487E+03  0.00000000000E+00 0.  1.
        -11    1    3    3    0    0 -0.10094577706E+04  0.17264825814E+03  0.32443264600E+03  0.10742760136E+04  0.00000000000E+00 0. -1.
          4    1    6    6  502    0  0.12824395517E+03 -0.29869042237E+02  0.13050774382E+03  0.18539402072E+03  0.00000000000E+00 0. -1.
          1    1    5    5  503    0  0.48508065918E+01 -0.64444629698E+02  0.35661485823E+03  0.36242350605E+03  0.00000000000E+00 0. -1.
         -2    1    5    5    0  503 -0.59604028876E+02 -0.43914175037E+02  0.20774792523E+03  0.22054544988E+03  0.00000000000E+00 0.  1.
         -3    1    6    6    0  502  0.10570567962E+04 -0.73220707604E+02  0.84837618240E+03  0.13573770623E+04  0.00000000000E+00 0.  1.
<mgrwt>
<rscale>  0 0.27269637E+04</rscale>
<asrwt>0</asrwt>
<pdfrwt beam="1">  1        2 0.40623593E+00 0.27269637E+04</pdfrwt>
<pdfrwt beam="2">  1       -2 0.10831627E+00 0.27269637E+04</pdfrwt>
<totfact> 0.17190902E+00</totfact>
</mgrwt>
</event>
<event>
12    1  0.1472088E-007  0.1595897E+04  0.7818608E-02  0.8823072E-01
          2   -1    0    0  501    0  0.00000000000E+00  0.00000000000E+00  0.87045940276E+03  0.87045940276E+03  0.00000000000E+00 0. -1.
         -2   -1    0    0    0  501 -0.00000000000E+00 -0.00000000000E+00 -0.73147833635E+03  0.73147833635E+03  0.00000000000E+00 0.  1.
         23    2    1    2    0    0  0.10865350228E+03 -0.42428815278E+03  0.36628892613E+03  0.57842274447E+03  0.92624369201E+02 0.  0.
        254    2    1    2    0    0 -0.10865350228E+03  0.42428815278E+03 -0.22730785972E+03  0.10235149946E+04  0.89670957450E+03 0.  0.
        -24    2    4    4    0    0 -0.43781538739E+03  0.22285112702E+02  0.12454796687E+02  0.44565411870E+03  0.79205630312E+02 0.  0.
         24    2    4    4    0    0  0.32916188510E+03  0.40200304008E+03 -0.23976265640E+03  0.57786087593E+03  0.80517511703E+02 0.  0.
         13    1    3    3    0    0  0.26304158267E+02 -0.27094761562E+03  0.24540950906E+03  0.36651104525E+03  0.00000000000E+00 0. -1.
        -13    1    3    3    0    0  0.82349344017E+02 -0.15334053716E+03  0.12087941706E+03  0.21191169922E+03  0.00000000000E+00 0.  1.
          2    1    6    6  502    0  0.19296038017E+03  0.29268636521E+03 -0.14741090530E+03  0.38030118550E+03  0.00000000000E+00 0. -1.
          3    1    5    5  503    0 -0.41982316140E+03  0.28655051409E+02 -0.34427963986E+01  0.42081403455E+03  0.00000000000E+00 0. -1.
         -4    1    5    5    0  503 -0.17992225983E+02 -0.63699387071E+01  0.15897593086E+02  0.24840084156E+02  0.00000000000E+00 0.  1.
         -1    1    6    6    0  502  0.13620150493E+03  0.10931667487E+03 -0.92351751101E+02  0.19755969043E+03  0.00000000000E+00 0.  1.
<mgrwt>
<rscale>  0 0.15958975E+04</rscale>
<asrwt>0</asrwt>
<pdfrwt beam="1">  1        2 0.13391683E+00 0.15958975E+04</pdfrwt>
<pdfrwt beam="2">  1       -2 0.11253513E+00 0.15958975E+04</pdfrwt>
<totfact> 0.18318212E+01</totfact>
</mgrwt>
</event>
<event>
12    1  0.1472088E-007  0.1421499E+04  0.7818608E-02  0.8938402E-01
          2   -1    0    0  501    0  0.00000000000E+00  0.00000000000E+00  0.17458909971E+04  0.17458909971E+04  0.00000000000E+00 0. -1.
         -2   -1    0    0    0  501 -0.00000000000E+00 -0.00000000000E+00 -0.28934493011E+03  0.28934493011E+03  0.00000000000E+00 0.  1.
         23    2    1    2    0    0 -0.10032653974E+03 -0.19471416460E+03  0.95008782782E+03  0.97922319037E+03  0.90731226752E+02 0.  0.
        254    2    1    2    0    0  0.10032653974E+03  0.19471416460E+03  0.50645823919E+03  0.10560127369E+04  0.90037988201E+03 0.  0.
        -24    2    4    4    0    0  0.13180168184E+03 -0.20652838622E+03  0.58407341062E+03  0.63840553446E+03  0.79963865520E+02 0.  0.
         24    2    4    4    0    0 -0.31475142093E+02  0.40124255081E+03 -0.77615171428E+02  0.41760720241E+03  0.79908644822E+02 0.  0.
         13    1    3    3    0    0 -0.11591227614E+03 -0.18081320009E+03  0.83031934516E+03  0.85764752902E+03  0.00000000000E+00 0. -1.
        -13    1    3    3    0    0  0.15585736395E+02 -0.13900964505E+02  0.11976848266E+03  0.12157566135E+03  0.00000000000E+00 0.  1.
          2    1    6    6  502    0 -0.24590109605E+02  0.17666185482E+03 -0.73411550386E+02  0.19288167401E+03  0.00000000000E+00 0. -1.
          3    1    5    5  503    0 -0.79275801368E+00 -0.51126119302E+02  0.85779175130E+02  0.99862782988E+02  0.00000000000E+00 0. -1.
         -4    1    5    5    0  503  0.13259443985E+03 -0.15540226691E+03  0.49829423549E+03  0.53854275147E+03  0.00000000000E+00 0.  1.
         -1    1    6    6    0  502 -0.68850324880E+01  0.22458069600E+03 -0.42036210412E+01  0.22472552841E+03  0.00000000000E+00 0.  1.
<mgrwt>
<rscale>  0 0.14214988E+04</rscale>
<asrwt>0</asrwt>
<pdfrwt beam="1">  1        2 0.26859861E+00 0.14214988E+04</pdfrwt>
<pdfrwt beam="2">  1       -2 0.44514606E-01 0.14214988E+04</pdfrwt>
<totfact> 0.43004914E+01</totfact>
</mgrwt>
</event>
<event>
12    1  0.1472088E-007  0.1407174E+04  0.7818608E-02  0.8948642E-01
         -2   -1    0    0    0  501 -0.00000000000E+00  0.00000000000E+00  0.23481057868E+03  0.23481057868E+03  0.00000000000E+00 0. -1.
          2   -1    0    0  501    0  0.00000000000E+00 -0.00000000000E+00 -0.21082285301E+04  0.21082285301E+04  0.00000000000E+00 0.  1.
         23    2    1    2    0    0  0.23507465869E+03  0.21623609025E+03 -0.12300950378E+03  0.35422216767E+03  0.91235213409E+02 0.  0.
        254    2    1    2    0    0 -0.23507465869E+03 -0.21623609025E+03 -0.17504084477E+04  0.19888169411E+04  0.88850714676E+03 0.  0.
        -24    2    4    4    0    0  0.54549208232E+01 -0.51226071445E+03 -0.12600262075E+04  0.13624965784E+04  0.79310067039E+02 0.  0.
         24    2    4    4    0    0 -0.24052957951E+03  0.29602462420E+03 -0.49038224010E+03  0.62632036273E+03  0.79482064678E+02 0.  0.
         13    1    3    3    0    0  0.21174138249E+03  0.16681292140E+03 -0.70941203390E+02  0.27873574967E+03  0.00000000000E+00 0. -1.
        -13    1    3    3    0    0  0.23333276197E+02  0.49423168845E+02 -0.52068300393E+02  0.75486418000E+02  0.00000000000E+00 0.  1.
          4    1    6    6  502    0 -0.15916828863E+02  0.36196045746E+02 -0.21211145981E+02  0.44871058406E+02  0.00000000000E+00 0. -1.
          3    1    5    5  503    0  0.33258772676E+01  0.17104775377E+01 -0.16873428457E+02  0.17282933226E+02  0.00000000000E+00 0. -1.
         -2    1    5    5    0  503  0.21290435556E+01 -0.51397119199E+03 -0.12431527791E+04  0.13452136452E+04  0.00000000000E+00 0.  1.
         -3    1    6    6    0  502 -0.22461275065E+03  0.25982857846E+03 -0.46917109412E+03  0.58144930432E+03  0.00000000000E+00 0.  1.
<mgrwt>
<rscale>  0 0.14071736E+04</rscale>
<asrwt>0</asrwt>
<pdfrwt beam="1">  1        2 0.32434286E+00 0.14071736E+04</pdfrwt>
<pdfrwt beam="2">  1       -2 0.36124704E-01 0.14071736E+04</pdfrwt>
<totfact> 0.40816596E+01</totfact>
</mgrwt>
</event>
<event>
12    1  0.1472088E-007  0.1658077E+04  0.7818608E-02  0.8785643E-01
         -1   -1    0    0    0  501 -0.00000000000E+00  0.00000000000E+00  0.50492125819E+03  0.50492125819E+03  0.00000000000E+00 0.  1.
          1   -1    0    0  501    0  0.00000000000E+00 -0.00000000000E+00 -0.13612118570E+04  0.13612118570E+04  0.00000000000E+00 0. -1.
         23    2    1    2    0    0 -0.33351710273E+03  0.36124966549E+03  0.43489321013E+02  0.50183109135E+03  0.90598811116E+02 0.  0.
        254    2    1    2    0    0  0.33351710273E+03 -0.36124966549E+03 -0.89977991983E+03  0.13643020239E+04  0.89998951635E+03 0.  0.
        -24    2    4    4    0    0  0.11684404603E+03 -0.63357717099E+03 -0.45167567693E+03  0.79092848591E+03  0.80525710225E+02 0.  0.
         24    2    4    4    0    0  0.21667305670E+03  0.27232750550E+03 -0.44810424290E+03  0.57337353794E+03  0.82766646380E+02 0.  0.
         11    1    3    3    0    0 -0.81590435510E+01  0.30364657020E+02  0.19840881856E+02  0.37178528487E+02  0.00000000000E+00 0. -1.
        -11    1    3    3    0    0 -0.32535805918E+03  0.33088500847E+03  0.23648439157E+02  0.46465256286E+03  0.00000000000E+00 0.  1.
          4    1    6    6  502    0  0.18486173910E+03  0.18760388764E+03 -0.36782986498E+03  0.45240235501E+03  0.00000000000E+00 0. -1.
          1    1    5    5  503    0  0.11409057955E+03 -0.59012743102E+03 -0.39406409201E+03  0.71871660186E+03  0.00000000000E+00 0. -1.
         -2    1    5    5    0  503  0.27534664840E+01 -0.43449739972E+02 -0.57611584918E+02  0.72211884051E+02  0.00000000000E+00 0.  1.
         -3    1    6    6    0  502  0.31811317597E+02  0.84723617860E+02 -0.80274377920E+02  0.12097118294E+03  0.00000000000E+00 0.  1.
<mgrwt>
<rscale>  0 0.16580770E+04</rscale>
<asrwt>0</asrwt>
<pdfrwt beam="1">  1        1 0.20941721E+00 0.16580770E+04</pdfrwt>
<pdfrwt beam="2">  1       -1 0.77680192E-01 0.16580770E+04</pdfrwt>
<totfact> 0.12974964E+01</totfact>
</mgrwt>
</event>
<event>
12    1  0.1472088E-007  0.1882387E+04  0.7818608E-02  0.8663674E-01
          1   -1    0    0  501    0  0.00000000000E+00  0.00000000000E+00  0.74111987031E+03  0.74111987031E+03  0.00000000000E+00 0. -1.
         -1   -1    0    0    0  501 -0.00000000000E+00 -0.00000000000E+00 -0.11952787733E+04  0.11952787733E+04  0.00000000000E+00 0.  1.
         23    2    1    2    0    0 -0.23815231237E+03 -0.20735692654E+03  0.49399927764E+03  0.59311481875E+03  0.89646433510E+02 0.  0.
        254    2    1    2    0    0  0.23815231237E+03  0.20735692654E+03 -0.94815818062E+03  0.13432838249E+04  0.89760463445E+03 0.  0.
        -24    2    4    4    0    0 -0.31723341155E+03  0.18973688853E+03 -0.27806883128E+03  0.46928501822E+03  0.79177200804E+02 0.  0.
         24    2    4    4    0    0  0.55538572392E+03  0.17620038005E+02 -0.67008934935E+03  0.87399880664E+03  0.78041077881E+02 0.  0.
         13    1    3    3    0    0 -0.18388017104E+03 -0.11400597372E+03  0.37069212770E+03  0.42921082569E+03  0.00000000000E+00 0. -1.
        -13    1    3    3    0    0 -0.54272141323E+02 -0.93350952816E+02  0.12330714994E+03  0.16390399306E+03  0.00000000000E+00 0.  1.
          2    1    6    6  502    0  0.50147240671E+03 -0.76311270181E+01 -0.60268691553E+03  0.78406908302E+03  0.00000000000E+00 0. -1.
          3    1    5    5  503    0 -0.29005994046E+03  0.16698571541E+03 -0.27594790396E+03  0.43378133190E+03  0.00000000000E+00 0. -1.
         -4    1    5    5    0  503 -0.27173471091E+02  0.22751173124E+02 -0.21209273213E+01  0.35503686320E+02  0.00000000000E+00 0.  1.
         -1    1    6    6    0  502  0.53913317210E+02  0.25251165023E+02 -0.67402433813E+02  0.89929723627E+02  0.00000000000E+00 0.  1.
<mgrwt>
<rscale>  0 0.18823866E+04</rscale>
<asrwt>0</asrwt>
<pdfrwt beam="1">  1        1 0.11401844E+00 0.18823866E+04</pdfrwt>
<pdfrwt beam="2">  1       -1 0.18388904E+00 0.18823866E+04</pdfrwt>
<totfact> 0.45632385E+00</totfact>
</mgrwt>
</event>
<event>
12    1  0.1472088E-007  0.1939401E+04  0.7818608E-02  0.8635489E-01
          2   -1    0    0  501    0  0.00000000000E+00  0.00000000000E+00  0.12453315948E+04  0.12453315948E+04  0.00000000000E+00 0. -1.
         -2   -1    0    0    0  501 -0.00000000000E+00 -0.00000000000E+00 -0.75507514824E+03  0.75507514824E+03  0.00000000000E+00 0.  1.
         23    2    1    2    0    0 -0.65839163207E+03 -0.35099822098E+03  0.59886594433E+02  0.75396456996E+03  0.90536601687E+02 0.  0.
        254    2    1    2    0    0  0.65839163207E+03  0.35099822098E+03  0.43036985214E+03  0.12464421731E+04  0.90095537567E+03 0.  0.
        -24    2    4    4    0    0  0.15805634380E+03 -0.19772396032E+03 -0.14607855825E+03  0.30264615970E+03  0.78607763630E+02 0.  0.
         24    2    4    4    0    0  0.50033528827E+03  0.54872218130E+03  0.57644841039E+03  0.94379601340E+03  0.83825486174E+02 0.  0.
         11    1    3    3    0    0 -0.14058716066E+02  0.39492746263E+01  0.76401775620E+01  0.16480794298E+02  0.00000000000E+00 0. -1.
        -11    1    3    3    0    0 -0.64433291601E+03 -0.35494749561E+03  0.52246416871E+02  0.73748377566E+03  0.00000000000E+00 0.  1.
          4    1    6    6  502    0  0.20626639165E+03  0.25084875467E+03  0.30038223729E+03  0.44238039121E+03  0.00000000000E+00 0. -1.
          3    1    5    5  503    0  0.14321232357E+03 -0.20220271539E+03 -0.12820384470E+03  0.27898375137E+03  0.00000000000E+00 0. -1.
         -4    1    5    5    0  503  0.14844020232E+02  0.44787550706E+01 -0.17874713549E+02  0.23662408332E+02  0.00000000000E+00 0.  1.
         -3    1    6    6    0  502  0.29406889662E+03  0.29787342663E+03  0.27606617309E+03  0.50141562219E+03  0.00000000000E+00 0.  1.
<mgrwt>
<rscale>  0 0.19394009E+04</rscale>
<asrwt>0</asrwt>
<pdfrwt beam="1">  1        2 0.19158948E+00 0.19394009E+04</pdfrwt>
<pdfrwt beam="2">  1       -2 0.11616541E+00 0.19394009E+04</pdfrwt>
<totfact> 0.95620886E+00</totfact>
</mgrwt>
</event>
<event>
12    1  0.1472088E-007  0.1682884E+04  0.7818608E-02  0.8771187E-01
         -2   -1    0    0    0  501 -0.00000000000E+00  0.00000000000E+00  0.24101492595E+03  0.24101492595E+03  0.00000000000E+00 0.  1.
          2   -1    0    0  501    0  0.00000000000E+00 -0.00000000000E+00 -0.29376794536E+04  0.29376794536E+04  0.00000000000E+00 0. -1.
         23    2    1    2    0    0 -0.53757820570E+03  0.15332767733E+03 -0.13619702935E+04  0.14748367747E+04  0.87639760619E+02 0.  0.
        254    2    1    2    0    0  0.53757820570E+03 -0.15332767733E+03 -0.13346942341E+04  0.17038576048E+04  0.89956786023E+03 0.  0.
        -24    2    4    4    0    0  0.51098172643E+03 -0.32186953608E+03 -0.13785699959E+04  0.15071690925E+04  0.80006978796E+02 0.  0.
         24    2    4    4    0    0  0.26596479274E+02  0.16854185875E+03  0.43875761801E+02  0.19668851239E+03  0.87450314870E+02 0.  0.
         13    1    3    3    0    0 -0.26010165704E+03  0.90378254295E+02 -0.77680739327E+03  0.82416674714E+03  0.00000000000E+00 0.  1.
        -13    1    3    3    0    0 -0.27747654867E+03  0.62949423035E+02 -0.58516290025E+03  0.65067002754E+03  0.00000000000E+00 0. -1.
          4    1    6    6  502    0  0.21911204951E+02  0.16474142075E+02 -0.17622606531E+02  0.32589177966E+02  0.00000000000E+00 0. -1.
          1    1    5    5  503    0  0.17226574739E+03 -0.15380968951E+03 -0.50790479670E+03  0.55794282039E+03  0.00000000000E+00 0. -1.
         -2    1    5    5    0  503  0.33871597904E+03 -0.16805984657E+03 -0.87066519919E+03  0.94922627206E+03  0.00000000000E+00 0.  1.
         -1    1    6    6    0  502  0.46852743230E+01  0.15206771668E+03  0.61498368332E+02  0.16409933442E+03  0.00000000000E+00 0.  1.
<mgrwt>
<rscale>  0 0.16828839E+04</rscale>
<asrwt>0</asrwt>
<pdfrwt beam="1">  1        2 0.45195069E+00 0.16828839E+04</pdfrwt>
<pdfrwt beam="2">  1       -2 0.37079219E-01 0.16828839E+04</pdfrwt>
<totfact> 0.12494150E+01</totfact>
</mgrwt>
</event>
<event>
12    1  0.1472088E-007  0.2989627E+04  0.7818608E-02  0.8246699E-01
         -2   -1    0    0    0  501 -0.00000000000E+00  0.00000000000E+00  0.91982647832E+03  0.91982647832E+03  0.00000000000E+00 0.  1.
          2   -1    0    0  501    0  0.00000000000E+00 -0.00000000000E+00 -0.24292274543E+04  0.24292274543E+04  0.00000000000E+00 0. -1.
         23    2    1    2    0    0  0.89421457180E+03 -0.10038364046E+04 -0.88213467177E+03  0.16104886640E+04  0.90581069581E+02 0.  0.
        254    2    1    2    0    0 -0.89421457180E+03  0.10038364046E+04 -0.62726630421E+03  0.17385652686E+04  0.90655333504E+03 0.  0.
        -24    2    4    4    0    0 -0.74280833735E+03  0.41799076504E+03  0.95711155472E+01  0.85643390865E+03  0.83107929480E+02 0.  0.
         24    2    4    4    0    0 -0.15140623445E+03  0.58584563953E+03 -0.63683741975E+03  0.88213135996E+03  0.80342241949E+02 0.  0.
         13    1    3    3    0    0  0.29605504080E+03 -0.30196342708E+03 -0.32200010988E+03  0.53152099605E+03  0.00000000000E+00 0. -1.
        -13    1    3    3    0    0  0.59815953100E+03 -0.70187297750E+03 -0.56013456189E+03  0.10789676680E+04  0.00000000000E+00 0.  1.
          2    1    6    6  502    0 -0.59392032677E+02  0.14751729838E+03 -0.12706036914E+03  0.20355123255E+03  0.00000000000E+00 0. -1.
          3    1    5    5  503    0 -0.57171531118E+02  0.14984812452E+02  0.15516969415E+02  0.61105686432E+02  0.00000000000E+00 0. -1.
         -4    1    5    5    0  503 -0.68563680623E+03  0.40300595259E+03 -0.59458538681E+01  0.79532822222E+03  0.00000000000E+00 0.  1.
         -1    1    6    6    0  502 -0.92014201773E+02  0.43832834115E+03 -0.50977705062E+03  0.67858012741E+03  0.00000000000E+00 0.  1.
<mgrwt>
<rscale>  0 0.29896272E+04</rscale>
<asrwt>0</asrwt>
<pdfrwt beam="1">  1        2 0.37372730E+00 0.29896272E+04</pdfrwt>
<pdfrwt beam="2">  1       -2 0.14151177E+00 0.29896272E+04</pdfrwt>
<totfact> 0.11442489E+00</totfact>
</mgrwt>
</event>
<event>
12    1  0.1472088E-007  0.1848864E+04  0.7818608E-02  0.8680737E-01
         -1   -1    0    0    0  501 -0.00000000000E+00  0.00000000000E+00  0.51980661673E+03  0.51980661673E+03  0.00000000000E+00 0.  1.
          1   -1    0    0  501    0  0.00000000000E+00 -0.00000000000E+00 -0.16440237883E+04  0.16440237883E+04  0.00000000000E+00 0. -1.
         23    2    1    2    0    0  0.46884857592E+03 -0.46268388261E+03 -0.15323118666E+03  0.68275712414E+03  0.93713028101E+02 0.  0.
        254    2    1    2    0    0 -0.46884857592E+03  0.46268388261E+03 -0.97098598490E+03  0.14810732809E+04  0.90380800953E+03 0.  0.
        -24    2    4    4    0    0 -0.34155145155E+03  0.69075895817E+03 -0.45907745951E+03  0.90039184909E+03  0.78409410872E+02 0.  0.
         24    2    4    4    0    0 -0.12729712436E+03 -0.22807507557E+03 -0.51190852539E+03  0.58068143179E+03  0.83173246269E+02 0.  0.
         11    1    3    3    0    0  0.27658998347E+03 -0.21630585338E+03 -0.10538481420E+03  0.36660087320E+03  0.00000000000E+00 0. -1.
        -11    1    3    3    0    0  0.19225859245E+03 -0.24637802922E+03 -0.47846372457E+02  0.31615625094E+03  0.00000000000E+00 0.  1.
          2    1    6    6  502    0 -0.67578615645E+02 -0.19372126064E+03 -0.37822475620E+03  0.43028916128E+03  0.00000000000E+00 0. -1.
          3    1    5    5  503    0 -0.17779809080E+03  0.40214117773E+03 -0.30081856976E+03  0.53274900265E+03  0.00000000000E+00 0. -1.
         -4    1    5    5    0  503 -0.16375336075E+03  0.28861778045E+03 -0.15825888976E+03  0.36764284643E+03  0.00000000000E+00 0.  1.
         -1    1    6    6    0  502 -0.59718508720E+02 -0.34353814929E+02 -0.13368376919E+03  0.15039227051E+03  0.00000000000E+00 0.  1.
<mgrwt>
<rscale>  0 0.18488639E+04</rscale>
<asrwt>0</asrwt>
<pdfrwt beam="1">  1        1 0.25292673E+00 0.18488639E+04</pdfrwt>
<pdfrwt beam="2">  1       -1 0.79970249E-01 0.18488639E+04</pdfrwt>
<totfact> 0.76352359E+00</totfact>
</mgrwt>
</event>
<event>
12    1  0.1472088E-007  0.3059764E+04  0.7818608E-02  0.8226868E-01
          1   -1    0    0  501    0  0.00000000000E+00  0.00000000000E+00  0.13250296902E+04  0.13250296902E+04  0.00000000000E+00 0. -1.
         -1   -1    0    0    0  501 -0.00000000000E+00 -0.00000000000E+00 -0.17664053400E+04  0.17664053400E+04  0.00000000000E+00 0.  1.
         23    2    1    2    0    0 -0.11246209122E+04 -0.65836848052E+03  0.30447134987E+03  0.13413507501E+04  0.91092149019E+02 0.  0.
        254    2    1    2    0    0  0.11246209122E+04  0.65836848052E+03 -0.74584699969E+03  0.17500842801E+04  0.89904726699E+03 0.  0.
        -24    2    4    4    0    0  0.95578657034E+03  0.74226765806E+02 -0.54177724672E+03  0.11039618234E+04  0.78559159961E+02 0.  0.
         24    2    4    4    0    0  0.16883434183E+03  0.58414171471E+03 -0.20406975297E+03  0.64612245672E+03  0.78122897763E+02 0.  0.
         11    1    3    3    0    0 -0.76949668313E+03 -0.41449160213E+03  0.17352879271E+03  0.89108960014E+03  0.00000000000E+00 0. -1.
        -11    1    3    3    0    0 -0.35512422903E+03 -0.24387687839E+03  0.13094255717E+03  0.45026114993E+03  0.00000000000E+00 0.  1.
          2    1    6    6  502    0  0.17663780775E+03  0.53939881358E+03 -0.19103073489E+03  0.59886954915E+03  0.00000000000E+00 0. -1.
          3    1    5    5  503    0  0.14209727853E+03 -0.15745850457E+02 -0.89827941845E+02  0.16884498070E+03  0.00000000000E+00 0. -1.
         -4    1    5    5    0  503  0.81368929180E+03  0.89972616264E+02 -0.45194930488E+03  0.93511684267E+03  0.00000000000E+00 0.  1.
         -1    1    6    6    0  502 -0.78034659217E+01  0.44742901129E+02 -0.13039018075E+02  0.47252907574E+02  0.00000000000E+00 0.  1.
<mgrwt>
<rscale>  0 0.30597644E+04</rscale>
<asrwt>0</asrwt>
<pdfrwt beam="1">  1        1 0.20385072E+00 0.30597644E+04</pdfrwt>
<pdfrwt beam="2">  1       -1 0.27175466E+00 0.30597644E+04</pdfrwt>
<totfact> 0.36994134E-01</totfact>
</mgrwt>
</event>
<event>
12    1  0.1472088E-007  0.1430110E+04  0.7818608E-02  0.8932307E-01
         -1   -1    0    0    0  501 -0.00000000000E+00  0.00000000000E+00  0.56167818765E+03  0.56167818765E+03  0.00000000000E+00 0.  1.
          1   -1    0    0  501    0  0.00000000000E+00 -0.00000000000E+00 -0.91031478274E+03  0.91031478274E+03  0.00000000000E+00 0. -1.
         23    2    1    2    0    0 -0.29331041759E+03 -0.19497019836E+03 -0.29053035842E+03  0.46522687969E+03  0.89352006760E+02 0.  0.
        254    2    1    2    0    0  0.29331041759E+03  0.19497019836E+03 -0.58106236672E+02  0.10067660907E+04  0.94135925519E+03 0.  0.
        -24    2    4    4    0    0  0.32713133751E+03 -0.32951622690E+03 -0.69809448328E+01  0.47254348070E+03  0.87480007921E+02 0.  0.
         24    2    4    4    0    0 -0.33820919924E+02  0.52448642526E+03 -0.51125291840E+02  0.53422261000E+03  0.80932914622E+02 0.  0.
         11    1    3    3    0    0 -0.91436529651E+02 -0.10878512860E+03 -0.92215270175E+02  0.16940631397E+03  0.00000000000E+00 0. -1.
        -11    1    3    3    0    0 -0.20187388794E+03 -0.86185069760E+02 -0.19831508824E+03  0.29582056572E+03  0.00000000000E+00 0.  1.
          2    1    6    6  502    0 -0.17647279205E+02  0.64830850280E+02 -0.30586794415E+02  0.73824234530E+02  0.00000000000E+00 0. -1.
          1    1    5    5  503    0  0.33785505454E+02 -0.40824660713E+02  0.27174268688E+02  0.59552952738E+02  0.00000000000E+00 0. -1.
         -2    1    5    5    0  503  0.29334583206E+03 -0.28869156618E+03 -0.34155213520E+02  0.41299052796E+03  0.00000000000E+00 0.  1.
         -1    1    6    6    0  502 -0.16173640719E+02  0.45965557498E+03 -0.20538497425E+02  0.46039837547E+03  0.00000000000E+00 0.  1.
<mgrwt>
<rscale>  0 0.14301104E+04</rscale>
<asrwt>0</asrwt>
<pdfrwt beam="1">  1        1 0.14004843E+00 0.14301104E+04</pdfrwt>
<pdfrwt beam="2">  1       -1 0.86412029E-01 0.14301104E+04</pdfrwt>
<totfact> 0.22937206E+01</totfact>
</mgrwt>
</event>
<event>
12    1  0.1472088E-007  0.1353093E+04  0.7818608E-02  0.8988490E-01
         -2   -1    0    0    0  501 -0.00000000000E+00  0.00000000000E+00  0.47679912547E+03  0.47679912547E+03  0.00000000000E+00 0. -1.
          2   -1    0    0  501    0  0.00000000000E+00 -0.00000000000E+00 -0.95997420406E+03  0.95997420406E+03  0.00000000000E+00 0.  1.
         23    2    1    2    0    0 -0.90276491489E+02  0.47013955110E+01 -0.50844584745E+03  0.52434881894E+03  0.90843580420E+02 0.  0.
        254    2    1    2    0    0  0.90276491489E+02 -0.47013955110E+01  0.25270768853E+02  0.91242451059E+03  0.90758356515E+03 0.  0.
        -24    2    4    4    0    0  0.20346112654E+03  0.38864168780E+03  0.16103377031E+03  0.47384041454E+03  0.78447891985E+02 0.  0.
         24    2    4    4    0    0 -0.11318463505E+03 -0.39334308331E+03 -0.13576300146E+03  0.43858409605E+03  0.79967955709E+02 0.  0.
         11    1    3    3    0    0 -0.54653893409E+02  0.18531187015E+02 -0.45501148256E+03  0.45865662779E+03  0.00000000000E+00 0.  1.
        -11    1    3    3    0    0 -0.35622598080E+02 -0.13829791504E+02 -0.53434364889E+02  0.65692191150E+02  0.00000000000E+00 0. -1.
          2    1    6    6  502    0 -0.12442108041E+03 -0.35699033254E+03 -0.11456975702E+03  0.39503029251E+03  0.00000000000E+00 0. -1.
          1    1    5    5  503    0  0.15493169334E+03  0.35226898199E+03  0.14337544496E+03  0.41067479043E+03  0.00000000000E+00 0. -1.
         -2    1    5    5    0  503  0.48529433204E+02  0.36372705806E+02  0.17658325357E+02  0.63165624110E+02  0.00000000000E+00 0.  1.
         -1    1    6    6    0  502  0.11236445354E+02 -0.36352750770E+02 -0.21193244438E+02  0.43553803537E+02  0.00000000000E+00 0.  1.
<mgrwt>
<rscale>  0 0.13530925E+04</rscale>
<asrwt>0</asrwt>
<pdfrwt beam="1">  1        2 0.14768834E+00 0.13530925E+04</pdfrwt>
<pdfrwt beam="2">  1       -2 0.73353712E-01 0.13530925E+04</pdfrwt>
<totfact> 0.43815499E+01</totfact>
</mgrwt>
</event>
<event>
12    1  0.1472088E-007  0.2086337E+04  0.7818608E-02  0.8567286E-01
         -1   -1    0    0    0  501 -0.00000000000E+00  0.00000000000E+00  0.20568822597E+04  0.20568822597E+04  0.00000000000E+00 0.  1.
          1   -1    0    0  501    0  0.00000000000E+00 -0.00000000000E+00 -0.52905332392E+03  0.52905332392E+03  0.00000000000E+00 0. -1.
         23    2    1    2    0    0  0.31367146375E+03  0.68772319014E+03  0.15867234218E+03  0.77797046291E+03  0.93317498697E+02 0.  0.
        254    2    1    2    0    0 -0.31367146375E+03 -0.68772319014E+03  0.13691565936E+04  0.18079651207E+04  0.90708055126E+03 0.  0.
        -24    2    4    4    0    0 -0.39874867524E+03 -0.18355012355E+03  0.11717859525E+04  0.12538827892E+04  0.80303031760E+02 0.  0.
         24    2    4    4    0    0  0.85077211496E+02 -0.50417306659E+03  0.19737064119E+03  0.55408233151E+03  0.81384562965E+02 0.  0.
         13    1    3    3    0    0  0.11357281214E+03  0.25506920458E+03  0.10487904393E+03  0.29825944518E+03  0.00000000000E+00 0.  1.
        -13    1    3    3    0    0  0.20009865161E+03  0.43265398556E+03  0.53793298243E+02  0.47971101773E+03  0.00000000000E+00 0. -1.
          4    1    6    6  502    0  0.95794412485E+01 -0.24787919568E+03  0.12218261876E+03  0.27652206725E+03  0.00000000000E+00 0. -1.
          1    1    5    5  503    0 -0.27405235096E+03 -0.10354538935E+03  0.86352267881E+03  0.91186498756E+03  0.00000000000E+00 0. -1.
         -2    1    5    5    0  503 -0.12469632428E+03 -0.80004734199E+02  0.30826327365E+03  0.34201780168E+03  0.00000000000E+00 0.  1.
         -3    1    6    6    0  502  0.75497770248E+02 -0.25629387091E+03  0.75188022427E+02  0.27756026426E+03  0.00000000000E+00 0.  1.
<mgrwt>
<rscale>  0 0.20863369E+04</rscale>
<asrwt>0</asrwt>
<pdfrwt beam="1">  1        1 0.81392820E-01 0.20863369E+04</pdfrwt>
<pdfrwt beam="2">  1       -1 0.31644342E+00 0.20863369E+04</pdfrwt>
<totfact> 0.97474368E-01</totfact>
</mgrwt>
</event>
<event>
12    1  0.1472088E-007  0.1348619E+04  0.7818608E-02  0.8991874E-01
          1   -1    0    0  501    0  0.00000000000E+00  0.00000000000E+00  0.10206095965E+04  0.10206095965E+04  0.00000000000E+00 0. -1.
         -1   -1    0    0    0  501 -0.00000000000E+00 -0.00000000000E+00 -0.44551131366E+03  0.44551131366E+03  0.00000000000E+00 0.  1.
         23    2    1    2    0    0  0.55278722404E+02 -0.17109441300E+03 -0.17249606040E+03  0.26521006134E+03  0.90842999029E+02 0.  0.
        254    2    1    2    0    0 -0.55278722404E+02  0.17109441300E+03  0.74759434320E+03  0.12009108488E+04  0.92247521887E+03 0.  0.
        -24    2    4    4    0    0 -0.60702455794E+02  0.10121400550E+02 -0.20613148563E+03  0.23072828237E+03  0.83415346476E+02 0.  0.
         24    2    4    4    0    0  0.54237333894E+01  0.16097301245E+03  0.95372582883E+03  0.97018256642E+03  0.75627561012E+02 0.  0.
         11    1    3    3    0    0  0.60981334612E+02 -0.12197341229E+03 -0.16677377217E+03  0.21542917063E+03  0.00000000000E+00 0.  1.
        -11    1    3    3    0    0 -0.57026122077E+01 -0.49121000713E+02 -0.57222882294E+01  0.49780890708E+02  0.00000000000E+00 0. -1.
          4    1    6    6  502    0  0.67392597156E+01  0.83838973037E+02  0.28886584261E+03  0.30086187204E+03  0.00000000000E+00 0. -1.
          3    1    5    5  503    0 -0.12485840651E+02 -0.26969249037E+01  0.50482253894E+01  0.13735144712E+02  0.00000000000E+00 0. -1.
         -4    1    5    5    0  503 -0.48216615143E+02  0.12818325453E+02 -0.21117971102E+03  0.21699313765E+03  0.00000000000E+00 0.  1.
         -3    1    6    6    0  502 -0.13155263262E+01  0.77134039415E+02  0.66485998622E+03  0.66932069438E+03  0.00000000000E+00 0.  1.
<mgrwt>
<rscale>  0 0.13486187E+04</rscale>
<asrwt>0</asrwt>
<pdfrwt beam="1">  1        1 0.15701686E+00 0.13486187E+04</pdfrwt>
<pdfrwt beam="2">  1       -1 0.68540202E-01 0.13486187E+04</pdfrwt>
<totfact> 0.30756786E+01</totfact>
</mgrwt>
</event>
<event>
12    1  0.1472088E-007  0.1535367E+04  0.7818608E-02  0.8861269E-01
          1   -1    0    0  501    0  0.00000000000E+00  0.00000000000E+00  0.31708517374E+03  0.31708517374E+03  0.00000000000E+00 0. -1.
         -1   -1    0    0    0  501 -0.00000000000E+00 -0.00000000000E+00 -0.18586111664E+04  0.18586111664E+04  0.00000000000E+00 0.  1.
         23    2    1    2    0    0  0.41622888086E+03  0.18071952236E+03 -0.24305065960E+03  0.52319358574E+03  0.93551472461E+02 0.  0.
        254    2    1    2    0    0 -0.41622888086E+03 -0.18071952236E+03 -0.12984753330E+04  0.16525027544E+04  0.91587179000E+03 0.  0.
        -24    2    4    4    0    0 -0.44660884181E+03  0.19941782899E+02 -0.14202141215E+03  0.47565831371E+03  0.78889908152E+02 0.  0.
         24    2    4    4    0    0  0.30379960948E+02 -0.20066130526E+03 -0.11564539209E+04  0.11768444407E+04  0.79932877725E+02 0.  0.
         13    1    3    3    0    0  0.31087014208E+03  0.11284449242E+03 -0.13319131566E+03  0.35653057551E+03  0.00000000000E+00 0. -1.
        -13    1    3    3    0    0  0.10535873878E+03  0.67875029941E+02 -0.10985934394E+03  0.16666301022E+03  0.00000000000E+00 0.  1.
          2    1    6    6  502    0  0.29947981914E+02 -0.20681213264E+03 -0.10727587200E+04  0.10929224178E+04  0.00000000000E+00 0. -1.
          1    1    5    5  503    0 -0.17528077140E+03  0.38213197231E+02 -0.31635484237E+02  0.18216586158E+03  0.00000000000E+00 0. -1.
         -2    1    5    5    0  503 -0.27132807041E+03 -0.18271414331E+02 -0.11038592791E+03  0.29349245213E+03  0.00000000000E+00 0.  1.
         -1    1    6    6    0  502  0.43197903313E+00  0.61508273870E+01 -0.83695200853E+02  0.83922022910E+02  0.00000000000E+00 0.  1.
<mgrwt>
<rscale>  0 0.15353671E+04</rscale>
<asrwt>0</asrwt>
<pdfrwt beam="1">  1        1 0.48782334E-01 0.15353671E+04</pdfrwt>
<pdfrwt beam="2">  1       -1 0.28594018E+00 0.15353671E+04</pdfrwt>
<totfact> 0.32096334E+00</totfact>
</mgrwt>
</event>
<event>
12    1  0.1472088E-007  0.2136440E+04  0.7818608E-02  0.8545359E-01
          2   -1    0    0  501    0  0.00000000000E+00  0.00000000000E+00  0.12006519820E+04  0.12006519820E+04  0.00000000000E+00 0. -1.
         -2   -1    0    0    0  501 -0.00000000000E+00 -0.00000000000E+00 -0.95039534703E+03  0.95039534703E+03  0.00000000000E+00 0.  1.
         23    2    1    2    0    0 -0.59092982138E+03  0.65451246671E+03  0.96879212166E+01  0.88668399514E+03  0.92358153650E+02 0.  0.
        254    2    1    2    0    0  0.59092982138E+03 -0.65451246671E+03  0.24056871377E+03  0.12643633339E+04  0.87358841064E+03 0.  0.
        -24    2    4    4    0    0  0.25798832461E+03  0.13113982941E+03  0.27491399445E+03  0.40690398106E+03  0.78977939727E+02 0.  0.
         24    2    4    4    0    0  0.33294149677E+03 -0.78565229612E+03 -0.34345280685E+02  0.85745935284E+03  0.77184019082E+02 0.  0.
         13    1    3    3    0    0 -0.19811195117E+03  0.25042679851E+03  0.42744845260E+02  0.32216307734E+03  0.00000000000E+00 0.  1.
        -13    1    3    3    0    0 -0.39281787021E+03  0.40408566820E+03 -0.33056924043E+02  0.56452091779E+03  0.00000000000E+00 0. -1.
          2    1    6    6  502    0  0.80104690740E+02 -0.27153323129E+03  0.54199881044E+01  0.28315443391E+03  0.00000000000E+00 0. -1.
          3    1    5    5  503    0  0.11605222250E+03  0.86858671986E+02  0.17741638996E+03  0.22910504724E+03  0.00000000000E+00 0. -1.
         -4    1    5    5    0  503  0.14193610210E+03  0.44281157427E+02  0.97497604497E+02  0.17779893382E+03  0.00000000000E+00 0.  1.
         -1    1    6    6    0  502  0.25283680603E+03 -0.51411906483E+03 -0.39765268789E+02  0.57430491893E+03  0.00000000000E+00 0.  1.
<mgrwt>
<rscale>  0 0.21364401E+04</rscale>
<asrwt>0</asrwt>
<pdfrwt beam="1">  1        2 0.18471569E+00 0.21364401E+04</pdfrwt>
<pdfrwt beam="2">  1       -2 0.14621467E+00 0.21364401E+04</pdfrwt>
<totfact> 0.55743148E+00</totfact>
</mgrwt>
</event>
<event>
12    1  0.1472088E-007  0.1387043E+04  0.7818608E-02  0.8963251E-01
         -2   -1    0    0    0  501 -0.00000000000E+00  0.00000000000E+00  0.11278716742E+04  0.11278716742E+04  0.00000000000E+00 0.  1.
          2   -1    0    0  501    0  0.00000000000E+00 -0.00000000000E+00 -0.42644244788E+03  0.42644244788E+03  0.00000000000E+00 0. -1.
         23    2    1    2    0    0  0.46928973649E+02 -0.65079077070E+00  0.63863704014E+03  0.65065970859E+03  0.11531710737E+03 0.  0.
        254    2    1    2    0    0 -0.46928973649E+02  0.65079077070E+00  0.62792186230E+02  0.90365441353E+03  0.90024757059E+03 0.  0.
        -24    2    4    4    0    0 -0.29333398332E+02  0.32051779961E+03 -0.27485097515E+03  0.43135436076E+03  0.83255137270E+02 0.  0.
         24    2    4    4    0    0 -0.17595575317E+02 -0.31986700884E+03  0.33764316138E+03  0.47230005277E+03  0.80249160803E+02 0.  0.
         13    1    3    3    0    0  0.57998289325E+02 -0.32493591939E+02  0.57326601235E+03  0.57710792404E+03  0.00000000000E+00 0.  1.
        -13    1    3    3    0    0 -0.11069315676E+02  0.31842801168E+02  0.65371027793E+02  0.73551784550E+02  0.00000000000E+00 0. -1.
          2    1    6    6  502    0 -0.17647682040E+02 -0.14947486741E+03  0.10327162460E+03  0.18253549002E+03  0.00000000000E+00 0. -1.
          3    1    5    5  503    0 -0.19949276138E+02  0.22044507153E+03 -0.23610011054E+03  0.32363137267E+03  0.00000000000E+00 0. -1.
         -4    1    5    5    0  503 -0.93841221935E+01  0.10007272808E+03 -0.38750864611E+02  0.10772298809E+03  0.00000000000E+00 0.  1.
         -1    1    6    6    0  502  0.52106723298E-01 -0.17039214143E+03  0.23437153678E+03  0.28976456275E+03  0.00000000000E+00 0.  1.
<mgrwt>
<rscale>  0 0.13870434E+04</rscale>
<asrwt>0</asrwt>
<pdfrwt beam="1">  1        2 0.65606531E-01 0.13870434E+04</pdfrwt>
<pdfrwt beam="2">  1       -2 0.17351872E+00 0.13870434E+04</pdfrwt>
<totfact> 0.14482321E+01</totfact>
</mgrwt>
</event>
<event>
12    1  0.1472088E-007  0.1264346E+04  0.7818608E-02  0.9058327E-01
          1   -1    0    0  501    0  0.00000000000E+00  0.00000000000E+00  0.18928580863E+04  0.18928580863E+04  0.00000000000E+00 0. -1.
         -1   -1    0    0    0  501 -0.00000000000E+00 -0.00000000000E+00 -0.21113201867E+03  0.21113201867E+03  0.00000000000E+00 0.  1.
         23    2    1    2    0    0 -0.28891769368E+01 -0.17136008749E+03  0.82536140793E+03  0.84797725118E+03  0.92039871157E+02 0.  0.
        254    2    1    2    0    0  0.28891769368E+01  0.17136008749E+03  0.85636465968E+03  0.12560128538E+04  0.90268224285E+03 0.  0.
        -24    2    4    4    0    0 -0.22419720354E+02  0.34557479898E+03 -0.22084875399E+02  0.35637673323E+03  0.81191432548E+02 0.  0.
         24    2    4    4    0    0  0.25308897291E+02 -0.17421471148E+03  0.87844953508E+03  0.89963612053E+03  0.81732843509E+02 0.  0.
         13    1    3    3    0    0  0.33560253542E+01 -0.16458886186E+03  0.82175915967E+03  0.83808643520E+03  0.00000000000E+00 0. -1.
        -13    1    3    3    0    0 -0.62452022910E+01 -0.67712256335E+01  0.36022482577E+01  0.98908159798E+01  0.00000000000E+00 0.  1.
          4    1    6    6  502    0  0.21874461257E+02 -0.68653862699E+01  0.17769273192E+03  0.17916565676E+03  0.00000000000E+00 0. -1.
          3    1    5    5  503    0 -0.38148646168E+02  0.90357353295E+02 -0.22705644140E+02  0.10067431040E+03  0.00000000000E+00 0. -1.
         -4    1    5    5    0  503  0.15728925815E+02  0.25521744568E+03  0.62076874109E+00  0.25570242283E+03  0.00000000000E+00 0.  1.
         -3    1    6    6    0  502  0.34344360331E+01 -0.16734932521E+03  0.70075680316E+03  0.72047046378E+03  0.00000000000E+00 0.  1.
<mgrwt>
<rscale>  0 0.12643464E+04</rscale>
<asrwt>0</asrwt>
<pdfrwt beam="1">  1        1 0.29120893E+00 0.12643464E+04</pdfrwt>
<pdfrwt beam="2">  1       -1 0.32481850E-01 0.12643464E+04</pdfrwt>
<totfact> 0.30802933E+01</totfact>
</mgrwt>
</event>
<event>
12    1  0.1472088E-007  0.2000587E+04  0.7818608E-02  0.8606346E-01
          2   -1    0    0  501    0  0.00000000000E+00  0.00000000000E+00  0.14299718179E+04  0.14299718179E+04  0.00000000000E+00 0. -1.
         -2   -1    0    0    0  501 -0.00000000000E+00 -0.00000000000E+00 -0.69972496742E+03  0.69972496742E+03  0.00000000000E+00 0.  1.
         23    2    1    2    0    0  0.24633886532E+03 -0.82364544565E+02 -0.51008765989E+03  0.57961379781E+03  0.91082265417E+02 0.  0.
        254    2    1    2    0    0 -0.24633886532E+03  0.82364544565E+02  0.12403345103E+04  0.15500829875E+04  0.89267060876E+03 0.  0.
        -24    2    4    4    0    0 -0.22802305596E+03  0.43873726650E+03  0.42605529632E+03  0.65751573384E+03  0.79491645185E+02 0.  0.
         24    2    4    4    0    0 -0.18315809354E+02 -0.35637272194E+03  0.81427921400E+03  0.89256725362E+03  0.79301185792E+02 0.  0.
         13    1    3    3    0    0  0.83566702276E+01 -0.27856427338E+02 -0.79121385253E+02  0.84297141622E+02  0.00000000000E+00 0. -1.
        -13    1    3    3    0    0  0.23798219509E+03 -0.54508117227E+02 -0.43096627463E+03  0.49531665619E+03  0.00000000000E+00 0.  1.
          4    1    6    6  502    0 -0.23674890803E+02 -0.28442978114E+02  0.98626549540E+02  0.10534087399E+03  0.00000000000E+00 0. -1.
          1    1    5    5  503    0 -0.72625022595E+02  0.81500155462E+02  0.11896424189E+03  0.16145946890E+03  0.00000000000E+00 0. -1.
         -2    1    5    5    0  503 -0.15539803337E+03  0.35723711104E+03  0.30709105443E+03  0.49605626494E+03  0.00000000000E+00 0.  1.
         -3    1    6    6    0  502  0.53590814487E+01 -0.32792974382E+03  0.71565266446E+03  0.78722637963E+03  0.00000000000E+00 0.  1.
<mgrwt>
<rscale>  0 0.20005869E+04</rscale>
<asrwt>0</asrwt>
<pdfrwt beam="1">  1        2 0.21999566E+00 0.20005869E+04</pdfrwt>
<pdfrwt beam="2">  1       -2 0.10765000E+00 0.20005869E+04</pdfrwt>
<totfact> 0.89476077E+00</totfact>
</mgrwt>
</event>
<event>
12    1  0.1472088E-007  0.3005254E+04  0.7818608E-02  0.8242232E-01
          2   -1    0    0  501    0  0.00000000000E+00  0.00000000000E+00  0.19216382383E+04  0.19216382383E+04  0.00000000000E+00 0.  1.
         -2   -1    0    0    0  501 -0.00000000000E+00 -0.00000000000E+00 -0.11749810631E+04  0.11749810631E+04  0.00000000000E+00 0. -1.
         23    2    1    2    0    0 -0.58525497056E+03  0.33108509468E+03 -0.88597745078E+03  0.11160352669E+04  0.91858331590E+02 0.  0.
        254    2    1    2    0    0  0.58525497056E+03 -0.33108509468E+03  0.16326346260E+04  0.19805840345E+04  0.89726059493E+03 0.  0.
        -24    2    4    4    0    0 -0.93538244123E+02 -0.41476696630E+03  0.62728377883E+03  0.76208993360E+03  0.80716096660E+02 0.  0.
         24    2    4    4    0    0  0.67879321468E+03  0.83681871613E+02  0.10053508472E+04  0.12184941009E+04  0.78959889183E+02 0.  0.
         13    1    3    3    0    0 -0.10395966340E+03  0.65849940105E+02 -0.10922143949E+03  0.16453920223E+03  0.00000000000E+00 0.  1.
        -13    1    3    3    0    0 -0.48129530716E+03  0.26523515458E+03 -0.77675601129E+03  0.95149606463E+03  0.00000000000E+00 0. -1.
          4    1    6    6  502    0  0.29209370947E+03  0.70604738629E+02  0.47302123151E+03  0.56040418422E+03  0.00000000000E+00 0. -1.
          1    1    5    5  503    0  0.10344578420E+02 -0.58299536104E+02  0.61644640912E+02  0.85474604215E+02  0.00000000000E+00 0. -1.
         -2    1    5    5    0  503 -0.10388282254E+03 -0.35646743019E+03  0.56563913792E+03  0.67661532938E+03  0.00000000000E+00 0.  1.
         -1    1    6    6    0  502  0.38669950521E+03  0.13077132985E+02  0.53232961570E+03  0.65808991672E+03  0.00000000000E+00 0.  1.
<mgrwt>
<rscale>  0 0.30052544E+04</rscale>
<asrwt>0</asrwt>
<pdfrwt beam="1">  1        2 0.29563665E+00 0.30052544E+04</pdfrwt>
<pdfrwt beam="2">  1       -2 0.18076632E+00 0.30052544E+04</pdfrwt>
<totfact> 0.11322295E+00</totfact>
</mgrwt>
</event>
<event>
12    1  0.1733768E-007  0.3331590E+04  0.7818608E-02  0.8154904E-01
          1   -1    0    0  501    0  0.00000000000E+00  0.00000000000E+00  0.31783702412E+04  0.31783702412E+04  0.00000000000E+00 0. -1.
         -1   -1    0    0    0  501 -0.00000000000E+00 -0.00000000000E+00 -0.87304902137E+03  0.87304902137E+03  0.00000000000E+00 0.  1.
         23    2    1    2    0    0  0.13822931221E+04 -0.29040701736E+03  0.17198494018E+04  0.22262697933E+04  0.57660354170E+02 0.  0.
        254    2    1    2    0    0 -0.13822931221E+04  0.29040701736E+03  0.58547181802E+03  0.18251494693E+04  0.99665582036E+03 0.  0.
        -24    2    4    4    0    0 -0.13120293392E+04  0.56003349182E+03  0.41088385791E+03  0.14868361467E+04  0.82448065804E+02 0.  0.
         24    2    4    4    0    0 -0.70263782890E+02 -0.26962647446E+03  0.17458796012E+03  0.33831332254E+03  0.79621061754E+02 0.  0.
         13    1    3    3    0    0  0.78346113701E+03 -0.17228027111E+03  0.10199083632E+04  0.12975765544E+04  0.00000000000E+00 0. -1.
        -13    1    3    3    0    0  0.59883198512E+03 -0.11812674626E+03  0.69994103858E+03  0.92869323895E+03  0.00000000000E+00 0.  1.
          4    1    6    6  502    0 -0.62195968700E+02 -0.26143713800E+03  0.14239280740E+03  0.30412732079E+03  0.00000000000E+00 0. -1.
          3    1    5    5  503    0 -0.12753519164E+04  0.54235146787E+03  0.38418673968E+03  0.14381470983E+04  0.00000000000E+00 0. -1.
         -4    1    5    5    0  503 -0.36677422863E+02  0.17682023949E+02  0.26697118228E+02  0.48689048465E+02  0.00000000000E+00 0.  1.
         -3    1    6    6    0  502 -0.80678141906E+01 -0.81893364534E+01  0.32195152713E+02  0.34186001749E+02  0.00000000000E+00 0.  1.
<mgrwt>
<rscale>  0 0.33315900E+04</rscale>
<asrwt>0</asrwt>
<pdfrwt beam="1">  1        1 0.48898003E+00 0.33315900E+04</pdfrwt>
<pdfrwt beam="2">  1       -1 0.13431524E+00 0.33315900E+04</pdfrwt>
<totfact> 0.17021128E-01</totfact>
</mgrwt>
</event>
<event>
12    1  0.1472088E-007  0.1958137E+04  0.7818608E-02  0.8626447E-01
          2   -1    0    0  501    0  0.00000000000E+00  0.00000000000E+00  0.48375653199E+04  0.48375653199E+04  0.00000000000E+00 0. -1.
         -2   -1    0    0    0  501 -0.00000000000E+00 -0.00000000000E+00 -0.19815230429E+03  0.19815230429E+03  0.00000000000E+00 0.  1.
         23    2    1    2    0    0 -0.33955787993E+03 -0.55993360443E+02  0.35885989742E+04  0.36063865476E+04  0.97706306917E+02 0.  0.
        254    2    1    2    0    0  0.33955787993E+03  0.55993360443E+02  0.10508140414E+04  0.14293310766E+04  0.90572753450E+03 0.  0.
        -24    2    4    4    0    0  0.42348756144E+03 -0.27012617857E+03  0.26959033219E+03  0.57573656307E+03  0.80521896421E+02 0.  0.
         24    2    4    4    0    0 -0.83929681504E+02  0.32611953902E+03  0.78122370917E+03  0.85359451352E+03  0.70106808391E+02 0.  0.
         11    1    3    3    0    0 -0.31151701173E+03 -0.40930630451E+02  0.28830444445E+04  0.29001143829E+04  0.00000000000E+00 0. -1.
        -11    1    3    3    0    0 -0.28040868200E+02 -0.15062729992E+02  0.70555452979E+03  0.70627216470E+03  0.00000000000E+00 0.  1.
          4    1    6    6  502    0 -0.25449067394E+02  0.56153968488E+02  0.21373227461E+03  0.22244641696E+03  0.00000000000E+00 0. -1.
          1    1    5    5  503    0  0.72491906709E+02 -0.31228599661E+02  0.14013232049E+02  0.80166530719E+02  0.00000000000E+00 0. -1.
         -2    1    5    5    0  503  0.35099565473E+03 -0.23889757891E+03  0.25557710014E+03  0.49557003235E+03  0.00000000000E+00 0.  1.
         -3    1    6    6    0  502 -0.58480614110E+02  0.26996557053E+03  0.56749143456E+03  0.63114809656E+03  0.00000000000E+00 0.  1.
<mgrwt>
<rscale>  0 0.19581366E+04</rscale>
<asrwt>0</asrwt>
<pdfrwt beam="1">  1        2 0.74424073E+00 0.19581366E+04</pdfrwt>
<pdfrwt beam="2">  1       -2 0.30484974E-01 0.19581366E+04</pdfrwt>
<totfact> 0.51216708E-01</totfact>
</mgrwt>
</event>
<event>
12    1  0.1679576E-007  0.2831689E+04  0.7818608E-02  0.8293497E-01
         -2   -1    0    0    0  501 -0.00000000000E+00  0.00000000000E+00  0.13679953275E+04  0.13679953275E+04  0.00000000000E+00 0.  1.
          2   -1    0    0  501    0  0.00000000000E+00 -0.00000000000E+00 -0.14653675547E+04  0.14653675547E+04  0.00000000000E+00 0. -1.
         23    2    1    2    0    0  0.74941035162E+03 -0.80894742306E+02  0.97544514434E+03  0.12361470197E+04  0.91686369374E+02 0.  0.
        254    2    1    2    0    0 -0.74941035162E+03  0.80894742306E+02 -0.10728173715E+04  0.15972158625E+04  0.91214119763E+03 0.  0.
        -24    2    4    4    0    0 -0.63238904258E+02 -0.55455482889E+02 -0.85100382011E+03  0.85904800846E+03  0.81740500346E+02 0.  0.
         24    2    4    4    0    0 -0.68617144737E+03  0.13635022520E+03 -0.22181355142E+03  0.73816785408E+03  0.79170007598E+02 0.  0.
         11    1    3    3    0    0  0.64899554002E+03 -0.69864921995E+02  0.89078675499E+03  0.11043447655E+04  0.00000000000E+00 0.  1.
        -11    1    3    3    0    0  0.10041481160E+03 -0.11029820311E+02  0.84658389343E+02  0.13180225420E+03  0.00000000000E+00 0. -1.
          4    1    6    6  502    0 -0.78474294454E+00  0.22827513127E+01  0.35827966436E+01  0.43200933825E+01  0.00000000000E+00 0. -1.
          3    1    5    5  503    0 -0.66071647303E+01  0.13864829039E+02 -0.35946394001E+02  0.39090041593E+02  0.00000000000E+00 0. -1.
         -4    1    5    5    0  503 -0.56631739528E+02 -0.69320311928E+02 -0.81505742611E+03  0.81995796687E+03  0.00000000000E+00 0.  1.
         -3    1    6    6    0  502 -0.68538670442E+03  0.13406747388E+03 -0.22539634807E+03  0.73384776069E+03  0.00000000000E+00 0.  1.
<mgrwt>
<rscale>  0 0.28316892E+04</rscale>
<asrwt>0</asrwt>
<pdfrwt beam="1">  1        2 0.22544116E+00 0.28316892E+04</pdfrwt>
<pdfrwt beam="2">  1       -2 0.21046082E+00 0.28316892E+04</pdfrwt>
<totfact> 0.13109634E+00</totfact>
</mgrwt>
</event>
<event>
12    1  0.1472088E-007  0.1296878E+04  0.7818608E-02  0.9032044E-01
          2   -1    0    0  501    0  0.00000000000E+00  0.00000000000E+00  0.10012282165E+04  0.10012282165E+04  0.00000000000E+00 0. -1.
         -2   -1    0    0    0  501 -0.00000000000E+00 -0.00000000000E+00 -0.41995745043E+03  0.41995745043E+03  0.00000000000E+00 0.  1.
         23    2    1    2    0    0  0.81596942872E+02 -0.29081693189E+03  0.30291124995E+03  0.43706096475E+03  0.89635442775E+02 0.  0.
        254    2    1    2    0    0 -0.81596942872E+02  0.29081693189E+03  0.27835951611E+03  0.98412470218E+03  0.89430691615E+03 0.  0.
        -24    2    4    4    0    0  0.34338104201E+03  0.72710015702E+02 -0.95115712881E+02  0.37238437525E+03  0.80161322945E+02 0.  0.
         24    2    4    4    0    0 -0.42497798489E+03  0.21810691618E+03  0.37347522899E+03  0.61174032693E+03  0.81028182752E+02 0.  0.
         13    1    3    3    0    0  0.96181310361E+02 -0.27883093581E+03  0.27433067347E+03  0.40280870601E+03  0.00000000000E+00 0. -1.
        -13    1    3    3    0    0 -0.14584367488E+02 -0.11985996073E+02  0.28580576473E+02  0.34252258734E+02  0.00000000000E+00 0.  1.
          4    1    6    6  502    0 -0.41673482037E+03  0.22514069387E+03  0.36546310554E+03  0.59826375793E+03  0.00000000000E+00 0. -1.
          3    1    5    5  503    0  0.23478322951E+03  0.30012365425E+02 -0.96696392766E+02  0.25568359218E+03  0.00000000000E+00 0. -1.
         -2    1    5    5    0  503  0.10859781250E+03  0.42697650277E+02  0.15806798856E+01  0.11670078307E+03  0.00000000000E+00 0.  1.
         -3    1    6    6    0  502 -0.82431645202E+01 -0.70337776872E+01  0.80121234502E+01  0.13476569001E+02  0.00000000000E+00 0.  1.
<mgrwt>
<rscale>  0 0.12968782E+04</rscale>
<asrwt>0</asrwt>
<pdfrwt beam="1">  1        2 0.15403511E+00 0.12968782E+04</pdfrwt>
<pdfrwt beam="2">  1       -2 0.64608839E-01 0.12968782E+04</pdfrwt>
<totfact> 0.54527213E+01</totfact>
</mgrwt>
</event>
<event>
12    1  0.1615817E-007  0.1855277E+04  0.7818608E-02  0.8677444E-01
         -2   -1    0    0    0  501 -0.00000000000E+00  0.00000000000E+00  0.57396238847E+03  0.57396238847E+03  0.00000000000E+00 0.  1.
          2   -1    0    0  501    0  0.00000000000E+00 -0.00000000000E+00 -0.14992501480E+04  0.14992501480E+04  0.00000000000E+00 0. -1.
         23    2    1    2    0    0 -0.46661729639E+03  0.35166193561E+03  0.90152792463E+02  0.59818792574E+03  0.91123269611E+02 0.  0.
        254    2    1    2    0    0  0.46661729639E+03 -0.35166193561E+03 -0.10154405520E+04  0.14750246108E+04  0.89620325227E+03 0.  0.
        -24    2    4    4    0    0  0.12052567266E+03 -0.21278019238E+03  0.11518304154E+03  0.28165645845E+03  0.79128878985E+02 0.  0.
         24    2    4    4    0    0  0.34609162373E+03 -0.13888174323E+03 -0.11306235936E+04  0.11933681523E+04  0.82160124109E+02 0.  0.
         11    1    3    3    0    0 -0.71973810238E+02  0.17856634436E+02  0.17820567729E+02  0.76267039983E+02  0.00000000000E+00 0. -1.
        -11    1    3    3    0    0 -0.39464348615E+03  0.33380530118E+03  0.72332224733E+02  0.52192088576E+03  0.00000000000E+00 0.  1.
          4    1    6    6  502    0  0.42170522550E+01 -0.17063709632E+02 -0.77285851006E+02  0.79259425193E+02  0.00000000000E+00 0. -1.
          1    1    5    5  503    0  0.40979670727E+02 -0.28949873186E+02 -0.83325367904E+00  0.50180901567E+02  0.00000000000E+00 0. -1.
         -2    1    5    5    0  503  0.79546001933E+02 -0.18383031920E+03  0.11601629522E+03  0.23147555688E+03  0.00000000000E+00 0.  1.
         -3    1    6    6    0  502  0.34187457147E+03 -0.12181803360E+03 -0.10533377426E+04  0.11141087271E+04  0.00000000000E+00 0.  1.
<mgrwt>
<rscale>  0 0.18552770E+04</rscale>
<asrwt>0</asrwt>
<pdfrwt beam="1">  1        2 0.23065387E+00 0.18552770E+04</pdfrwt>
<pdfrwt beam="2">  1       -2 0.88301905E-01 0.18552770E+04</pdfrwt>
<totfact> 0.13188079E+01</totfact>
</mgrwt>
</event>
<event>
12    1  0.1472088E-007  0.4417718E+04  0.7818608E-02  0.7925202E-01
          2   -1    0    0  501    0  0.00000000000E+00  0.00000000000E+00  0.26356138485E+04  0.26356138485E+04  0.00000000000E+00 0. -1.
         -2   -1    0    0    0  501 -0.00000000000E+00 -0.00000000000E+00 -0.18512039710E+04  0.18512039710E+04  0.00000000000E+00 0.  1.
         23    2    1    2    0    0  0.17736514087E+04 -0.19093267582E+03 -0.77096221296E+03  0.19449935786E+04  0.79515287742E+02 0.  0.
        254    2    1    2    0    0 -0.17736514087E+04  0.19093267582E+03  0.15553720905E+04  0.25418242408E+04  0.92703480271E+03 0.  0.
        -24    2    4    4    0    0 -0.61052882084E+03 -0.17316314196E+03  0.10879151343E+03  0.64857733228E+03  0.78013125426E+02 0.  0.
         24    2    4    4    0    0 -0.11631225878E+04  0.36409581777E+03  0.14465805770E+04  0.18932469086E+04  0.79803334203E+02 0.  0.
         11    1    3    3    0    0  0.12053067644E+04 -0.13488723945E+03 -0.48385249170E+03  0.13057841312E+04  0.00000000000E+00 0. -1.
        -11    1    3    3    0    0  0.56834464425E+03 -0.56045436370E+02 -0.28710972126E+03  0.63920944738E+03  0.00000000000E+00 0.  1.
          4    1    6    6  502    0 -0.26754276831E+03  0.52175171629E+02  0.34491305540E+03  0.43962074245E+03  0.00000000000E+00 0. -1.
          1    1    5    5  503    0 -0.25489967976E+03 -0.94001121092E+02  0.13632105795E+02  0.27202185908E+03  0.00000000000E+00 0. -1.
         -2    1    5    5    0  503 -0.35562914109E+03 -0.79162020864E+02  0.95159407638E+02  0.37655547320E+03  0.00000000000E+00 0.  1.
         -3    1    6    6    0  502 -0.89557981950E+03  0.31192064614E+03  0.11016675216E+04  0.14536261661E+04  0.00000000000E+00 0.  1.
<mgrwt>
<rscale>  0 0.44177183E+04</rscale>
<asrwt>0</asrwt>
<pdfrwt beam="1">  1        2 0.40547905E+00 0.44177183E+04</pdfrwt>
<pdfrwt beam="2">  1       -2 0.28480061E+00 0.44177183E+04</pdfrwt>
<totfact> 0.87062515E-02</totfact>
</mgrwt>
</event>
<event>
12    1  0.1472088E-007  0.1612454E+04  0.7818608E-02  0.8812933E-01
         -2   -1    0    0    0  501 -0.00000000000E+00  0.00000000000E+00  0.25988234262E+03  0.25988234262E+03  0.00000000000E+00 0.  1.
          2   -1    0    0  501    0  0.00000000000E+00 -0.00000000000E+00 -0.25011395504E+04  0.25011395504E+04  0.00000000000E+00 0. -1.
         23    2    1    2    0    0 -0.25826346735E+03 -0.41861027795E+03 -0.39293132119E+03  0.63614733225E+03  0.91399243938E+02 0.  0.
        254    2    1    2    0    0  0.25826346735E+03  0.41861027795E+03 -0.18483258866E+04  0.21248745608E+04  0.92566124075E+03 0.  0.
        -24    2    4    4    0    0 -0.15592903293E+03  0.50676603833E+03 -0.14164205792E+04  0.15147089453E+04  0.83488028611E+02 0.  0.
         24    2    4    4    0    0  0.41419250028E+03 -0.88155760382E+02 -0.43190530743E+03  0.61016561550E+03  0.80206099333E+02 0.  0.
         13    1    3    3    0    0 -0.20094040351E+03 -0.33305405437E+03 -0.35432707403E+03  0.52616511123E+03  0.00000000000E+00 0.  1.
        -13    1    3    3    0    0 -0.57323063842E+02 -0.85556223579E+02 -0.38604247163E+02  0.10998222102E+03  0.00000000000E+00 0. -1.
          4    1    6    6  502    0  0.28554450103E+03 -0.32763071856E+02 -0.32571769979E+03  0.43439739974E+03  0.00000000000E+00 0. -1.
          3    1    5    5  503    0 -0.13227844247E+03  0.43416948485E+03 -0.11166176668E+04  0.12053363604E+04  0.00000000000E+00 0. -1.
         -4    1    5    5    0  503 -0.23650590468E+02  0.72596553472E+02 -0.29980291242E+03  0.30937258492E+03  0.00000000000E+00 0.  1.
         -3    1    6    6    0  502  0.12864799925E+03 -0.55392688526E+02 -0.10618760764E+03  0.17576821576E+03  0.00000000000E+00 0.  1.
<mgrwt>
<rscale>  0 0.16124540E+04</rscale>
<asrwt>0</asrwt>
<pdfrwt beam="1">  1        2 0.38479072E+00 0.16124540E+04</pdfrwt>
<pdfrwt beam="2">  1       -2 0.39981897E-01 0.16124540E+04</pdfrwt>
<totfact> 0.19752673E+01</totfact>
</mgrwt>
</event>
<event>
12    1  0.1472088E-007  0.1339255E+04  0.7818608E-02  0.8999002E-01
          2   -1    0    0  501    0  0.00000000000E+00  0.00000000000E+00  0.20302557286E+04  0.20302557286E+04  0.00000000000E+00 0. -1.
         -2   -1    0    0    0  501 -0.00000000000E+00 -0.00000000000E+00 -0.22085934956E+03  0.22085934956E+03  0.00000000000E+00 0.  1.
         23    2    1    2    0    0  0.32709042791E+03  0.34248402631E+02  0.20345882323E+03  0.40238091717E+03  0.11114768842E+03 0.  0.
        254    2    1    2    0    0 -0.32709042791E+03 -0.34248402631E+02  0.16059375558E+04  0.18487341610E+04  0.85476398129E+03 0.  0.
        -24    2    4    4    0    0 -0.53251344462E+03  0.11384807028E+03  0.14237943679E+04  0.15264922637E+04  0.80350962318E+02 0.  0.
         24    2    4    4    0    0  0.20542301671E+03 -0.14809647291E+03  0.18214318787E+03  0.32224189729E+03  0.80823996420E+02 0.  0.
         13    1    3    3    0    0  0.32843359277E+03  0.24626978746E+02  0.17637696062E+03  0.37360934836E+03  0.00000000000E+00 0.  1.
        -13    1    3    3    0    0 -0.13431648651E+01  0.96214238847E+01  0.27081862613E+02  0.28771568814E+02  0.00000000000E+00 0. -1.
          2    1    6    6  502    0  0.87438038759E+02 -0.98144964498E+02  0.12693441972E+03  0.18272983224E+03  0.00000000000E+00 0. -1.
          3    1    5    5  503    0 -0.11293768042E+02  0.16771197790E+02  0.48877898751E+02  0.52894907677E+02  0.00000000000E+00 0. -1.
         -4    1    5    5    0  503 -0.52121967657E+03  0.97076872486E+02  0.13749164692E+04  0.14735973560E+04  0.00000000000E+00 0.  1.
         -1    1    6    6    0  502  0.11798497795E+03 -0.49951508408E+02  0.55208768148E+02  0.13951206505E+03  0.00000000000E+00 0.  1.
<mgrwt>
<rscale>  0 0.13392550E+04</rscale>
<asrwt>0</asrwt>
<pdfrwt beam="1">  1        2 0.31234702E+00 0.13392550E+04</pdfrwt>
<pdfrwt beam="2">  1       -2 0.33978363E-01 0.13392550E+04</pdfrwt>
<totfact> 0.50978158E+01</totfact>
</mgrwt>
</event>
<event>
12    1  0.1472088E-007  0.1150487E+04  0.7818608E-02  0.9157334E-01
         -3   -1    0    0    0  501 -0.00000000000E+00  0.00000000000E+00  0.85425756875E+03  0.85425756875E+03  0.00000000000E+00 0.  1.
          3   -1    0    0  501    0  0.00000000000E+00 -0.00000000000E+00 -0.38735986967E+03  0.38735986967E+03  0.00000000000E+00 0. -1.
         23    2    1    2    0    0  0.14070808256E+02  0.28633857393E+02  0.31561772821E+03  0.32976653126E+03  0.90075131641E+02 0.  0.
        254    2    1    2    0    0 -0.14070808256E+02 -0.28633857393E+02  0.15127997086E+03  0.91185090716E+03  0.89864818582E+03 0.  0.
        -24    2    4    4    0    0 -0.17455720950E+03 -0.35683918578E+03 -0.14755228709E+03  0.43290746979E+03  0.88502972133E+02 0.  0.
         24    2    4    4    0    0  0.16048640124E+03  0.32820532838E+03  0.29883225795E+03  0.47894343738E+03  0.81310978660E+02 0.  0.
         13    1    3    3    0    0  0.44614080627E+02 -0.47334577915E+01  0.10230350770E+03  0.11170868140E+03  0.00000000000E+00 0. -1.
        -13    1    3    3    0    0 -0.30543272371E+02  0.33367315185E+02  0.21331422052E+03  0.21805784986E+03  0.00000000000E+00 0.  1.
          4    1    6    6  502    0  0.16722210537E+03  0.32706370367E+03  0.29168779500E+03  0.46905827840E+03  0.00000000000E+00 0. -1.
          1    1    5    5  503    0 -0.18180701409E+03 -0.31275574153E+03 -0.13823227731E+03  0.38727006949E+03  0.00000000000E+00 0. -1.
         -2    1    5    5    0  503  0.72498045957E+01 -0.44083444244E+02 -0.93200097843E+01  0.45637400292E+02  0.00000000000E+00 0.  1.
         -3    1    6    6    0  502 -0.67357041296E+01  0.11416247119E+01  0.71444629535E+01  0.98851589769E+01  0.00000000000E+00 0.  1.
<mgrwt>
<rscale>  0 0.11504870E+04</rscale>
<asrwt>0</asrwt>
<pdfrwt beam="1">  1        3 0.59593826E-01 0.11504870E+04</pdfrwt>
<pdfrwt beam="2">  1       -3 0.13142424E+00 0.11504870E+04</pdfrwt>
<totfact> 0.32274446E+00</totfact>
</mgrwt>
</event>
<event>
12    1  0.1472088E-007  0.1797328E+04  0.7818608E-02  0.8707722E-01
          2   -1    0    0  501    0  0.00000000000E+00  0.00000000000E+00  0.46370776439E+04  0.46370776439E+04  0.00000000000E+00 0. -1.
         -2   -1    0    0    0  501 -0.00000000000E+00 -0.00000000000E+00 -0.17416067089E+03  0.17416067089E+03  0.00000000000E+00 0.  1.
         23    2    1    2    0    0  0.29156076088E+03 -0.47282939051E+03  0.68627619719E+03  0.88820355457E+03  0.96722415698E+02 0.  0.
        254    2    1    2    0    0 -0.29156076088E+03  0.47282939051E+03  0.37766407758E+04  0.39230347602E+04  0.90477117019E+03 0.  0.
        -24    2    4    4    0    0 -0.35508206931E+02  0.33224711209E+03  0.34885074232E+04  0.35053757172E+04  0.79535531897E+02 0.  0.
         24    2    4    4    0    0 -0.25605255395E+03  0.14058227843E+03  0.28813335262E+03  0.41765904300E+03  0.78051008414E+02 0.  0.
         13    1    3    3    0    0  0.28943540915E+03 -0.45413008287E+03  0.68185961439E+03  0.86887255796E+03  0.00000000000E+00 0.  1.
        -13    1    3    3    0    0  0.21253517372E+01 -0.18699307641E+02  0.44165827976E+01  0.19330996608E+02  0.00000000000E+00 0. -1.
          2    1    6    6  502    0 -0.21390904228E+03  0.97019947412E+02  0.18907415353E+03  0.30152775014E+03  0.00000000000E+00 0. -1.
          1    1    5    5  503    0  0.29459572596E+01  0.26987074046E+03  0.26806632885E+04  0.26942150177E+04  0.00000000000E+00 0. -1.
         -2    1    5    5    0  503 -0.38454164191E+02  0.62376371631E+02  0.80784413464E+03  0.81116069947E+03  0.00000000000E+00 0.  1.
         -1    1    6    6    0  502 -0.42143511667E+02  0.43562331015E+02  0.99059199080E+02  0.11613129286E+03  0.00000000000E+00 0.  1.
<mgrwt>
<rscale>  0 0.17973275E+04</rscale>
<asrwt>0</asrwt>
<pdfrwt beam="1">  1        2 0.71339647E+00 0.17973275E+04</pdfrwt>
<pdfrwt beam="2">  1       -2 0.26793953E-01 0.17973275E+04</pdfrwt>
<totfact> 0.10954803E+00</totfact>
</mgrwt>
</event>
<event>
12    1  0.1472088E-007  0.3248188E+04  0.7818608E-02  0.8176206E-01
          1   -1    0    0  501    0  0.00000000000E+00  0.00000000000E+00  0.33003013625E+04  0.33003013625E+04  0.00000000000E+00 0. -1.
         -1   -1    0    0    0  501 -0.00000000000E+00 -0.00000000000E+00 -0.79922428338E+03  0.79922428338E+03  0.00000000000E+00 0.  1.
         23    2    1    2    0    0  0.84386573183E+03  0.64152067096E+03  0.25027124614E+04  0.27194406180E+04  0.90163549784E+02 0.  0.
        254    2    1    2    0    0 -0.84386573183E+03 -0.64152067096E+03 -0.16353822414E+01  0.13800850279E+04  0.88372725725E+03 0.  0.
        -24    2    4    4    0    0 -0.53417578595E+03  0.11279453170E+03  0.76171711101E+02  0.55701951462E+03  0.80013957630E+02 0.  0.
         24    2    4    4    0    0 -0.30968994587E+03 -0.75431520266E+03 -0.77807093342E+02  0.82306551331E+03  0.80520853712E+02 0.  0.
         11    1    3    3    0    0  0.65340871183E+03  0.46494197109E+03  0.18127686631E+04  0.19822321275E+04  0.00000000000E+00 0. -1.
        -11    1    3    3    0    0  0.19045701999E+03  0.17657869988E+03  0.68994379825E+03  0.73720849050E+03  0.00000000000E+00 0.  1.
          4    1    6    6  502    0 -0.16727262181E+03 -0.30373757158E+03 -0.27296568460E+02  0.34782430198E+03  0.00000000000E+00 0. -1.
          1    1    5    5  503    0 -0.47350451020E+03  0.12342332857E+03  0.77414127006E+02  0.49541173409E+03  0.00000000000E+00 0. -1.
         -2    1    5    5    0  503 -0.60671275753E+02 -0.10628796871E+02 -0.12424159049E+01  0.61607780529E+02  0.00000000000E+00 0.  1.
         -3    1    6    6    0  502 -0.14241732407E+03 -0.45057763107E+03 -0.50510524882E+02  0.47524121132E+03  0.00000000000E+00 0.  1.
<mgrwt>
<rscale>  0 0.32481878E+04</rscale>
<asrwt>0</asrwt>
<pdfrwt beam="1">  1        1 0.50773867E+00 0.32481878E+04</pdfrwt>
<pdfrwt beam="2">  1       -1 0.12295758E+00 0.32481878E+04</pdfrwt>
<totfact> 0.17319503E-01</totfact>
</mgrwt>
</event>
<event>
12    1  0.1472088E-007  0.1485432E+04  0.7818608E-02  0.8894199E-01
         -2   -1    0    0    0  501 -0.00000000000E+00  0.00000000000E+00  0.47174008809E+03  0.47174008809E+03  0.00000000000E+00 0.  1.
          2   -1    0    0  501    0  0.00000000000E+00 -0.00000000000E+00 -0.11693454590E+04  0.11693454590E+04  0.00000000000E+00 0. -1.
         23    2    1    2    0    0 -0.93616610933E+02 -0.43415842323E+03 -0.36699972213E+03  0.58339684559E+03  0.91681389019E+02 0.  0.
        254    2    1    2    0    0  0.93616610933E+02  0.43415842323E+03 -0.33060564879E+03  0.10576887015E+04  0.90119237013E+03 0.  0.
        -24    2    4    4    0    0  0.20932705444E+03 -0.22398231385E+03 -0.19521608695E+03  0.37138139929E+03  0.76347432827E+02 0.  0.
         24    2    4    4    0    0 -0.11571044350E+03  0.65814073708E+03 -0.13538956184E+03  0.68630730221E+03  0.78417109549E+02 0.  0.
         11    1    3    3    0    0  0.16677568500E+02 -0.59614615460E+02 -0.65220501816E+02  0.89920840324E+02  0.00000000000E+00 0.  1.
        -11    1    3    3    0    0 -0.11029417943E+03 -0.37454380777E+03 -0.30177922031E+03  0.49347600526E+03  0.00000000000E+00 0. -1.
          4    1    6    6  502    0 -0.89792766979E+02  0.61803255762E+03 -0.13279286806E+03  0.63848330369E+03  0.00000000000E+00 0. -1.
          1    1    5    5  503    0  0.15094341628E+03 -0.20458919621E+03 -0.16193508257E+03  0.30143593862E+03  0.00000000000E+00 0. -1.
         -2    1    5    5    0  503  0.58383638158E+02 -0.19393117641E+02 -0.33281004377E+02  0.69945460673E+02  0.00000000000E+00 0.  1.
         -3    1    6    6    0  502 -0.25917676526E+02  0.40108179463E+02 -0.25966937828E+01  0.47823998525E+02  0.00000000000E+00 0.  1.
<mgrwt>
<rscale>  0 0.14854321E+04</rscale>
<asrwt>0</asrwt>
<pdfrwt beam="1">  1        2 0.17989930E+00 0.14854321E+04</pdfrwt>
<pdfrwt beam="2">  1       -2 0.72575399E-01 0.14854321E+04</pdfrwt>
<totfact> 0.32827181E+01</totfact>
</mgrwt>
</event>
<event>
12    1  0.1472088E-007  0.2106073E+04  0.7818608E-02  0.8558573E-01
         -1   -1    0    0    0  501 -0.00000000000E+00  0.00000000000E+00  0.62633673347E+03  0.62633673347E+03  0.00000000000E+00 0.  1.
          1   -1    0    0  501    0  0.00000000000E+00 -0.00000000000E+00 -0.17704307907E+04  0.17704307907E+04  0.00000000000E+00 0. -1.
         23    2    1    2    0    0 -0.58856128724E+03  0.60710336021E+03 -0.72214267360E+03  0.11157154063E+04  0.91388992514E+02 0.  0.
        254    2    1    2    0    0  0.58856128724E+03 -0.60710336021E+03 -0.42195138361E+03  0.12810521179E+04  0.86491194915E+03 0.  0.
        -24    2    4    4    0    0 -0.87468568908E+02 -0.70645132809E+02  0.17927926417E+03  0.22629393162E+03  0.80164852597E+02 0.  0.
         24    2    4    4    0    0  0.67602985615E+03 -0.53645822740E+03 -0.60123064778E+03  0.10547581863E+04  0.78947726357E+02 0.  0.
         13    1    3    3    0    0 -0.13240722350E+03  0.10558531805E+03 -0.18472514994E+03  0.25060589227E+03  0.00000000000E+00 0.  1.
        -13    1    3    3    0    0 -0.45615406374E+03  0.50151804216E+03 -0.53741752366E+03  0.86510951401E+03  0.00000000000E+00 0. -1.
          2    1    6    6  502    0  0.31384625475E+03 -0.22211342067E+03 -0.30798996616E+03  0.49263745545E+03  0.00000000000E+00 0. -1.
          1    1    5    5  503    0 -0.32517271930E+02 -0.71774959415E+02  0.76948522306E+02  0.11013670078E+03  0.00000000000E+00 0. -1.
         -2    1    5    5    0  503 -0.54951296979E+02  0.11298266058E+01  0.10233074186E+03  0.11615723085E+03  0.00000000000E+00 0.  1.
         -3    1    6    6    0  502  0.36218360140E+03 -0.31434480673E+03 -0.29324068162E+03  0.56212073080E+03  0.00000000000E+00 0.  1.
<mgrwt>
<rscale>  0 0.21060730E+04</rscale>
<asrwt>0</asrwt>
<pdfrwt beam="1">  1        1 0.27237397E+00 0.21060730E+04</pdfrwt>
<pdfrwt beam="2">  1       -1 0.96359497E-01 0.21060730E+04</pdfrwt>
<totfact> 0.40670191E+00</totfact>
</mgrwt>
</event>
<event>
12    1  0.1472088E-007  0.2209033E+04  0.7818608E-02  0.8514678E-01
         -2   -1    0    0    0  501 -0.00000000000E+00  0.00000000000E+00  0.13602641584E+04  0.13602641584E+04  0.00000000000E+00 0.  1.
          2   -1    0    0  501    0  0.00000000000E+00 -0.00000000000E+00 -0.89685280434E+03  0.89685280434E+03  0.00000000000E+00 0. -1.
         23    2    1    2    0    0  0.55199667137E+03 -0.40077263401E+03  0.78347118020E+03  0.10428592211E+04  0.91701883988E+02 0.  0.
        254    2    1    2    0    0 -0.55199667137E+03  0.40077263401E+03 -0.32005982612E+03  0.12142577416E+04  0.95218934118E+03 0.  0.
        -24    2    4    4    0    0 -0.16945495132E+03  0.33899681570E+03 -0.61047978594E+03  0.72319675514E+03  0.81817822130E+02 0.  0.
         24    2    4    4    0    0 -0.38254172005E+03  0.61775818302E+02  0.29041995982E+03  0.49106098650E+03  0.81502883938E+02 0.  0.
         13    1    3    3    0    0  0.52377451730E+02 -0.38325931364E+02  0.38723342470E+02  0.75576264241E+02  0.00000000000E+00 0. -1.
        -13    1    3    3    0    0  0.49961921964E+03 -0.36244670264E+03  0.74474783773E+03  0.96728295689E+03  0.00000000000E+00 0.  1.
          4    1    6    6  502    0 -0.33099751688E+03  0.48281465341E+02  0.21121891758E+03  0.39560572192E+03  0.00000000000E+00 0. -1.
          3    1    5    5  503    0 -0.94214729412E+02  0.26186322253E+03 -0.46905369878E+03  0.54539906022E+03  0.00000000000E+00 0. -1.
         -4    1    5    5    0  503 -0.75240221903E+02  0.77133593170E+02 -0.14142608716E+03  0.17779769491E+03  0.00000000000E+00 0.  1.
         -1    1    6    6    0  502 -0.51544203171E+02  0.13494352961E+02  0.79201042241E+02  0.95455264572E+02  0.00000000000E+00 0.  1.
<mgrwt>
<rscale>  0 0.22090330E+04</rscale>
<asrwt>0</asrwt>
<pdfrwt beam="1">  1        2 0.13797735E+00 0.22090330E+04</pdfrwt>
<pdfrwt beam="2">  1       -2 0.20927141E+00 0.22090330E+04</pdfrwt>
<totfact> 0.31142303E+00</totfact>
</mgrwt>
</event>
<event>
12    1  0.1472088E-007  0.2245109E+04  0.7818608E-02  0.8499884E-01
         -1   -1    0    0    0  501 -0.00000000000E+00  0.00000000000E+00  0.10787415643E+04  0.10787415643E+04  0.00000000000E+00 0.  1.
          1   -1    0    0  501    0  0.00000000000E+00 -0.00000000000E+00 -0.11681468960E+04  0.11681468960E+04  0.00000000000E+00 0. -1.
         23    2    1    2    0    0 -0.78777071948E+03 -0.10981120156E+03  0.44388573073E+03  0.91889009459E+03  0.12117449210E+03 0.  0.
        254    2    1    2    0    0  0.78777071948E+03  0.10981120156E+03 -0.53329106242E+03  0.13279983657E+04  0.92007559239E+03 0.  0.
        -24    2    4    4    0    0 -0.57385579606E+02  0.32681466228E+03 -0.14256299951E+03  0.36900051437E+03  0.75737986163E+02 0.  0.
         24    2    4    4    0    0  0.84515629908E+03 -0.21700346072E+03 -0.39072806291E+03  0.95899785138E+03  0.75025248779E+02 0.  0.
         11    1    3    3    0    0 -0.24240092552E+03 -0.45652028514E+02  0.20211042439E+03  0.31889016926E+03  0.00000000000E+00 0.  1.
        -11    1    3    3    0    0 -0.54536979396E+03 -0.64159173044E+02  0.24177530634E+03  0.59999992533E+03  0.00000000000E+00 0. -1.
          2    1    6    6  502    0  0.25743388588E+03 -0.68961241271E+02 -0.15763342240E+03  0.30963874799E+03  0.00000000000E+00 0. -1.
          1    1    5    5  503    0  0.17108536856E+02  0.37702976961E+02 -0.23276278191E+02  0.47497385522E+02  0.00000000000E+00 0. -1.
         -2    1    5    5    0  503 -0.74494116462E+02  0.28911168532E+03 -0.11928672132E+03  0.32150312884E+03  0.00000000000E+00 0.  1.
         -1    1    6    6    0  502  0.58772241320E+03 -0.14804221945E+03 -0.23309464051E+03  0.64935910339E+03  0.00000000000E+00 0.  1.
<mgrwt>
<rscale>  0 0.22451090E+04</rscale>
<asrwt>0</asrwt>
<pdfrwt beam="1">  1        1 0.17971491E+00 0.22451090E+04</pdfrwt>
<pdfrwt beam="2">  1       -1 0.16596024E+00 0.22451090E+04</pdfrwt>
<totfact> 0.27000675E+00</totfact>
</mgrwt>
</event>
<event>
12    1  0.1472088E-007  0.1697917E+04  0.7818608E-02  0.8762553E-01
          1   -1    0    0  501    0  0.00000000000E+00  0.00000000000E+00  0.18252978434E+04  0.18252978434E+04  0.00000000000E+00 0. -1.
         -1   -1    0    0    0  501 -0.00000000000E+00 -0.00000000000E+00 -0.39485632073E+03  0.39485632073E+03  0.00000000000E+00 0.  1.
         23    2    1    2    0    0 -0.90232795259E+00  0.57704915291E+03  0.28588981753E+03  0.65036816752E+03  0.90880286523E+02 0.  0.
        254    2    1    2    0    0  0.90232795259E+00 -0.57704915291E+03  0.11445517051E+04  0.15697859966E+04  0.90622454742E+03 0.  0.
        -24    2    4    4    0    0 -0.82492632563E+02 -0.57537436785E+03  0.12698904329E+04  0.13988973860E+04  0.80196555446E+02 0.  0.
         24    2    4    4    0    0  0.83394960515E+02 -0.16747850670E+01 -0.12533872777E+03  0.17088861056E+03  0.80843034306E+02 0.  0.
         11    1    3    3    0    0  0.66672807048E+01  0.28615067629E+03  0.19175629069E+03  0.34452450884E+03  0.00000000000E+00 0. -1.
        -11    1    3    3    0    0 -0.75696086573E+01  0.29089847663E+03  0.94133526844E+02  0.30584365868E+03  0.00000000000E+00 0.  1.
          2    1    6    6  502    0 -0.52954918558E+01 -0.13298003465E+02 -0.55751303382E+02  0.57559421113E+02  0.00000000000E+00 0. -1.
          1    1    5    5  503    0 -0.22027254702E+01 -0.17945244899E+03  0.46198580249E+03  0.49561972837E+03  0.00000000000E+00 0. -1.
         -2    1    5    5    0  503 -0.80289907093E+02 -0.39592191886E+03  0.80790463040E+03  0.90327765767E+03  0.00000000000E+00 0.  1.
         -1    1    6    6    0  502  0.88690452371E+02  0.11623218398E+02 -0.69587424391E+02  0.11332918945E+03  0.00000000000E+00 0.  1.
<mgrwt>
<rscale>  0 0.16979168E+04</rscale>
<asrwt>0</asrwt>
<pdfrwt beam="1">  1        1 0.28081505E+00 0.16979168E+04</pdfrwt>
<pdfrwt beam="2">  1       -1 0.60747128E-01 0.16979168E+04</pdfrwt>
<totfact> 0.10243072E+01</totfact>
</mgrwt>
</event>
<event>
12    1  0.1472088E-007  0.1920166E+04  0.7818608E-02  0.8644883E-01
         -2   -1    0    0    0  501 -0.00000000000E+00  0.00000000000E+00  0.49262034529E+03  0.49262034529E+03  0.00000000000E+00 0.  1.
          2   -1    0    0  501    0  0.00000000000E+00 -0.00000000000E+00 -0.18711360403E+04  0.18711360403E+04  0.00000000000E+00 0. -1.
         23    2    1    2    0    0 -0.43134554857E+03  0.19457884066E+03 -0.12638600725E+04  0.13525171434E+04  0.89668460348E+02 0.  0.
        254    2    1    2    0    0  0.43134554857E+03 -0.19457884066E+03 -0.11465562253E+03  0.10112392422E+04  0.88630637239E+03 0.  0.
        -24    2    4    4    0    0  0.59390906822E+03 -0.30385640747E+03 -0.29466686749E+03  0.73367643243E+03  0.79974039720E+02 0.  0.
         24    2    4    4    0    0 -0.16256351965E+03  0.10927756681E+03  0.18001124495E+03  0.27756280980E+03  0.79174367989E+02 0.  0.
         13    1    3    3    0    0 -0.11259123025E+03  0.37067717317E+02 -0.42957364461E+03  0.44562800287E+03  0.00000000000E+00 0. -1.
        -13    1    3    3    0    0 -0.31875431832E+03  0.15751112334E+03 -0.83428642790E+03  0.90688914052E+03  0.00000000000E+00 0.  1.
          4    1    6    6  502    0 -0.12880791943E+03  0.98689053791E+02  0.17978440828E+03  0.24218472889E+03  0.00000000000E+00 0. -1.
          1    1    5    5  503    0  0.49026436908E+03 -0.28332101799E+03 -0.24793022794E+03  0.61814185164E+03  0.00000000000E+00 0. -1.
         -2    1    5    5    0  503  0.10364469914E+03 -0.20535389478E+02 -0.46736639544E+02  0.11553458079E+03  0.00000000000E+00 0.  1.
         -3    1    6    6    0  502 -0.33755600222E+02  0.10588513016E+02  0.22683667291E+00  0.35378080913E+02  0.00000000000E+00 0.  1.
<mgrwt>
<rscale>  0 0.19201663E+04</rscale>
<asrwt>0</asrwt>
<pdfrwt beam="1">  1        2 0.28786709E+00 0.19201663E+04</pdfrwt>
<pdfrwt beam="2">  1       -2 0.75787745E-01 0.19201663E+04</pdfrwt>
<totfact> 0.11492858E+01</totfact>
</mgrwt>
</event>
<event>
12    1  0.1472088E-007  0.1829640E+04  0.7818608E-02  0.8690694E-01
         -2   -1    0    0    0  501 -0.00000000000E+00  0.00000000000E+00  0.56656293549E+03  0.56656293549E+03  0.00000000000E+00 0.  1.
          2   -1    0    0  501    0  0.00000000000E+00 -0.00000000000E+00 -0.14771446310E+04  0.14771446310E+04  0.00000000000E+00 0. -1.
         23    2    1    2    0    0  0.32066360170E+03 -0.42848307407E+03  0.14620964573E+03  0.56198122694E+03  0.89569797949E+02 0.  0.
        254    2    1    2    0    0 -0.32066360170E+03  0.42848307407E+03 -0.10567913412E+04  0.14817263395E+04  0.89010230657E+03 0.  0.
        -24    2    4    4    0    0 -0.64050460879E+02 -0.20808839168E+03 -0.15981458444E+02  0.23256250803E+03  0.80166531888E+02 0.  0.
         24    2    4    4    0    0 -0.25661314082E+03  0.63657146576E+03 -0.10408098828E+04  0.12491638315E+04  0.77791585605E+02 0.  0.
         13    1    3    3    0    0  0.66894809434E+02 -0.38096300172E+02  0.18756251978E+02  0.79234087388E+02  0.00000000000E+00 0. -1.
        -13    1    3    3    0    0  0.25376879226E+03 -0.39038677390E+03  0.12745339375E+03  0.48274713955E+03  0.00000000000E+00 0.  1.
          4    1    6    6  502    0 -0.24078306171E+03  0.57203522985E+03 -0.89746868789E+03  0.10911694794E+04  0.00000000000E+00 0. -1.
          1    1    5    5  503    0 -0.52788555290E+02 -0.14516085327E+03 -0.47073441299E+02  0.16147511810E+03  0.00000000000E+00 0. -1.
         -2    1    5    5    0  503 -0.11261905589E+02 -0.62927538415E+02  0.31091982855E+02  0.71087389925E+02  0.00000000000E+00 0.  1.
         -3    1    6    6    0  502 -0.15830079108E+02  0.64536235906E+02 -0.14334119489E+03  0.15799435212E+03  0.00000000000E+00 0.  1.
<mgrwt>
<rscale>  0 0.18296397E+04</rscale>
<asrwt>0</asrwt>
<pdfrwt beam="1">  1        2 0.22725302E+00 0.18296397E+04</pdfrwt>
<pdfrwt beam="2">  1       -2 0.87163529E-01 0.18296397E+04</pdfrwt>
<totfact> 0.14012710E+01</totfact>
</mgrwt>
</event>
<event>
12    1  0.1472088E-007  0.2097813E+04  0.7818608E-02  0.8562207E-01
         -1   -1    0    0    0  501 -0.00000000000E+00  0.00000000000E+00  0.13633008960E+04  0.13633008960E+04  0.00000000000E+00 0.  1.
          1   -1    0    0  501    0  0.00000000000E+00 -0.00000000000E+00 -0.80701572521E+03  0.80701572521E+03  0.00000000000E+00 0. -1.
         23    2    1    2    0    0 -0.39811743547E+03 -0.51537721107E+03 -0.34412301580E+03  0.74429081625E+03  0.10694394348E+03 0.  0.
        254    2    1    2    0    0  0.39811743547E+03  0.51537721107E+03  0.90040818659E+03  0.14260258050E+04  0.89370214938E+03 0.  0.
        -24    2    4    4    0    0  0.33585385262E+03 -0.15256804584E+03  0.54459746757E+03  0.66253073376E+03  0.79282738111E+02 0.  0.
         24    2    4    4    0    0  0.62263582845E+02  0.66794525691E+03  0.35581071902E+03  0.76349507119E+03  0.79346304190E+02 0.  0.
         11    1    3    3    0    0 -0.35567779110E+03 -0.47461228321E+03 -0.34360939804E+03  0.68544214116E+03  0.00000000000E+00 0. -1.
        -11    1    3    3    0    0 -0.42439644363E+02 -0.40764927855E+02 -0.51361775920E+00  0.58848675090E+02  0.00000000000E+00 0.  1.
          2    1    6    6  502    0  0.67856347868E+02  0.56082102745E+03  0.32570621557E+03  0.65208070638E+03  0.00000000000E+00 0. -1.
          3    1    5    5  503    0  0.21014197921E+03 -0.13631830752E+03  0.36738620941E+03  0.44465150316E+03  0.00000000000E+00 0. -1.
         -4    1    5    5    0  503  0.12571187341E+03 -0.16249738320E+02  0.17721125816E+03  0.21787923060E+03  0.00000000000E+00 0.  1.
         -1    1    6    6    0  502 -0.55927650228E+01  0.10712422946E+03  0.30104503451E+02  0.11141436481E+03  0.00000000000E+00 0.  1.
<mgrwt>
<rscale>  0 0.20978134E+04</rscale>
<asrwt>0</asrwt>
<pdfrwt beam="1">  1        1 0.12415626E+00 0.20978134E+04</pdfrwt>
<pdfrwt beam="2">  1       -1 0.20973860E+00 0.20978134E+04</pdfrwt>
<totfact> 0.25883171E+00</totfact>
</mgrwt>
</event>
<event>
12    1  0.1472088E-007  0.2645999E+04  0.7818608E-02  0.8352742E-01
         -1   -1    0    0    0  501 -0.00000000000E+00  0.00000000000E+00  0.13089860879E+04  0.13089860879E+04  0.00000000000E+00 0.  1.
          1   -1    0    0  501    0  0.00000000000E+00 -0.00000000000E+00 -0.13371634154E+04  0.13371634154E+04  0.00000000000E+00 0. -1.
         23    2    1    2    0    0 -0.93391924193E+03  0.16413398686E+03 -0.69802806282E+03  0.11810715395E+04  0.92421257486E+02 0.  0.
        254    2    1    2    0    0  0.93391924193E+03 -0.16413398686E+03  0.66985073538E+03  0.14650779638E+04  0.89364887743E+03 0.  0.
        -24    2    4    4    0    0  0.70412507340E+03  0.25661611535E+03  0.62086268892E+03  0.97651538114E+03  0.80423015788E+02 0.  0.
         24    2    4    4    0    0  0.22979416854E+03 -0.42075010221E+03  0.48988046461E+02  0.48856258262E+03  0.80358945011E+02 0.  0.
         11    1    3    3    0    0 -0.75625894691E+03  0.95901965423E+02 -0.56531694093E+03  0.94905638686E+03  0.00000000000E+00 0. -1.
        -11    1    3    3    0    0 -0.17766029503E+03  0.68232021437E+02 -0.13271112190E+03  0.23201515264E+03  0.00000000000E+00 0.  1.
          2    1    6    6  502    0  0.16659760058E+03 -0.36660485573E+03  0.45830799870E+02  0.40528304058E+03  0.00000000000E+00 0. -1.
          1    1    5    5  503    0  0.64870363468E+03  0.25662498756E+03  0.58562717723E+03  0.91084135863E+03  0.00000000000E+00 0. -1.
         -2    1    5    5    0  503  0.55421438720E+02 -0.88722108608E-02  0.35235511691E+02  0.65674022511E+02  0.00000000000E+00 0.  1.
         -1    1    6    6    0  502  0.63196567954E+02 -0.54145246481E+02  0.31572465914E+01  0.83279542048E+02  0.00000000000E+00 0.  1.
<mgrwt>
<rscale>  0 0.26459995E+04</rscale>
<asrwt>0</asrwt>
<pdfrwt beam="1">  1        1 0.20571745E+00 0.26459995E+04</pdfrwt>
<pdfrwt beam="2">  1       -1 0.20138247E+00 0.26459995E+04</pdfrwt>
<totfact> 0.10992198E+00</totfact>
</mgrwt>
</event>
<event>
12    1  0.1472088E-007  0.1494804E+04  0.7818608E-02  0.8887915E-01
         -2   -1    0    0    0  501 -0.00000000000E+00  0.00000000000E+00  0.48499616801E+03  0.48499616801E+03  0.00000000000E+00 0. -1.
          2   -1    0    0  501    0  0.00000000000E+00 -0.00000000000E+00 -0.11517821237E+04  0.11517821237E+04  0.00000000000E+00 0.  1.
         23    2    1    2    0    0 -0.41311684163E+03 -0.50291844247E+02 -0.45793406929E+03  0.62387336339E+03  0.79495706162E+02 0.  0.
        254    2    1    2    0    0  0.41311684163E+03  0.50291844247E+02 -0.20885188641E+03  0.10129049283E+04  0.89953459575E+03 0.  0.
        -24    2    4    4    0    0  0.53356628203E+03  0.25128813450E+03 -0.38386905442E+03  0.70874098157E+03  0.84377865349E+02 0.  0.
         24    2    4    4    0    0 -0.12044944041E+03 -0.20099629025E+03  0.17501716801E+03  0.30416394676E+03  0.83529162695E+02 0.  0.
         11    1    3    3    0    0 -0.35860708782E+03 -0.70264549057E+02 -0.38820423812E+03  0.53314039500E+03  0.00000000000E+00 0. -1.
        -11    1    3    3    0    0 -0.54509753810E+02  0.19972704810E+02 -0.69729831178E+02  0.90732968396E+02  0.00000000000E+00 0.  1.
          2    1    6    6  502    0 -0.10710795093E+02  0.17778499229E+01 -0.47006521140E+01  0.11831230375E+02  0.00000000000E+00 0. -1.
          3    1    5    5  503    0  0.31515788590E+02  0.24472048442E+02 -0.52178924452E+02  0.65686880291E+02  0.00000000000E+00 0. -1.
         -4    1    5    5    0  503  0.50205049344E+03  0.22681608605E+03 -0.33169012997E+03  0.64305410128E+03  0.00000000000E+00 0.  1.
         -1    1    6    6    0  502 -0.10973864532E+03 -0.20277414017E+03  0.17971782012E+03  0.29233271638E+03  0.00000000000E+00 0.  1.
<mgrwt>
<rscale>  0 0.14948042E+04</rscale>
<asrwt>0</asrwt>
<pdfrwt beam="1">  1        2 0.17719725E+00 0.14948042E+04</pdfrwt>
<pdfrwt beam="2">  1       -2 0.74614796E-01 0.14948042E+04</pdfrwt>
<totfact> 0.31620802E+01</totfact>
</mgrwt>
</event>
<event>
12    1  0.1472088E-007  0.1508710E+04  0.7818608E-02  0.8878681E-01
          1   -1    0    0  501    0  0.00000000000E+00  0.00000000000E+00  0.18842554974E+04  0.18842554974E+04  0.00000000000E+00 0. -1.
         -1   -1    0    0    0  501 -0.00000000000E+00 -0.00000000000E+00 -0.30200337185E+03  0.30200337185E+03  0.00000000000E+00 0.  1.
         23    2    1    2    0    0  0.37591830215E+03 -0.23544477204E+02  0.10083065376E+04  0.10793867983E+04  0.80776694780E+02 0.  0.
        254    2    1    2    0    0 -0.37591830215E+03  0.23544477204E+02  0.57394558793E+03  0.11068720709E+04  0.86826455131E+03 0.  0.
        -24    2    4    4    0    0  0.23307458288E+03 -0.14641863583E+03  0.30006881696E+03  0.41375392043E+03  0.73408675643E+02 0.  0.
         24    2    4    4    0    0 -0.60899288503E+03  0.16996311303E+03  0.27387677097E+03  0.69311815044E+03  0.75129827511E+02 0.  0.
         11    1    3    3    0    0  0.34224146599E+02  0.13702989198E+02  0.56930988223E+02  0.67824785613E+02  0.00000000000E+00 0.  1.
        -11    1    3    3    0    0  0.34169415555E+03 -0.37247466402E+02  0.95137554935E+03  0.10115620127E+04  0.00000000000E+00 0. -1.
          4    1    6    6  502    0 -0.28045812294E+03  0.46603195317E+02  0.99166851643E+02  0.30110244270E+03  0.00000000000E+00 0. -1.
          3    1    5    5  503    0  0.23478252692E+03 -0.13799953616E+03  0.29998378766E+03  0.40516290524E+03  0.00000000000E+00 0. -1.
         -4    1    5    5    0  503 -0.17079440397E+01 -0.84190996651E+01  0.85029302970E-01  0.85910151901E+01  0.00000000000E+00 0.  1.
         -3    1    6    6    0  502 -0.32853476209E+03  0.12335991772E+03  0.17470991933E+03  0.39201570774E+03  0.00000000000E+00 0.  1.
<mgrwt>
<rscale>  0 0.15087101E+04</rscale>
<asrwt>0</asrwt>
<pdfrwt beam="1">  1        1 0.28988545E+00 0.15087101E+04</pdfrwt>
<pdfrwt beam="2">  1       -1 0.46462058E-01 0.15087101E+04</pdfrwt>
<totfact> 0.15926800E+01</totfact>
</mgrwt>
</event>
<event>
12    1  0.1472088E-007  0.1701274E+04  0.7818608E-02  0.8760638E-01
          2   -1    0    0  501    0  0.00000000000E+00  0.00000000000E+00  0.84889437557E+03  0.84889437557E+03  0.00000000000E+00 0.  1.
         -2   -1    0    0    0  501 -0.00000000000E+00 -0.00000000000E+00 -0.85238279523E+03  0.85238279523E+03  0.00000000000E+00 0. -1.
         23    2    1    2    0    0  0.34998139212E+03  0.28890836603E+02 -0.52548805933E+03  0.63862052161E+03  0.91524941189E+02 0.  0.
        254    2    1    2    0    0 -0.34998139212E+03 -0.28890836603E+02  0.52199963966E+03  0.10626566492E+04  0.85640754025E+03 0.  0.
        -24    2    4    4    0    0  0.50080644601E+02  0.23816139499E+03  0.51481220861E+03  0.57497093714E+03  0.79567879146E+02 0.  0.
         24    2    4    4    0    0 -0.40006203672E+03 -0.26705223159E+03  0.71874310488E+01  0.48768571205E+03  0.80119703923E+02 0.  0.
         11    1    3    3    0    0  0.29489881389E+03  0.44784162638E+02 -0.38605882679E+03  0.48786509344E+03  0.00000000000E+00 0. -1.
        -11    1    3    3    0    0  0.55082578228E+02 -0.15893326035E+02 -0.13942923254E+03  0.15075542817E+03  0.00000000000E+00 0.  1.
          4    1    6    6  502    0 -0.43964464100E+02 -0.33505977839E+02  0.26700400909E+02  0.61387588837E+02  0.00000000000E+00 0. -1.
          3    1    5    5  503    0 -0.19506245025E+02  0.45615692796E+02  0.12881610266E+03  0.13803939050E+03  0.00000000000E+00 0. -1.
         -4    1    5    5    0  503  0.69586889626E+02  0.19254570219E+03  0.38599610595E+03  0.43693154663E+03  0.00000000000E+00 0.  1.
         -3    1    6    6    0  502 -0.35609757262E+03 -0.23354625375E+03 -0.19512969860E+02  0.42629812322E+03  0.00000000000E+00 0.  1.
<mgrwt>
<rscale>  0 0.17012736E+04</rscale>
<asrwt>0</asrwt>
<pdfrwt beam="1">  1        2 0.13059914E+00 0.17012736E+04</pdfrwt>
<pdfrwt beam="2">  1       -2 0.13113581E+00 0.17012736E+04</pdfrwt>
<totfact> 0.12849677E+01</totfact>
</mgrwt>
</event>
<event>
12    1  0.1472088E-007  0.1406127E+04  0.7818608E-02  0.8949395E-01
         -1   -1    0    0    0  501 -0.00000000000E+00  0.00000000000E+00  0.25072266025E+04  0.25072266025E+04  0.00000000000E+00 0.  1.
          1   -1    0    0  501    0  0.00000000000E+00 -0.00000000000E+00 -0.19714940316E+03  0.19714940316E+03  0.00000000000E+00 0. -1.
         23    2    1    2    0    0  0.30332844361E+03  0.16470354453E+03  0.11011057079E+04  0.11608128326E+04  0.12616358473E+03 0.  0.
        254    2    1    2    0    0 -0.30332844361E+03 -0.16470354453E+03  0.12089714914E+04  0.15435631731E+04  0.89545507973E+03 0.  0.
        -24    2    4    4    0    0 -0.54407558050E+03  0.51420900116E+02  0.44202031501E+03  0.70754195219E+03  0.81063610554E+02 0.  0.
         24    2    4    4    0    0  0.24074713690E+03 -0.21612444464E+03  0.76695117643E+03  0.83602122086E+03  0.77771557848E+02 0.  0.
         13    1    3    3    0    0  0.58417797343E+02  0.91682676974E+02  0.26221793207E+03  0.28386017015E+03  0.00000000000E+00 0. -1.
        -13    1    3    3    0    0  0.24491064626E+03  0.73020867555E+02  0.83888777580E+03  0.87695266243E+03  0.00000000000E+00 0.  1.
          4    1    6    6  502    0  0.12666442475E+03 -0.12972392113E+03  0.33407904716E+03  0.38010654028E+03  0.00000000000E+00 0. -1.
          3    1    5    5  503    0 -0.21814022028E+03  0.44815544692E+02  0.22055672276E+03  0.31343078455E+03  0.00000000000E+00 0. -1.
         -4    1    5    5    0  503 -0.32593536022E+03  0.66053554240E+01  0.22146359225E+03  0.39411116764E+03  0.00000000000E+00 0.  1.
         -3    1    6    6    0  502  0.11408271215E+03 -0.86400523510E+02  0.43287212927E+03  0.45591468059E+03  0.00000000000E+00 0.  1.
<mgrwt>
<rscale>  0 0.14061269E+04</rscale>
<asrwt>0</asrwt>
<pdfrwt beam="1">  1        1 0.30330679E-01 0.14061269E+04</pdfrwt>
<pdfrwt beam="2">  1       -1 0.38572715E+00 0.14061269E+04</pdfrwt>
<totfact> 0.13331691E+00</totfact>
</mgrwt>
</event>
<event>
12    1  0.1472088E-007  0.1300577E+04  0.7818608E-02  0.9029108E-01
         -2   -1    0    0    0  501 -0.00000000000E+00  0.00000000000E+00  0.22426662366E+03  0.22426662366E+03  0.00000000000E+00 0.  1.
          2   -1    0    0  501    0  0.00000000000E+00 -0.00000000000E+00 -0.18855912945E+04  0.18855912945E+04  0.00000000000E+00 0. -1.
         23    2    1    2    0    0 -0.21415430563E+03  0.19538471758E+03 -0.70193723761E+03  0.76511820033E+03  0.93020000302E+02 0.  0.
        254    2    1    2    0    0  0.21415430563E+03 -0.19538471758E+03 -0.95938743320E+03  0.13447397178E+04  0.89658430009E+03 0.  0.
        -24    2    4    4    0    0  0.53711883431E+03 -0.12141755640E+03 -0.38410605505E+03  0.67607946662E+03  0.79417368852E+02 0.  0.
         24    2    4    4    0    0 -0.32296452869E+03 -0.73967161173E+02 -0.57528137814E+03  0.66866025118E+03  0.79878906778E+02 0.  0.
         11    1    3    3    0    0 -0.66803346909E+02  0.10747355022E+03 -0.22341148343E+03  0.25676047609E+03  0.00000000000E+00 0.  1.
        -11    1    3    3    0    0 -0.14735095872E+03  0.87911167357E+02 -0.47852575418E+03  0.50835772424E+03  0.00000000000E+00 0. -1.
          4    1    6    6  502    0 -0.27598700440E+03 -0.90258056152E+02 -0.47485999629E+03  0.55660341301E+03  0.00000000000E+00 0. -1.
          3    1    5    5  503    0  0.34195887479E+03 -0.10518825986E+03 -0.21548137977E+03  0.41765137027E+03  0.00000000000E+00 0. -1.
         -4    1    5    5    0  503  0.19515995952E+03 -0.16229296544E+02 -0.16862467529E+03  0.25842809635E+03  0.00000000000E+00 0.  1.
         -3    1    6    6    0  502 -0.46977524286E+02  0.16290894979E+02 -0.10042138185E+03  0.11205683817E+03  0.00000000000E+00 0.  1.
<mgrwt>
<rscale>  0 0.13005771E+04</rscale>
<asrwt>0</asrwt>
<pdfrwt beam="1">  1        2 0.29009097E+00 0.13005771E+04</pdfrwt>
<pdfrwt beam="2">  1       -2 0.34502558E-01 0.13005771E+04</pdfrwt>
<totfact> 0.59711991E+01</totfact>
</mgrwt>
</event>
<event>
12    1  0.1472088E-007  0.2200415E+04  0.7818608E-02  0.8518255E-01
          1   -1    0    0  501    0  0.00000000000E+00  0.00000000000E+00  0.14116137031E+04  0.14116137031E+04  0.00000000000E+00 0. -1.
         -1   -1    0    0    0  501 -0.00000000000E+00 -0.00000000000E+00 -0.85749836019E+03  0.85749836019E+03  0.00000000000E+00 0.  1.
         23    2    1    2    0    0 -0.34324349285E+03 -0.65074156549E+03 -0.32523000248E+03  0.80958810405E+03  0.91529575885E+02 0.  0.
        254    2    1    2    0    0  0.34324349285E+03  0.65074156549E+03  0.87934534543E+03  0.14595239593E+04  0.90315074640E+03 0.  0.
        -24    2    4    4    0    0  0.63958926612E+03  0.52600890790E+03  0.66708322208E+03  0.10663669609E+04  0.79866574252E+02 0.  0.
         24    2    4    4    0    0 -0.29634577327E+03  0.12473265759E+03  0.21226212336E+03  0.39315699834E+03  0.78346430219E+02 0.  0.
         11    1    3    3    0    0 -0.19054330050E+02 -0.94407188604E+02 -0.58083438943E+02  0.11246986545E+03  0.00000000000E+00 0. -1.
        -11    1    3    3    0    0 -0.32418916280E+03 -0.55633437689E+03 -0.26714656353E+03  0.69711823861E+03  0.00000000000E+00 0.  1.
          4    1    6    6  502    0 -0.27211762507E+03  0.95661075960E+02  0.16392806583E+03  0.33177018265E+03  0.00000000000E+00 0. -1.
          3    1    5    5  503    0  0.51725293618E+03  0.38243891373E+03  0.52046359316E+03  0.82746146407E+03  0.00000000000E+00 0. -1.
         -4    1    5    5    0  503  0.12233632994E+03  0.14356999417E+03  0.14661962892E+03  0.23890549687E+03  0.00000000000E+00 0.  1.
         -3    1    6    6    0  502 -0.24228148195E+02  0.29071581630E+02  0.48334057527E+02  0.61386815690E+02  0.00000000000E+00 0.  1.
<mgrwt>
<rscale>  0 0.22004149E+04</rscale>
<asrwt>0</asrwt>
<pdfrwt beam="1">  1        1 0.21717134E+00 0.22004149E+04</pdfrwt>
<pdfrwt beam="2">  1       -1 0.13192282E+00 0.22004149E+04</pdfrwt>
<totfact> 0.33587888E+00</totfact>
</mgrwt>
</event>
<event>
12    1  0.1472088E-007  0.1957584E+04  0.7818608E-02  0.8626712E-01
         -2   -1    0    0    0  501 -0.00000000000E+00  0.00000000000E+00  0.11580190717E+04  0.11580190717E+04  0.00000000000E+00 0.  1.
          2   -1    0    0  501    0  0.00000000000E+00 -0.00000000000E+00 -0.82730407390E+03  0.82730407390E+03  0.00000000000E+00 0. -1.
         23    2    1    2    0    0  0.11832116374E+03 -0.71198082350E+03 -0.14176491959E+03  0.74077303862E+03  0.87925033440E+02 0.  0.
        254    2    1    2    0    0 -0.11832116374E+03  0.71198082350E+03  0.47247991735E+03  0.12445501069E+04  0.89707920808E+03 0.  0.
        -24    2    4    4    0    0  0.18212723076E+03  0.43620594714E+03 -0.14383027882E+03  0.50072868976E+03  0.81216470915E+02 0.  0.
         24    2    4    4    0    0 -0.30044839449E+03  0.27577487636E+03  0.61631019617E+03  0.74382141718E+03  0.84326879272E+02 0.  0.
         13    1    3    3    0    0  0.93452401690E+02 -0.62101132659E+03 -0.15133735468E+03  0.64598097035E+03  0.00000000000E+00 0. -1.
        -13    1    3    3    0    0  0.24868762045E+02 -0.90969496906E+02  0.95724350901E+01  0.94792068268E+02  0.00000000000E+00 0.  1.
          2    1    6    6  502    0 -0.99409285107E+02  0.14200847746E+03  0.22549598727E+03  0.28442407407E+03  0.00000000000E+00 0. -1.
          3    1    5    5  503    0  0.13440672775E+02  0.49172551800E+02 -0.42923415256E+02  0.66640911702E+02  0.00000000000E+00 0. -1.
         -4    1    5    5    0  503  0.16868655798E+03  0.38703339534E+03 -0.10090686356E+03  0.43408777806E+03  0.00000000000E+00 0.  1.
         -1    1    6    6    0  502 -0.20103910938E+03  0.13376639889E+03  0.39081420889E+03  0.45939734310E+03  0.00000000000E+00 0.  1.
<mgrwt>
<rscale>  0 0.19575841E+04</rscale>
<asrwt>0</asrwt>
<pdfrwt beam="1">  1        2 0.12727755E+00 0.19575841E+04</pdfrwt>
<pdfrwt beam="2">  1       -2 0.17815678E+00 0.19575841E+04</pdfrwt>
<totfact> 0.57298984E+00</totfact>
</mgrwt>
</event>
<event>
12    1  0.1472088E-007  0.1736459E+04  0.7818608E-02  0.8740839E-01
         -1   -1    0    0    0  501 -0.00000000000E+00  0.00000000000E+00  0.25599744882E+03  0.25599744882E+03  0.00000000000E+00 0.  1.
          1   -1    0    0  501    0  0.00000000000E+00 -0.00000000000E+00 -0.29446488899E+04  0.29446488899E+04  0.00000000000E+00 0. -1.
         23    2    1    2    0    0  0.19464044059E+03 -0.36756028303E+03 -0.11429917831E+03  0.44125681432E+03  0.93047360238E+02 0.  0.
        254    2    1    2    0    0 -0.19464044059E+03  0.36756028303E+03 -0.25743522627E+04  0.27593895243E+04  0.90219483024E+03 0.  0.
        -24    2    4    4    0    0 -0.61178086933E+02  0.55067105998E+03 -0.23955030866E+04  0.24601337023E+04  0.82712881154E+02 0.  0.
         24    2    4    4    0    0 -0.13346235366E+03 -0.18311077695E+03 -0.17884917617E+03  0.29925582208E+03  0.78900334314E+02 0.  0.
         11    1    3    3    0    0  0.14961587481E+03 -0.34217640741E+03 -0.11035315257E+03  0.38941933961E+03  0.00000000000E+00 0.  1.
        -11    1    3    3    0    0  0.45024565780E+02 -0.25383875629E+02 -0.39460257432E+01  0.51837474715E+02  0.00000000000E+00 0. -1.
          2    1    6    6  502    0 -0.34430747052E+02 -0.15350464949E+02 -0.60593020121E+02  0.71362645720E+02  0.00000000000E+00 0. -1.
          1    1    5    5  503    0  0.10979130047E+02  0.12099786561E+02 -0.54647499966E+02  0.57037666361E+02  0.00000000000E+00 0. -1.
         -2    1    5    5    0  503 -0.72157216980E+02  0.53857127342E+03 -0.23408555866E+04  0.24030960359E+04  0.00000000000E+00 0.  1.
         -1    1    6    6    0  502 -0.99031606604E+02 -0.16776031200E+03 -0.11825615605E+03  0.22789317636E+03  0.00000000000E+00 0.  1.
<mgrwt>
<rscale>  0 0.17364592E+04</rscale>
<asrwt>0</asrwt>
<pdfrwt beam="1">  1        1 0.45302288E+00 0.17364592E+04</pdfrwt>
<pdfrwt beam="2">  1       -1 0.39384226E-01 0.17364592E+04</pdfrwt>
<totfact> 0.39121285E+00</totfact>
</mgrwt>
</event>
<event>
12    1  0.1472088E-007  0.1617906E+04  0.7818608E-02  0.8809623E-01
          2   -1    0    0  501    0  0.00000000000E+00  0.00000000000E+00  0.14713242698E+04  0.14713242698E+04  0.00000000000E+00 0. -1.
         -2   -1    0    0    0  501 -0.00000000000E+00 -0.00000000000E+00 -0.44477249767E+03  0.44477249767E+03  0.00000000000E+00 0.  1.
         23    2    1    2    0    0  0.14447794936E+03 -0.91448383577E+02 -0.26663677787E+03  0.32957807193E+03  0.91048610481E+02 0.  0.
        254    2    1    2    0    0 -0.14447794936E+03  0.91448383577E+02  0.12931885500E+04  0.15865186955E+04  0.90303281265E+03 0.  0.
        -24    2    4    4    0    0 -0.43286897598E+03 -0.21102315738E+03  0.77426194914E+03  0.91529610309E+03  0.79869062407E+02 0.  0.
         24    2    4    4    0    0  0.28839102662E+03  0.30247154095E+03  0.51892660082E+03  0.67122259241E+03  0.81219050733E+02 0.  0.
         11    1    3    3    0    0  0.73785066182E+02 -0.19436988851E+02 -0.51806297852E+02  0.92227571931E+02  0.00000000000E+00 0. -1.
        -11    1    3    3    0    0  0.70692883176E+02 -0.72011394726E+02 -0.21483048002E+03  0.23735050000E+03  0.00000000000E+00 0.  1.
          2    1    6    6  502    0  0.29107558780E+03  0.28266716062E+03  0.49570265217E+03  0.64058320371E+03  0.00000000000E+00 0. -1.
          3    1    5    5  503    0 -0.36565573116E+03 -0.15331623739E+03  0.66949571242E+03  0.77809671078E+03  0.00000000000E+00 0. -1.
         -4    1    5    5    0  503 -0.67213244824E+02 -0.57706919986E+02  0.10476623671E+03  0.13719939231E+03  0.00000000000E+00 0.  1.
         -3    1    6    6    0  502 -0.26845611784E+01  0.19804380335E+02  0.23223948649E+02  0.30639388702E+02  0.00000000000E+00 0.  1.
<mgrwt>
<rscale>  0 0.16179055E+04</rscale>
<asrwt>0</asrwt>
<pdfrwt beam="1">  1        2 0.22635758E+00 0.16179055E+04</pdfrwt>
<pdfrwt beam="2">  1       -2 0.68426539E-01 0.16179055E+04</pdfrwt>
<totfact> 0.24648541E+01</totfact>
</mgrwt>
</event>
<event>
12    1  0.1472088E-007  0.2407564E+04  0.7818608E-02  0.8436677E-01
          1   -1    0    0  501    0  0.00000000000E+00  0.00000000000E+00  0.10578111776E+04  0.10578111776E+04  0.00000000000E+00 0. -1.
         -1   -1    0    0    0  501 -0.00000000000E+00 -0.00000000000E+00 -0.13698961842E+04  0.13698961842E+04  0.00000000000E+00 0.  1.
         23    2    1    2    0    0  0.70766257784E+02  0.55930528301E+02  0.91326864271E+03  0.92236261672E+03  0.92504571358E+02 0.  0.
        254    2    1    2    0    0 -0.70766257784E+02 -0.55930528301E+02 -0.12253536494E+04  0.15053447451E+04  0.86973280288E+03 0.  0.
        -24    2    4    4    0    0  0.39320885397E+03 -0.25934917556E+02 -0.53679177980E+03  0.67085578806E+03  0.81340338864E+02 0.  0.
         24    2    4    4    0    0 -0.46397511175E+03 -0.29995610746E+02 -0.68856186957E+03  0.83448895706E+03  0.77985448896E+02 0.  0.
         13    1    3    3    0    0  0.84741262048E+01 -0.21812127612E+02  0.31394269116E+03  0.31481358462E+03  0.00000000000E+00 0.  1.
        -13    1    3    3    0    0  0.62292131579E+02  0.77742655914E+02  0.59932595155E+03  0.60754903210E+03  0.00000000000E+00 0. -1.
          4    1    6    6  502    0 -0.42388261722E+03 -0.45357862148E+02 -0.64637755952E+03  0.77429823601E+03  0.00000000000E+00 0. -1.
          3    1    5    5  503    0  0.23245347175E+03  0.19038701445E+01 -0.25353629427E+03  0.34397513539E+03  0.00000000000E+00 0. -1.
         -4    1    5    5    0  503  0.16075538222E+03 -0.27838787700E+02 -0.28325548552E+03  0.32688065267E+03  0.00000000000E+00 0.  1.
         -3    1    6    6    0  502 -0.40092494526E+02  0.15362251403E+02 -0.42184310051E+02  0.60190721045E+02  0.00000000000E+00 0.  1.
<mgrwt>
<rscale>  0 0.24075643E+04</rscale>
<asrwt>0</asrwt>
<pdfrwt beam="1">  1        1 0.16274018E+00 0.24075643E+04</pdfrwt>
<pdfrwt beam="2">  1       -1 0.21075326E+00 0.24075643E+04</pdfrwt>
<totfact> 0.15530537E+00</totfact>
</mgrwt>
</event>
<event>
12    1  0.1472088E-007  0.1554727E+04  0.7818608E-02  0.8848854E-01
          2   -1    0    0  501    0  0.00000000000E+00  0.00000000000E+00  0.10076755370E+04  0.10076755370E+04  0.00000000000E+00 0. -1.
         -2   -1    0    0    0  501 -0.00000000000E+00 -0.00000000000E+00 -0.59969128592E+03  0.59969128592E+03  0.00000000000E+00 0.  1.
         23    2    1    2    0    0 -0.20620119402E+03  0.47002645798E+03  0.61320166566E+02  0.52484011953E+03  0.90847039735E+02 0.  0.
        254    2    1    2    0    0  0.20620119402E+03 -0.47002645798E+03  0.34666408456E+03  0.10825267034E+04  0.88783121849E+03 0.  0.
        -24    2    4    4    0    0  0.18051318955E+03 -0.67851581236E+03  0.44739937665E+03  0.83626465057E+03  0.78763216955E+02 0.  0.
         24    2    4    4    0    0  0.25688004476E+02  0.20848935438E+03 -0.10073529209E+03  0.24626205287E+03  0.79810495198E+02 0.  0.
         11    1    3    3    0    0 -0.11797631013E+03  0.25465411878E+03 -0.11739947166E+02  0.28090026045E+03  0.00000000000E+00 0.  1.
        -11    1    3    3    0    0 -0.88224883893E+02  0.21537233920E+03  0.73060113731E+02  0.24393985908E+03  0.00000000000E+00 0. -1.
          4    1    6    6  502    0  0.20302991595E+02  0.21269662264E+03 -0.10514058178E+03  0.23813149033E+03  0.00000000000E+00 0. -1.
          3    1    5    5  503    0  0.10279882491E+03 -0.51587944003E+03  0.32345742949E+03  0.61751429436E+03  0.00000000000E+00 0. -1.
         -4    1    5    5    0  503  0.77714364640E+02 -0.16263637233E+03  0.12394194717E+03  0.21875035621E+03  0.00000000000E+00 0.  1.
         -3    1    6    6    0  502  0.53850128812E+01 -0.42072682564E+01  0.44052896876E+01  0.81305625355E+01  0.00000000000E+00 0.  1.
<mgrwt>
<rscale>  0 0.15547273E+04</rscale>
<asrwt>0</asrwt>
<pdfrwt beam="1">  1        2 0.15502701E+00 0.15547273E+04</pdfrwt>
<pdfrwt beam="2">  1       -2 0.92260198E-01 0.15547273E+04</pdfrwt>
<totfact> 0.23916255E+01</totfact>
</mgrwt>
</event>
<event>
12    1  0.1472088E-007  0.1761692E+04  0.7818608E-02  0.8726941E-01
         -2   -1    0    0    0  501 -0.00000000000E+00  0.00000000000E+00  0.37607336225E+03  0.37607336225E+03  0.00000000000E+00 0.  1.
          2   -1    0    0  501    0  0.00000000000E+00 -0.00000000000E+00 -0.20631330967E+04  0.20631330967E+04  0.00000000000E+00 0. -1.
         23    2    1    2    0    0 -0.32834932464E+03 -0.54222679978E+03 -0.45281864620E+03  0.78461098691E+03  0.93522687276E+02 0.  0.
        254    2    1    2    0    0  0.32834932464E+03  0.54222679978E+03 -0.12342410882E+04  0.16545954720E+04  0.90139443685E+03 0.  0.
        -24    2    4    4    0    0  0.24058033863E+03  0.61948052785E+03 -0.13268865352E+04  0.14861285759E+04  0.79468502635E+02 0.  0.
         24    2    4    4    0    0  0.87768986002E+02 -0.77253728071E+02  0.92645446980E+02  0.16846689618E+03  0.78271213458E+02 0.  0.
         13    1    3    3    0    0 -0.33343118422E+03 -0.51903929006E+03 -0.43870661214E+03  0.75699513259E+03  0.00000000000E+00 0.  1.
        -13    1    3    3    0    0  0.50818595853E+01 -0.23187509727E+02 -0.14112034067E+02  0.27615854317E+02  0.00000000000E+00 0. -1.
          2    1    6    6  502    0  0.73391185260E+02 -0.16444454359E+02  0.67676165379E+02  0.10117682301E+03  0.00000000000E+00 0. -1.
          3    1    5    5  503    0  0.21544398878E+03  0.51612850175E+03 -0.11669228123E+04  0.12940299813E+04  0.00000000000E+00 0. -1.
         -4    1    5    5    0  503  0.25136349851E+02  0.10335202611E+03 -0.15996372292E+03  0.19209859457E+03  0.00000000000E+00 0.  1.
         -1    1    6    6    0  502  0.14377800742E+02 -0.60809273712E+02  0.24969281600E+02  0.67290073170E+02  0.00000000000E+00 0.  1.
<mgrwt>
<rscale>  0 0.17616917E+04</rscale>
<asrwt>0</asrwt>
<pdfrwt beam="1">  1        2 0.31740510E+00 0.17616917E+04</pdfrwt>
<pdfrwt beam="2">  1       -2 0.57857439E-01 0.17616917E+04</pdfrwt>
<totfact> 0.16317224E+01</totfact>
</mgrwt>
</event>
<event>
12    1  0.1472088E-007  0.1534876E+04  0.7818608E-02  0.8861587E-01
          2   -1    0    0  501    0  0.00000000000E+00  0.00000000000E+00  0.19704642137E+04  0.19704642137E+04  0.00000000000E+00 0. -1.
         -2   -1    0    0    0  501 -0.00000000000E+00 -0.00000000000E+00 -0.29889442194E+03  0.29889442194E+03  0.00000000000E+00 0.  1.
         23    2    1    2    0    0 -0.38933178646E+03 -0.93810987556E+02  0.11800598040E+03  0.42753913529E+03  0.92111668423E+02 0.  0.
        254    2    1    2    0    0  0.38933178646E+03  0.93810987556E+02  0.15535638114E+04  0.18418195004E+04  0.90463186688E+03 0.  0.
        -24    2    4    4    0    0  0.40471384909E+03  0.40531881676E+03  0.13234824937E+04  0.14442595141E+04  0.78759064284E+02 0.  0.
         24    2    4    4    0    0 -0.15382062631E+02 -0.31150782921E+03  0.23008131767E+03  0.39755998621E+03  0.88559552788E+02 0.  0.
         11    1    3    3    0    0 -0.90054337325E+02 -0.30948789361E+02  0.69543292588E+02  0.11791471824E+03  0.00000000000E+00 0. -1.
        -11    1    3    3    0    0 -0.29927744913E+03 -0.62862198195E+02  0.48462687811E+02  0.30962441704E+03  0.00000000000E+00 0.  1.
          2    1    6    6  502    0 -0.78940503775E+01 -0.30226209841E+03  0.19322829524E+03  0.35883403719E+03  0.00000000000E+00 0. -1.
          1    1    5    5  503    0  0.12839831684E+03  0.10804213701E+03  0.47334683674E+03  0.50221156796E+03  0.00000000000E+00 0. -1.
         -2    1    5    5    0  503  0.27631553225E+03  0.29727667975E+03  0.85013565695E+03  0.94204794618E+03  0.00000000000E+00 0.  1.
         -1    1    6    6    0  502 -0.74880122539E+01 -0.92457307994E+01  0.36853022431E+02  0.38725949024E+02  0.00000000000E+00 0.  1.
<mgrwt>
<rscale>  0 0.15348756E+04</rscale>
<asrwt>0</asrwt>
<pdfrwt beam="1">  1        2 0.30314833E+00 0.15348756E+04</pdfrwt>
<pdfrwt beam="2">  1       -2 0.45983759E-01 0.15348756E+04</pdfrwt>
<totfact> 0.29992450E+01</totfact>
</mgrwt>
</event>
<event>
12    1  0.1472088E-007  0.2008209E+04  0.7818608E-02  0.8602792E-01
         -1   -1    0    0    0  501 -0.00000000000E+00  0.00000000000E+00  0.32464348234E+03  0.32464348234E+03  0.00000000000E+00 0.  1.
          1   -1    0    0  501    0  0.00000000000E+00 -0.00000000000E+00 -0.31056404305E+04  0.31056404305E+04  0.00000000000E+00 0. -1.
         23    2    1    2    0    0  0.22045358924E+03  0.70053902475E+02 -0.24396713602E+04  0.24522964671E+04  0.90853080861E+02 0.  0.
        254    2    1    2    0    0 -0.22045358924E+03 -0.70053902475E+02 -0.34132558790E+03  0.97798744573E+03  0.88681957172E+03 0.  0.
        -24    2    4    4    0    0 -0.14204968710E+03 -0.26952896082E+03 -0.57225000104E+03  0.65318303619E+03  0.79712237094E+02 0.  0.
         24    2    4    4    0    0 -0.78403902139E+02  0.19947505835E+03  0.23092441314E+03  0.32480440954E+03  0.78957894488E+02 0.  0.
         11    1    3    3    0    0  0.11397435674E+03  0.16189491589E+02 -0.79365446033E+03  0.80195988431E+03  0.00000000000E+00 0.  1.
        -11    1    3    3    0    0  0.10647923250E+03  0.53864410886E+02 -0.16460168999E+04  0.16503365828E+04  0.00000000000E+00 0. -1.
          2    1    6    6  502    0 -0.15317187209E+02  0.48658359509E+02  0.13484397342E+02  0.52764392784E+02  0.00000000000E+00 0. -1.
          3    1    5    5  503    0 -0.86738481019E+02 -0.18593244903E+03 -0.45371085653E+03  0.49794375287E+03  0.00000000000E+00 0. -1.
         -4    1    5    5    0  503 -0.55311206083E+02 -0.83596511794E+02 -0.11853914451E+03  0.15523928331E+03  0.00000000000E+00 0.  1.
         -1    1    6    6    0  502 -0.63086714930E+02  0.15081669884E+03  0.21744001580E+03  0.27204001676E+03  0.00000000000E+00 0.  1.
<mgrwt>
<rscale>  0 0.20082091E+04</rscale>
<asrwt>0</asrwt>
<pdfrwt beam="1">  1        1 0.47779083E+00 0.20082091E+04</pdfrwt>
<pdfrwt beam="2">  1       -1 0.49945152E-01 0.20082091E+04</pdfrwt>
<totfact> 0.18679480E+00</totfact>
</mgrwt>
</event>
<event>
12    1  0.1472088E-007  0.2295289E+04  0.7818608E-02  0.8479781E-01
         -1   -1    0    0    0  501 -0.00000000000E+00  0.00000000000E+00  0.10577313691E+04  0.10577313691E+04  0.00000000000E+00 0.  1.
          1   -1    0    0  501    0  0.00000000000E+00 -0.00000000000E+00 -0.12452007101E+04  0.12452007101E+04  0.00000000000E+00 0. -1.
         23    2    1    2    0    0 -0.45603105679E+03  0.84649475531E+03  0.31457538941E+02  0.96636286252E+03  0.91377840739E+02 0.  0.
        254    2    1    2    0    0  0.45603105679E+03 -0.84649475531E+03 -0.21892687989E+03  0.13365692167E+04  0.90220319036E+03 0.  0.
        -24    2    4    4    0    0  0.57538537863E+03 -0.65322341847E+03  0.15933594905E+03  0.88851495895E+03  0.79383368877E+02 0.  0.
         24    2    4    4    0    0 -0.11935432184E+03 -0.19327133684E+03 -0.37826282893E+03  0.44805425772E+03  0.77913967419E+02 0.  0.
         11    1    3    3    0    0 -0.34326516437E+03  0.63405526383E+03 -0.16108540133E+02  0.72119105355E+03  0.00000000000E+00 0. -1.
        -11    1    3    3    0    0 -0.11276589242E+03  0.21243949148E+03  0.47566079074E+02  0.24517180896E+03  0.00000000000E+00 0.  1.
          4    1    6    6  502    0 -0.23876589609E+01 -0.31817689869E+02 -0.10534528891E+03  0.11007132324E+03  0.00000000000E+00 0. -1.
          1    1    5    5  503    0  0.21361693446E+03 -0.30172820901E+03  0.64932634781E+02  0.37535097424E+03  0.00000000000E+00 0. -1.
         -2    1    5    5    0  503  0.36176844417E+03 -0.35149520945E+03  0.94403314265E+02  0.51316398472E+03  0.00000000000E+00 0.  1.
         -3    1    6    6    0  502 -0.11696666288E+03 -0.16145364697E+03 -0.27291754002E+03  0.33798293448E+03  0.00000000000E+00 0.  1.
<mgrwt>
<rscale>  0 0.22952890E+04</rscale>
<asrwt>0</asrwt>
<pdfrwt beam="1">  1        1 0.19156934E+00 0.22952890E+04</pdfrwt>
<pdfrwt beam="2">  1       -1 0.16272790E+00 0.22952890E+04</pdfrwt>
<totfact> 0.24965921E+00</totfact>
</mgrwt>
</event>
<event>
12    1  0.1472088E-007  0.2935285E+04  0.7818608E-02  0.8262456E-01
         -1   -1    0    0    0  501 -0.00000000000E+00  0.00000000000E+00  0.19370552824E+04  0.19370552824E+04  0.00000000000E+00 0.  1.
          1   -1    0    0  501    0  0.00000000000E+00 -0.00000000000E+00 -0.11119840850E+04  0.11119840850E+04  0.00000000000E+00 0. -1.
         23    2    1    2    0    0  0.11030728588E+04 -0.69575823324E+03  0.11662480593E+03  0.13127304516E+04  0.93865021406E+02 0.  0.
        254    2    1    2    0    0 -0.11030728588E+04  0.69575823324E+03  0.70844639140E+03  0.17363089158E+04  0.90112324952E+03 0.  0.
        -24    2    4    4    0    0 -0.46124246827E+02  0.48519864922E+03  0.31524930675E+03  0.58631614216E+03  0.82700168098E+02 0.  0.
         24    2    4    4    0    0 -0.10569486120E+04  0.21055958402E+03  0.39319708465E+03  0.11499927737E+04  0.80023280297E+02 0.  0.
         11    1    3    3    0    0  0.91178180384E+03 -0.57717651038E+03  0.13193752854E+03  0.10871459393E+04  0.00000000000E+00 0. -1.
        -11    1    3    3    0    0  0.19129105494E+03 -0.11858172285E+03 -0.15312722601E+02  0.22558451225E+03  0.00000000000E+00 0.  1.
          2    1    6    6  502    0 -0.31666357952E+03  0.99371996849E+02  0.13118623218E+03  0.35687595025E+03  0.00000000000E+00 0. -1.
          3    1    5    5  503    0 -0.30149691302E+02  0.81957308102E+02  0.30857998211E+02  0.92618682190E+02  0.00000000000E+00 0. -1.
         -4    1    5    5    0  503 -0.15974555524E+02  0.40324134112E+03  0.28439130854E+03  0.49369745997E+03  0.00000000000E+00 0.  1.
         -1    1    6    6    0  502 -0.74028503244E+03  0.11118758717E+03  0.26201085246E+03  0.79311682343E+03  0.00000000000E+00 0.  1.
<mgrwt>
<rscale>  0 0.29352851E+04</rscale>
<asrwt>0</asrwt>
<pdfrwt beam="1">  1        1 0.17107447E+00 0.29352851E+04</pdfrwt>
<pdfrwt beam="2">  1       -1 0.29800850E+00 0.29352851E+04</pdfrwt>
<totfact> 0.36151541E-01</totfact>
</mgrwt>
</event>
<event>
12    1  0.1472088E-007  0.2209553E+04  0.7818608E-02  0.8514463E-01
         -2   -1    0    0    0  501 -0.00000000000E+00  0.00000000000E+00  0.15016220332E+04  0.15016220332E+04  0.00000000000E+00 0.  1.
          2   -1    0    0  501    0  0.00000000000E+00 -0.00000000000E+00 -0.81280831285E+03  0.81280831285E+03  0.00000000000E+00 0. -1.
         23    2    1    2    0    0 -0.51593641599E+02  0.22126913119E+03  0.12171010218E+04  0.12415041991E+04  0.91519652534E+02 0.  0.
        254    2    1    2    0    0  0.51593641599E+02 -0.22126913119E+03 -0.52828730148E+03  0.10729261469E+04  0.90579308432E+03 0.  0.
        -24    2    4    4    0    0 -0.95645872512E+02  0.11274036097E+03  0.19594009499E+03  0.25794704455E+03  0.79281996975E+02 0.  0.
         24    2    4    4    0    0  0.14723951411E+03 -0.33400949216E+03 -0.72422739648E+03  0.81497910239E+03  0.80273284224E+02 0.  0.
         13    1    3    3    0    0 -0.49658017542E+02  0.14560891478E+03  0.58510025749E+03  0.60498775697E+03  0.00000000000E+00 0. -1.
        -13    1    3    3    0    0 -0.19356240569E+01  0.75660216401E+02  0.63200076434E+03  0.63651644213E+03  0.00000000000E+00 0.  1.
          4    1    6    6  502    0  0.31261364396E+02 -0.12958973250E+03 -0.33145810323E+03  0.35726075333E+03  0.00000000000E+00 0. -1.
          1    1    5    5  503    0 -0.46620263117E+02  0.25237052322E+02  0.12297159270E+03  0.13391180065E+03  0.00000000000E+00 0. -1.
         -4    1    5    5    0  503 -0.49025609395E+02  0.87503308651E+02  0.72968502295E+02  0.12403524390E+03  0.00000000000E+00 0.  1.
         -3    1    6    6    0  502  0.11597814971E+03 -0.20441975966E+03 -0.39276929324E+03  0.45771834906E+03  0.00000000000E+00 0.  1.
<mgrwt>
<rscale>  0 0.22095528E+04</rscale>
<asrwt>0</asrwt>
<pdfrwt beam="1">  1        2 0.12504743E+00 0.22095528E+04</pdfrwt>
<pdfrwt beam="2">  1       -2 0.23101877E+00 0.22095528E+04</pdfrwt>
<totfact> 0.25940575E+00</totfact>
</mgrwt>
</event>
<event>
12    1  0.1472088E-007  0.2533048E+04  0.7818608E-02  0.8391306E-01
         -2   -1    0    0    0  501 -0.00000000000E+00  0.00000000000E+00  0.58331269925E+03  0.58331269925E+03  0.00000000000E+00 0. -1.
          2   -1    0    0  501    0  0.00000000000E+00 -0.00000000000E+00 -0.27499536780E+04  0.27499536780E+04  0.00000000000E+00 0.  1.
         23    2    1    2    0    0  0.20374958931E+03  0.20612243341E+03  0.45471291137E+03  0.54684488875E+03  0.90967839827E+02 0.  0.
        254    2    1    2    0    0 -0.20374958931E+03 -0.20612243341E+03 -0.26213538901E+04  0.27864214885E+04  0.89924865395E+03 0.  0.
        -24    2    4    4    0    0 -0.27231934226E+03 -0.32845860623E+03 -0.25822246388E+04  0.26184520418E+04  0.79775496572E+02 0.  0.
         24    2    4    4    0    0  0.68569752955E+02  0.12233617282E+03 -0.39129251388E+02  0.16796944676E+03  0.83753725472E+02 0.  0.
         13    1    3    3    0    0  0.77935455645E+01  0.29706020728E+02  0.15099021913E+02  0.34222324332E+02  0.00000000000E+00 0.  1.
        -13    1    3    3    0    0  0.19595604375E+03  0.17641641269E+03  0.43961388945E+03  0.51262256441E+03  0.00000000000E+00 0. -1.
          2    1    6    6  502    0  0.16750647847E+02  0.91150387544E+02  0.54482167610E+01  0.92836740672E+02  0.00000000000E+00 0. -1.
          3    1    5    5  503    0 -0.17709081880E+03 -0.26320427735E+03 -0.19819100163E+04  0.20071385011E+04  0.00000000000E+00 0. -1.
         -4    1    5    5    0  503 -0.95228523462E+02 -0.65254328874E+02 -0.60031462243E+03  0.61131354069E+03  0.00000000000E+00 0.  1.
         -1    1    6    6    0  502  0.51819105107E+02  0.31185785271E+02 -0.44577468149E+02  0.75132706085E+02  0.00000000000E+00 0.  1.
<mgrwt>
<rscale>  0 0.25330479E+04</rscale>
<asrwt>0</asrwt>
<pdfrwt beam="1">  1        2 0.42306980E+00 0.25330479E+04</pdfrwt>
<pdfrwt beam="2">  1       -2 0.89740414E-01 0.25330479E+04</pdfrwt>
<totfact> 0.23453821E+00</totfact>
</mgrwt>
</event>
<event>
12    1  0.1478321E-007  0.2171050E+04  0.7818608E-02  0.8530575E-01
         -2   -1    0    0    0  501 -0.00000000000E+00  0.00000000000E+00  0.93971681346E+03  0.93971681346E+03  0.00000000000E+00 0.  1.
          2   -1    0    0  501    0  0.00000000000E+00 -0.00000000000E+00 -0.12539568756E+04  0.12539568756E+04  0.00000000000E+00 0. -1.
         23    2    1    2    0    0 -0.65485265397E+03  0.60915613403E+03 -0.12086221147E+03  0.90694496258E+03  0.89656549990E+02 0.  0.
        254    2    1    2    0    0  0.65485265397E+03 -0.60915613403E+03 -0.19337785067E+03  0.12867287265E+04  0.90463950188E+03 0.  0.
        -24    2    4    4    0    0  0.35992132954E+03  0.19126797471E+03 -0.71972104008E+02  0.42141613711E+03  0.79276574402E+02 0.  0.
         24    2    4    4    0    0  0.29493132443E+03 -0.80042410874E+03 -0.12140574666E+03  0.86531258937E+03  0.79770182468E+02 0.  0.
         11    1    3    3    0    0 -0.64626813182E+03  0.59541782208E+03 -0.10627183164E+03  0.88514325578E+03  0.00000000000E+00 0.  1.
        -11    1    3    3    0    0 -0.85845221544E+01  0.13738311945E+02 -0.14590379836E+02  0.21801706802E+02  0.00000000000E+00 0. -1.
          2    1    6    6  502    0  0.24805598103E+03 -0.73120734433E+03 -0.12199169356E+03  0.78171473276E+03  0.00000000000E+00 0. -1.
          3    1    5    5  503    0  0.29755159917E+03  0.18666088308E+03 -0.73484464668E+02  0.35885819760E+03  0.00000000000E+00 0. -1.
         -4    1    5    5    0  503  0.62369730375E+02  0.46070916348E+01  0.15123606607E+01  0.62557939505E+02  0.00000000000E+00 0.  1.
         -1    1    6    6    0  502  0.46875343402E+02 -0.69216764417E+02  0.58594690052E+00  0.83597856607E+02  0.00000000000E+00 0.  1.
<mgrwt>
<rscale>  0 0.21710498E+04</rscale>
<asrwt>0</asrwt>
<pdfrwt beam="1">  1        2 0.19291644E+00 0.21710498E+04</pdfrwt>
<pdfrwt beam="2">  1       -2 0.14457182E+00 0.21710498E+04</pdfrwt>
<totfact> 0.53236172E+00</totfact>
</mgrwt>
</event>
<event>
12    1  0.1472088E-007  0.1707354E+04  0.7818608E-02  0.8757181E-01
         -2   -1    0    0    0  501 -0.00000000000E+00  0.00000000000E+00  0.68816906089E+03  0.68816906089E+03  0.00000000000E+00 0.  1.
          2   -1    0    0  501    0  0.00000000000E+00 -0.00000000000E+00 -0.10589907371E+04  0.10589907371E+04  0.00000000000E+00 0. -1.
         23    2    1    2    0    0  0.48736205388E+02  0.60928672294E+03 -0.18517693954E+03  0.64512653574E+03  0.91061625876E+02 0.  0.
        254    2    1    2    0    0 -0.48736205388E+02 -0.60928672294E+03 -0.18564473671E+03  0.11020332623E+04  0.89800212386E+03 0.  0.
        -24    2    4    4    0    0 -0.15106889336E+03  0.11367241553E+03  0.18783089498E+03  0.27801961507E+03  0.79191114800E+02 0.  0.
         24    2    4    4    0    0  0.10233268798E+03 -0.72295913847E+03 -0.37347563169E+03  0.82401364721E+03  0.79828243171E+02 0.  0.
         11    1    3    3    0    0  0.54534797684E+02  0.52390958869E+03 -0.18859383146E+03  0.55948452574E+03  0.00000000000E+00 0. -1.
        -11    1    3    3    0    0 -0.57985922965E+01  0.85377134252E+02  0.34168919220E+01  0.85642009996E+02  0.00000000000E+00 0.  1.
          4    1    6    6  502    0  0.15759542726E+02 -0.47940376212E+02 -0.47974483142E+02  0.69628973072E+02  0.00000000000E+00 0. -1.
          3    1    5    5  503    0 -0.22568256720E+02  0.62068332701E+02  0.52141730475E+02  0.84146088398E+02  0.00000000000E+00 0. -1.
         -4    1    5    5    0  503 -0.12850063664E+03  0.51604082826E+02  0.13568916450E+03  0.19387352668E+03  0.00000000000E+00 0.  1.
         -3    1    6    6    0  502  0.86573145250E+02 -0.67501876225E+03 -0.32550114855E+03  0.75438467414E+03  0.00000000000E+00 0.  1.
<mgrwt>
<rscale>  0 0.17073543E+04</rscale>
<asrwt>0</asrwt>
<pdfrwt beam="1">  1        2 0.16292165E+00 0.17073543E+04</pdfrwt>
<pdfrwt beam="2">  1       -2 0.10587216E+00 0.17073543E+04</pdfrwt>
<totfact> 0.15836897E+01</totfact>
</mgrwt>
</event>
<event>
12    1  0.1472088E-007  0.2855089E+04  0.7818608E-02  0.8286367E-01
          1   -1    0    0  501    0  0.00000000000E+00  0.00000000000E+00  0.22643830714E+04  0.22643830714E+04  0.00000000000E+00 0. -1.
         -1   -1    0    0    0  501 -0.00000000000E+00 -0.00000000000E+00 -0.89997299158E+03  0.89997299158E+03  0.00000000000E+00 0.  1.
         23    2    1    2    0    0  0.94185606368E+03 -0.36221519857E+03 -0.26503674367E+03  0.10473300391E+04  0.91449661275E+02 0.  0.
        254    2    1    2    0    0 -0.94185606368E+03  0.36221519857E+03  0.16294468235E+04  0.21170260239E+04  0.89911597723E+03 0.  0.
        -24    2    4    4    0    0 -0.14110946716E+03  0.33698347724E+03  0.98636175798E+02  0.38734696859E+03  0.82697238417E+02 0.  0.
         24    2    4    4    0    0 -0.80074659652E+03  0.25231721321E+02  0.15308106477E+04  0.17296790553E+04  0.81096508331E+02 0.  0.
         11    1    3    3    0    0  0.75252806430E+03 -0.32002439317E+03 -0.23656397068E+03  0.85127939715E+03  0.00000000000E+00 0.  1.
        -11    1    3    3    0    0  0.18932799938E+03 -0.42190805399E+02 -0.28472772985E+02  0.19605064196E+03  0.00000000000E+00 0. -1.
          2    1    6    6  502    0 -0.69646374794E+03  0.48432396907E+02  0.13123734962E+04  0.14865166137E+04  0.00000000000E+00 0. -1.
          1    1    5    5  503    0 -0.12877005760E+03  0.31551234987E+03  0.67221270628E+02  0.34734488607E+03  0.00000000000E+00 0. -1.
         -2    1    5    5    0  503 -0.12339409557E+02  0.21471127374E+02  0.31414905170E+02  0.40002082518E+02  0.00000000000E+00 0.  1.
         -1    1    6    6    0  502 -0.10428284858E+03 -0.23200675585E+02  0.21843715154E+03  0.24316244165E+03  0.00000000000E+00 0.  1.
<mgrwt>
<rscale>  0 0.28550892E+04</rscale>
<asrwt>0</asrwt>
<pdfrwt beam="1">  1        1 0.34836663E+00 0.28550892E+04</pdfrwt>
<pdfrwt beam="2">  1       -1 0.13845738E+00 0.28550892E+04</pdfrwt>
<totfact> 0.73173610E-01</totfact>
</mgrwt>
</event>
<event>
12    1  0.1549501E-007  0.2337992E+04  0.7818608E-02  0.8463090E-01
          2   -1    0    0  501    0  0.00000000000E+00  0.00000000000E+00  0.12303716260E+04  0.12303716260E+04  0.00000000000E+00 0.  1.
         -2   -1    0    0    0  501 -0.00000000000E+00 -0.00000000000E+00 -0.11106819218E+04  0.11106819218E+04  0.00000000000E+00 0. -1.
         23    2    1    2    0    0  0.57116777735E+03  0.39722663903E+03  0.78377974054E+03  0.10538747237E+04  0.11099377863E+03 0.  0.
        254    2    1    2    0    0 -0.57116777735E+03 -0.39722663903E+03 -0.66409003632E+03  0.12871788241E+04  0.85544848839E+03 0.  0.
        -24    2    4    4    0    0 -0.42965331778E+03 -0.66117181576E+03 -0.46639087772E+03  0.91947812433E+03  0.78545699170E+02 0.  0.
         24    2    4    4    0    0 -0.14151445957E+03  0.26394517674E+03 -0.19769915859E+03  0.36770069979E+03  0.80158896744E+02 0.  0.
         11    1    3    3    0    0  0.55504079935E+03  0.40416618974E+03  0.76911863818E+03  0.10310014925E+04  0.00000000000E+00 0.  1.
        -11    1    3    3    0    0  0.16126978006E+02 -0.69395507179E+01  0.14661102356E+02  0.22873231212E+02  0.00000000000E+00 0. -1.
          4    1    6    6  502    0 -0.17360992215E+02 -0.10149947882E+01 -0.98517652098E+01  0.19987284530E+02  0.00000000000E+00 0. -1.
          1    1    5    5  503    0 -0.90040357709E+02 -0.14638481024E+03 -0.14029749511E+03  0.22185392902E+03  0.00000000000E+00 0. -1.
         -2    1    5    5    0  503 -0.33961296007E+03 -0.51478700552E+03 -0.32609338261E+03  0.69762419531E+03  0.00000000000E+00 0.  1.
         -3    1    6    6    0  502 -0.12415346736E+03  0.26496017153E+03 -0.18784739338E+03  0.34771341526E+03  0.00000000000E+00 0.  1.
<mgrwt>
<rscale>  0 0.23379919E+04</rscale>
<asrwt>0</asrwt>
<pdfrwt beam="1">  1        2 0.18928794E+00 0.23379919E+04</pdfrwt>
<pdfrwt beam="2">  1       -2 0.17087414E+00 0.23379919E+04</pdfrwt>
<totfact> 0.34500512E+00</totfact>
</mgrwt>
</event>
<event>
12    1  0.1472088E-007  0.3537344E+04  0.7818608E-02  0.8104996E-01
         -2   -1    0    0    0  501 -0.00000000000E+00  0.00000000000E+00  0.22451518537E+04  0.22451518537E+04  0.00000000000E+00 0.  1.
          2   -1    0    0  501    0  0.00000000000E+00 -0.00000000000E+00 -0.13933137446E+04  0.13933137446E+04  0.00000000000E+00 0. -1.
         23    2    1    2    0    0 -0.62755730398E+03  0.12209526197E+04  0.13455949079E+04  0.19245014259E+04  0.92339658780E+02 0.  0.
        254    2    1    2    0    0  0.62755730398E+03 -0.12209526197E+04 -0.49375679877E+03  0.17139641724E+04  0.89962433191E+03 0.  0.
        -24    2    4    4    0    0  0.69384124978E+01 -0.68334979257E+03 -0.55882453973E+03  0.88641280165E+03  0.80172988910E+02 0.  0.
         24    2    4    4    0    0  0.62061889149E+03 -0.53760282714E+03  0.65067740964E+02  0.82755137074E+03  0.80142698293E+02 0.  0.
         11    1    3    3    0    0 -0.13491797543E+03  0.20580849228E+03  0.27555497472E+03  0.36944626089E+03  0.00000000000E+00 0. -1.
        -11    1    3    3    0    0 -0.49263932855E+03  0.10151441274E+04  0.10700399332E+04  0.15550551650E+04  0.00000000000E+00 0.  1.
          2    1    6    6  502    0  0.57781365060E+03 -0.47968631899E+03  0.42914155814E+02  0.75220290096E+03  0.00000000000E+00 0. -1.
          3    1    5    5  503    0 -0.16741559800E+02 -0.55302963783E+03 -0.47858416401E+03  0.73154963070E+03  0.00000000000E+00 0. -1.
         -4    1    5    5    0  503  0.23679972298E+02 -0.13032015474E+03 -0.80240375720E+02  0.15486317094E+03  0.00000000000E+00 0.  1.
         -1    1    6    6    0  502  0.42805240884E+02 -0.57916508152E+02  0.22153585150E+02  0.75348469783E+02  0.00000000000E+00 0.  1.
<mgrwt>
<rscale>  0 0.35373442E+04</rscale>
<asrwt>0</asrwt>
<pdfrwt beam="1">  1        2 0.21435596E+00 0.35373442E+04</pdfrwt>
<pdfrwt beam="2">  1       -2 0.34540798E+00 0.35373442E+04</pdfrwt>
<totfact> 0.19880411E-01</totfact>
</mgrwt>
</event>
<event>
12    1  0.1472088E-007  0.1940098E+04  0.7818608E-02  0.8635150E-01
          2   -1    0    0  501    0  0.00000000000E+00  0.00000000000E+00  0.32964548326E+04  0.32964548326E+04  0.00000000000E+00 0. -1.
         -2   -1    0    0    0  501 -0.00000000000E+00 -0.00000000000E+00 -0.28545677673E+03  0.28545677673E+03  0.00000000000E+00 0.  1.
         23    2    1    2    0    0 -0.41191033451E+03 -0.32545763489E+03  0.15635308264E+03  0.55527920605E+03  0.91081910606E+02 0.  0.
        254    2    1    2    0    0  0.41191033451E+03  0.32545763489E+03  0.28546449733E+04  0.30266324033E+04  0.85785370871E+03 0.  0.
        -24    2    4    4    0    0  0.12509292300E+02  0.40793310828E+03  0.22789986062E+04  0.23166762718E+04  0.81168947215E+02 0.  0.
         24    2    4    4    0    0  0.39940104221E+03 -0.82475473392E+02  0.57564636706E+03  0.70995613151E+03  0.79659101945E+02 0.  0.
         11    1    3    3    0    0 -0.37295732151E+03 -0.31630081243E+03  0.12583052646E+03  0.50495216506E+03  0.00000000000E+00 0.  1.
        -11    1    3    3    0    0 -0.38953013006E+02 -0.91568224605E+01  0.30522556174E+02  0.50327040995E+02  0.00000000000E+00 0. -1.
          2    1    6    6  502    0  0.56194733548E+02 -0.16865149994E+00  0.41997779852E+02  0.70154757746E+02  0.00000000000E+00 0. -1.
          1    1    5    5  503    0 -0.22761551183E+00  0.61452891260E+01  0.67018384470E+01  0.90956597250E+01  0.00000000000E+00 0. -1.
         -2    1    5    5    0  503  0.12736907812E+02  0.40178781915E+03  0.22722967678E+04  0.23075806121E+04  0.00000000000E+00 0.  1.
         -1    1    6    6    0  502  0.34320630866E+03 -0.82306821892E+02  0.53364858721E+03  0.63980137376E+03  0.00000000000E+00 0.  1.
<mgrwt>
<rscale>  0 0.19400983E+04</rscale>
<asrwt>0</asrwt>
<pdfrwt beam="1">  1        2 0.50714687E+00 0.19400983E+04</pdfrwt>
<pdfrwt beam="2">  1       -2 0.43916429E-01 0.19400983E+04</pdfrwt>
<totfact> 0.51650429E+00</totfact>
</mgrwt>
</event>
<event>
12    1  0.1472088E-007  0.2283037E+04  0.7818608E-02  0.8484640E-01
         -2   -1    0    0    0  501 -0.00000000000E+00  0.00000000000E+00  0.12335797502E+04  0.12335797502E+04  0.00000000000E+00 0. -1.
          2   -1    0    0  501    0  0.00000000000E+00 -0.00000000000E+00 -0.10563273958E+04  0.10563273958E+04  0.00000000000E+00 0.  1.
         23    2    1    2    0    0  0.50882311921E+03 -0.52916442573E+02 -0.74325560972E+03  0.90690082495E+03  0.91318609112E+02 0.  0.
        254    2    1    2    0    0 -0.50882311921E+03  0.52916442573E+02  0.92050796410E+03  0.13830063210E+04  0.89647668979E+03 0.  0.
        -24    2    4    4    0    0 -0.21782743978E+03  0.44396130802E+03  0.27908213731E+03  0.57339565098E+03  0.79657370365E+02 0.  0.
         24    2    4    4    0    0 -0.29099567943E+03 -0.39104486545E+03  0.64142582679E+03  0.80961067000E+03  0.80298028992E+02 0.  0.
         11    1    3    3    0    0  0.10573469583E+03 -0.43002529435E+02 -0.13041411465E+03  0.17331152512E+03  0.00000000000E+00 0. -1.
        -11    1    3    3    0    0  0.40308842338E+03 -0.99139131378E+01 -0.61284149507E+03  0.73358929983E+03  0.00000000000E+00 0.  1.
          2    1    6    6  502    0  0.30419694416E+00 -0.17981039837E+02  0.10321953890E+02  0.20735309535E+02  0.00000000000E+00 0. -1.
          3    1    5    5  503    0  0.11823298082E+01  0.23684188682E+02  0.61609966586E+00  0.23721683669E+02  0.00000000000E+00 0. -1.
         -4    1    5    5    0  503 -0.21900976959E+03  0.42027711934E+03  0.27846603765E+03  0.54967396731E+03  0.00000000000E+00 0.  1.
         -1    1    6    6    0  502 -0.29129987638E+03 -0.37306382561E+03  0.63110387290E+03  0.78887536046E+03  0.00000000000E+00 0.  1.
<mgrwt>
<rscale>  0 0.22830366E+04</rscale>
<asrwt>0</asrwt>
<pdfrwt beam="1">  1        2 0.16251191E+00 0.22830366E+04</pdfrwt>
<pdfrwt beam="2">  1       -2 0.18978150E+00 0.22830366E+04</pdfrwt>
<totfact> 0.32745219E+00</totfact>
</mgrwt>
</event>
<event>
12    1  0.1472088E-007  0.1731724E+04  0.7818608E-02  0.8743475E-01
         -1   -1    0    0    0  501 -0.00000000000E+00  0.00000000000E+00  0.43119523194E+03  0.43119523194E+03  0.00000000000E+00 0.  1.
          1   -1    0    0  501    0  0.00000000000E+00 -0.00000000000E+00 -0.17386959425E+04  0.17386959425E+04  0.00000000000E+00 0. -1.
         23    2    1    2    0    0  0.31012474246E+02 -0.80947485796E+02  0.29267607114E+03  0.31845053975E+03  0.90758992008E+02 0.  0.
        254    2    1    2    0    0 -0.31012474246E+02  0.80947485796E+02 -0.16001767817E+04  0.18514406347E+04  0.92722835486E+03 0.  0.
        -24    2    4    4    0    0 -0.37189860057E+03  0.32443622285E+03 -0.95597460551E+03  0.10787723842E+04  0.79340901463E+02 0.  0.
         24    2    4    4    0    0  0.34088612632E+03 -0.24348873705E+03 -0.64420217616E+03  0.77266825050E+03  0.80806344840E+02 0.  0.
         11    1    3    3    0    0  0.48083721764E+01  0.19599402185E+02  0.32033446815E+02  0.37860252559E+02  0.00000000000E+00 0. -1.
        -11    1    3    3    0    0  0.26204102070E+02 -0.10054688798E+03  0.26064262433E+03  0.28059028719E+03  0.00000000000E+00 0.  1.
          4    1    6    6  502    0  0.20373740049E+03 -0.18170515003E+03 -0.45932712029E+03  0.53432863796E+03  0.00000000000E+00 0. -1.
          3    1    5    5  503    0 -0.33337300526E+03  0.31801322033E+03 -0.87604504850E+03  0.98981053538E+03  0.00000000000E+00 0. -1.
         -4    1    5    5    0  503 -0.38525595313E+02  0.64230025215E+01 -0.79929557005E+02  0.88961848781E+02  0.00000000000E+00 0.  1.
         -3    1    6    6    0  502  0.13714872584E+03 -0.61783587021E+02 -0.18487505586E+03  0.23833961254E+03  0.00000000000E+00 0.  1.
<mgrwt>
<rscale>  0 0.17317245E+04</rscale>
<asrwt>0</asrwt>
<pdfrwt beam="1">  1        1 0.26749169E+00 0.17317245E+04</pdfrwt>
<pdfrwt beam="2">  1       -1 0.66337727E-01 0.17317245E+04</pdfrwt>
<totfact> 0.98014275E+00</totfact>
</mgrwt>
</event>
<event>
12    1  0.1472088E-007  0.2016474E+04  0.7818608E-02  0.8598957E-01
         -1   -1    0    0    0  501 -0.00000000000E+00  0.00000000000E+00  0.32333568920E+03  0.32333568920E+03  0.00000000000E+00 0.  1.
          1   -1    0    0  501    0  0.00000000000E+00 -0.00000000000E+00 -0.31439221841E+04  0.31439221841E+04  0.00000000000E+00 0. -1.
         23    2    1    2    0    0  0.27731636020E+03 -0.60000066708E+03 -0.18948476243E+04  0.20089866705E+04  0.93138384828E+02 0.  0.
        254    2    1    2    0    0 -0.27731636020E+03  0.60000066708E+03 -0.92573887060E+03  0.14582712028E+04  0.91250056457E+03 0.  0.
        -24    2    4    4    0    0  0.28066882164E+03  0.45864057630E+03 -0.48737387890E+03  0.73020107965E+03  0.80834109279E+02 0.  0.
         24    2    4    4    0    0 -0.55798518184E+03  0.14136009078E+03 -0.43836499170E+03  0.72807012317E+03  0.81191747689E+02 0.  0.
         11    1    3    3    0    0  0.39312404187E+02 -0.51310153946E+02 -0.26795239348E+03  0.27563868050E+03  0.00000000000E+00 0. -1.
        -11    1    3    3    0    0  0.23800395601E+03 -0.54869051313E+03 -0.16268952309E+04  0.17333479900E+04  0.00000000000E+00 0.  1.
          2    1    6    6  502    0 -0.12910337327E+02  0.14311163605E+02 -0.41934015463E+01  0.19724878457E+02  0.00000000000E+00 0. -1.
          1    1    5    5  503    0  0.30582143345E+02  0.23648533100E+02 -0.58554202551E+02  0.70164914635E+02  0.00000000000E+00 0. -1.
         -2    1    5    5    0  503  0.25008667830E+03  0.43499204320E+03 -0.42881967635E+03  0.66003616502E+03  0.00000000000E+00 0.  1.
         -1    1    6    6    0  502 -0.54507484451E+03  0.12704892718E+03 -0.43417159015E+03  0.70834524472E+03  0.00000000000E+00 0.  1.
<mgrwt>
<rscale>  0 0.20164744E+04</rscale>
<asrwt>0</asrwt>
<pdfrwt beam="1">  1        1 0.48368032E+00 0.20164744E+04</pdfrwt>
<pdfrwt beam="2">  1       -1 0.49743954E-01 0.20164744E+04</pdfrwt>
<totfact> 0.17620522E+00</totfact>
</mgrwt>
</event>
<event>
12    1  0.1472088E-007  0.1640569E+04  0.7818608E-02  0.8796005E-01
          2   -1    0    0  501    0  0.00000000000E+00  0.00000000000E+00  0.40058157518E+03  0.40058157518E+03  0.00000000000E+00 0. -1.
         -2   -1    0    0    0  501 -0.00000000000E+00 -0.00000000000E+00 -0.16797251458E+04  0.16797251458E+04  0.00000000000E+00 0.  1.
         23    2    1    2    0    0 -0.40395089022E+02 -0.34910289032E+03 -0.10144107650E+04  0.10774915923E+04  0.91947485373E+02 0.  0.
        254    2    1    2    0    0  0.40395089022E+02  0.34910289032E+03 -0.26473280567E+03  0.10028151287E+04  0.90113824288E+03 0.  0.
        -24    2    4    4    0    0  0.15902316137E+03 -0.14532827636E+03 -0.40813217771E+03  0.46837251533E+03  0.79951640841E+02 0.  0.
         24    2    4    4    0    0 -0.11862807235E+03  0.49443116668E+03  0.14339937204E+03  0.53444261341E+03  0.80812925876E+02 0.  0.
         13    1    3    3    0    0  0.12908170157E+02 -0.19524336430E+02 -0.13149430786E+03  0.13356112297E+03  0.00000000000E+00 0. -1.
        -13    1    3    3    0    0 -0.53303259179E+02 -0.32957855389E+03 -0.88291645710E+03  0.94393046928E+03  0.00000000000E+00 0.  1.
          4    1    6    6  502    0 -0.51809130720E+02  0.99793391028E+02  0.11557781706E+02  0.11303313336E+03  0.00000000000E+00 0. -1.
          3    1    5    5  503    0  0.59391807050E+02 -0.59526684789E+02 -0.85240967194E+02  0.11973652507E+03  0.00000000000E+00 0. -1.
         -4    1    5    5    0  503  0.99631354323E+02 -0.85801591571E+02 -0.32289121052E+03  0.34863599027E+03  0.00000000000E+00 0.  1.
         -3    1    6    6    0  502 -0.66818941630E+02  0.39463777565E+03  0.13184159034E+03  0.42140948005E+03  0.00000000000E+00 0.  1.
<mgrwt>
<rscale>  0 0.16405693E+04</rscale>
<asrwt>0</asrwt>
<pdfrwt beam="1">  1        2 0.61627934E-01 0.16405693E+04</pdfrwt>
<pdfrwt beam="2">  1       -2 0.25841926E+00 0.16405693E+04</pdfrwt>
<totfact> 0.43319579E+00</totfact>
</mgrwt>
</event>
<event>
12    1  0.1472088E-007  0.2354095E+04  0.7818608E-02  0.8456892E-01
          2   -1    0    0  501    0  0.00000000000E+00  0.00000000000E+00  0.14380468493E+04  0.14380468493E+04  0.00000000000E+00 0.  1.
         -2   -1    0    0    0  501 -0.00000000000E+00 -0.00000000000E+00 -0.96341865243E+03  0.96341865243E+03  0.00000000000E+00 0. -1.
         23    2    1    2    0    0  0.62758008214E+03  0.12551615376E+03 -0.58203815109E+03  0.86991182587E+03  0.91471914282E+02 0.  0.
        254    2    1    2    0    0 -0.62758008214E+03 -0.12551615376E+03  0.10566663480E+04  0.15315536759E+04  0.90526340189E+03 0.  0.
        -24    2    4    4    0    0 -0.21129290488E+03 -0.15855654231E+03  0.10712642020E+04  0.11062264352E+04  0.79655927700E+02 0.  0.
         24    2    4    4    0    0 -0.41628717726E+03  0.33040388552E+02 -0.14597853964E+02  0.42532724067E+03  0.79394477694E+02 0.  0.
         13    1    3    3    0    0  0.10439640703E+03 -0.13259324459E+02 -0.94129776127E+02  0.14119077250E+03  0.00000000000E+00 0.  1.
        -13    1    3    3    0    0  0.52318367512E+03  0.13877547822E+03 -0.48790837496E+03  0.72872105337E+03  0.00000000000E+00 0. -1.
          2    1    6    6  502    0 -0.34809018905E+03  0.47693269452E+02  0.96630362190E+01  0.35147517968E+03  0.00000000000E+00 0. -1.
          1    1    5    5  503    0 -0.81526578701E+02 -0.79587902607E+02  0.31789902809E+03  0.33769899220E+03  0.00000000000E+00 0. -1.
         -2    1    5    5    0  503 -0.12976632618E+03 -0.78968639702E+02  0.75336517388E+03  0.76852744303E+03  0.00000000000E+00 0.  1.
         -1    1    6    6    0  502 -0.68196988215E+02 -0.14652880900E+02 -0.24260890183E+02  0.73852060992E+02  0.00000000000E+00 0.  1.
<mgrwt>
<rscale>  0 0.23540953E+04</rscale>
<asrwt>0</asrwt>
<pdfrwt beam="1">  1        2 0.22123798E+00 0.23540953E+04</pdfrwt>
<pdfrwt beam="2">  1       -2 0.14821825E+00 0.23540953E+04</pdfrwt>
<totfact> 0.38427237E+00</totfact>
</mgrwt>
</event>
<event>
12    1  0.1472088E-007  0.1935265E+04  0.7818608E-02  0.8637499E-01
          2   -1    0    0  501    0  0.00000000000E+00  0.00000000000E+00  0.27419678370E+04  0.27419678370E+04  0.00000000000E+00 0.  1.
         -2   -1    0    0    0  501 -0.00000000000E+00 -0.00000000000E+00 -0.34147459860E+03  0.34147459860E+03  0.00000000000E+00 0. -1.
         23    2    1    2    0    0 -0.21241816162E+03 -0.23934182151E+03 -0.15116919885E+03  0.36561123636E+03  0.91724950606E+02 0.  0.
        254    2    1    2    0    0  0.21241816162E+03  0.23934182151E+03  0.25516624373E+04  0.27178311992E+04  0.87932886395E+03 0.  0.
        -24    2    4    4    0    0 -0.17393557976E+03 -0.16780474590E+03  0.15166951016E+04  0.15379375374E+04  0.80472474316E+02 0.  0.
         24    2    4    4    0    0  0.38635374138E+03  0.40714656740E+03  0.10349673356E+04  0.11798936618E+04  0.77162986697E+02 0.  0.
         13    1    3    3    0    0 -0.12130415434E+03 -0.19683876339E+03 -0.11906169349E+03  0.26006899755E+03  0.00000000000E+00 0. -1.
        -13    1    3    3    0    0 -0.91114007276E+02 -0.42503058121E+02 -0.32107505358E+02  0.10554223880E+03  0.00000000000E+00 0.  1.
          4    1    6    6  502    0  0.16878925058E+03  0.22984480031E+03  0.49151055678E+03  0.56824384798E+03  0.00000000000E+00 0. -1.
          3    1    5    5  503    0 -0.10850341162E+03 -0.15300552721E+03  0.11007412427E+04  0.11166086894E+04  0.00000000000E+00 0. -1.
         -4    1    5    5    0  503 -0.65432168142E+02 -0.14799218683E+02  0.41595385889E+03  0.42132884808E+03  0.00000000000E+00 0.  1.
         -1    1    6    6    0  502  0.21756449081E+03  0.17730176709E+03  0.54345677886E+03  0.61164981384E+03  0.00000000000E+00 0.  1.
<mgrwt>
<rscale>  0 0.19352647E+04</rscale>
<asrwt>0</asrwt>
<pdfrwt beam="1">  1        2 0.42184119E+00 0.19352647E+04</pdfrwt>
<pdfrwt beam="2">  1       -2 0.52534555E-01 0.19352647E+04</pdfrwt>
<totfact> 0.80155155E+00</totfact>
</mgrwt>
</event>
<event>
12    1  0.1472088E-007  0.1340239E+04  0.7818608E-02  0.8998250E-01
          2   -1    0    0  501    0  0.00000000000E+00  0.00000000000E+00  0.16175077838E+04  0.16175077838E+04  0.00000000000E+00 0. -1.
         -2   -1    0    0    0  501 -0.00000000000E+00 -0.00000000000E+00 -0.27762486927E+03  0.27762486927E+03  0.00000000000E+00 0.  1.
         23    2    1    2    0    0 -0.96086508525E+02 -0.34337582286E+03  0.44424980210E+03  0.57643890009E+03  0.88228940963E+02 0.  0.
        254    2    1    2    0    0  0.96086508525E+02  0.34337582286E+03  0.89563311246E+03  0.13186937530E+04  0.89980829583E+03 0.  0.
        -24    2    4    4    0    0 -0.19371194385E+03  0.62097045509E+02 -0.10077097410E+03  0.24070601123E+03  0.80026460425E+02 0.  0.
         24    2    4    4    0    0  0.28979845238E+03  0.28127877735E+03  0.99640408656E+03  0.10779877418E+04  0.78329905732E+02 0.  0.
         13    1    3    3    0    0 -0.68521317801E+02 -0.25988056378E+03  0.26839743187E+03  0.37982925092E+03  0.00000000000E+00 0. -1.
        -13    1    3    3    0    0 -0.27565190724E+02 -0.83495259081E+02  0.17585237023E+03  0.19660964917E+03  0.00000000000E+00 0.  1.
          2    1    6    6  502    0  0.13165438957E+03  0.94183960554E+02  0.47680208214E+03  0.50353125251E+03  0.00000000000E+00 0. -1.
          3    1    5    5  503    0  0.59899015745E+01 -0.20984087798E+01  0.25924626003E+01  0.68558808780E+01  0.00000000000E+00 0. -1.
         -2    1    5    5    0  503 -0.19970184543E+03  0.64195454288E+02 -0.10336343670E+03  0.23385013035E+03  0.00000000000E+00 0.  1.
         -1    1    6    6    0  502  0.15814406280E+03  0.18709481679E+03  0.51960200442E+03  0.57445648927E+03  0.00000000000E+00 0.  1.
<mgrwt>
<rscale>  0 0.13402394E+04</rscale>
<asrwt>0</asrwt>
<pdfrwt beam="1">  1        2 0.24884735E+00 0.13402394E+04</pdfrwt>
<pdfrwt beam="2">  1       -2 0.42711519E-01 0.13402394E+04</pdfrwt>
<totfact> 0.55368241E+01</totfact>
</mgrwt>
</event>
<event>
12    1  0.1472088E-007  0.2094059E+04  0.7818608E-02  0.8563865E-01
         -1   -1    0    0    0  501 -0.00000000000E+00  0.00000000000E+00  0.50340969872E+03  0.50340969872E+03  0.00000000000E+00 0.  1.
          1   -1    0    0  501    0  0.00000000000E+00 -0.00000000000E+00 -0.21776910547E+04  0.21776910547E+04  0.00000000000E+00 0. -1.
         23    2    1    2    0    0 -0.44815008171E+03  0.37861094026E+03  0.10495404145E+03  0.60268540411E+03  0.89608067128E+02 0.  0.
        254    2    1    2    0    0  0.44815008171E+03 -0.37861094026E+03 -0.17792353974E+04  0.20784153493E+04  0.89997056891E+03 0.  0.
        -24    2    4    4    0    0 -0.65198952093E+02 -0.13732307929E+02  0.68836273726E+02  0.12434835301E+03  0.79275473393E+02 0.  0.
         24    2    4    4    0    0  0.51334903380E+03 -0.36487863233E+03 -0.18480716711E+04  0.19540669963E+04  0.79657249565E+02 0.  0.
         11    1    3    3    0    0 -0.32047948029E+03  0.26966852438E+03  0.33196727871E+02  0.42015501076E+03  0.00000000000E+00 0.  1.
        -11    1    3    3    0    0 -0.12767060142E+03  0.10894241588E+03  0.71757313580E+02  0.18253039335E+03  0.00000000000E+00 0. -1.
          2    1    6    6  502    0  0.18468758052E+03 -0.17895008826E+03 -0.76183776466E+03  0.80407052934E+03  0.00000000000E+00 0. -1.
          1    1    5    5  503    0  0.17398716320E+02 -0.11198019131E+02  0.17192686245E+02  0.26901662075E+02  0.00000000000E+00 0. -1.
         -2    1    5    5    0  503 -0.82597668413E+02 -0.25342887980E+01  0.51643587481E+02  0.97446690939E+02  0.00000000000E+00 0.  1.
         -1    1    6    6    0  502  0.32866145328E+03 -0.18592854407E+03 -0.10862339065E+04  0.11499964669E+04  0.00000000000E+00 0.  1.
<mgrwt>
<rscale>  0 0.20940590E+04</rscale>
<asrwt>0</asrwt>
<pdfrwt beam="1">  1        1 0.33502940E+00 0.20940590E+04</pdfrwt>
<pdfrwt beam="2">  1       -1 0.77447645E-01 0.20940590E+04</pdfrwt>
<totfact> 0.34690364E+00</totfact>
</mgrwt>
</event>
<event>
12    1  0.1472088E-007  0.2724263E+04  0.7818608E-02  0.8327175E-01
          2   -1    0    0  501    0  0.00000000000E+00  0.00000000000E+00  0.23431296688E+04  0.23431296688E+04  0.00000000000E+00 0. -1.
         -2   -1    0    0    0  501 -0.00000000000E+00 -0.00000000000E+00 -0.79184789855E+03  0.79184789855E+03  0.00000000000E+00 0.  1.
         23    2    1    2    0    0 -0.88920601367E+03  0.79465298282E+03  0.95711203945E+03  0.15318663327E+04  0.91598621527E+02 0.  0.
        254    2    1    2    0    0  0.88920601367E+03 -0.79465298282E+03  0.59416973080E+03  0.16031112346E+04  0.89149720341E+03 0.  0.
        -24    2    4    4    0    0  0.35600348169E+03  0.12218569355E+03  0.33059059400E+03  0.50730026946E+03  0.79972494468E+02 0.  0.
         24    2    4    4    0    0  0.53320253198E+03 -0.91683867637E+03  0.26357913680E+03  0.10958109652E+04  0.80184857684E+02 0.  0.
         11    1    3    3    0    0 -0.15479826082E+03  0.14029123962E+03  0.21413834008E+03  0.29916444000E+03  0.00000000000E+00 0.  1.
        -11    1    3    3    0    0 -0.73440775285E+03  0.65436174320E+03  0.74297369937E+03  0.12327018927E+04  0.00000000000E+00 0. -1.
          4    1    6    6  502    0  0.51366069224E+03 -0.84392511416E+03  0.23942176972E+03  0.10165528461E+04  0.00000000000E+00 0. -1.
          3    1    5    5  503    0  0.62338985815E+02  0.27502577298E+02  0.10462348778E+03  0.12485437560E+03  0.00000000000E+00 0. -1.
         -4    1    5    5    0  503  0.29366449587E+03  0.94683116247E+02  0.22596710622E+03  0.38244589386E+03  0.00000000000E+00 0.  1.
         -3    1    6    6    0  502  0.19541839737E+02 -0.72913562214E+02  0.24157367086E+02  0.79258119077E+02  0.00000000000E+00 0.  1.
<mgrwt>
<rscale>  0 0.27242631E+04</rscale>
<asrwt>0</asrwt>
<pdfrwt beam="1">  1        2 0.36048148E+00 0.27242631E+04</pdfrwt>
<pdfrwt beam="2">  1       -2 0.12182275E+00 0.27242631E+04</pdfrwt>
<totfact> 0.19182437E+00</totfact>
</mgrwt>
</event>
<event>
12    1  0.1472088E-007  0.1666033E+04  0.7818608E-02  0.8780978E-01
          2   -1    0    0  501    0  0.00000000000E+00  0.00000000000E+00  0.48516071643E+03  0.48516071643E+03  0.00000000000E+00 0. -1.
         -2   -1    0    0    0  501 -0.00000000000E+00 -0.00000000000E+00 -0.14302808853E+04  0.14302808853E+04  0.00000000000E+00 0.  1.
         23    2    1    2    0    0 -0.29321333856E+03  0.52971786080E+03 -0.50617573997E+03  0.79518279043E+03  0.97604899924E+02 0.  0.
        254    2    1    2    0    0  0.29321333856E+03 -0.52971786080E+03 -0.43894442890E+03  0.11202588113E+04  0.83410581982E+03 0.  0.
        -24    2    4    4    0    0  0.42504241627E+03 -0.47369866285E+03  0.10112171647E+02  0.64156404852E+03  0.80316209616E+02 0.  0.
         24    2    4    4    0    0 -0.13182907771E+03 -0.56019197955E+02 -0.44905660054E+03  0.47869476277E+03  0.83545132363E+02 0.  0.
         11    1    3    3    0    0 -0.11704351187E+03  0.21913437143E+03 -0.14673332321E+03  0.28853028360E+03  0.00000000000E+00 0.  1.
        -11    1    3    3    0    0 -0.17616982669E+03  0.31058348937E+03 -0.35944241676E+03  0.50665250682E+03  0.00000000000E+00 0. -1.
          4    1    6    6  502    0 -0.13914950337E+02 -0.45322011004E+02 -0.12567132697E+03  0.13431676347E+03  0.00000000000E+00 0. -1.
          3    1    5    5  503    0  0.20558432739E+03 -0.20471330261E+03  0.41141363493E+02  0.29302741122E+03  0.00000000000E+00 0. -1.
         -4    1    5    5    0  503  0.21945808888E+03 -0.26898536024E+03 -0.31029191846E+02  0.34853663731E+03  0.00000000000E+00 0.  1.
         -1    1    6    6    0  502 -0.11791412738E+03 -0.10697186951E+02 -0.32338527357E+03  0.34437799930E+03  0.00000000000E+00 0.  1.
<mgrwt>
<rscale>  0 0.16660325E+04</rscale>
<asrwt>0</asrwt>
<pdfrwt beam="1">  1        2 0.74640112E-01 0.16660325E+04</pdfrwt>
<pdfrwt beam="2">  1       -2 0.22004321E+00 0.16660325E+04</pdfrwt>
<totfact> 0.60055984E+00</totfact>
</mgrwt>
</event>
<event>
12    1  0.1472088E-007  0.1861573E+04  0.7818608E-02  0.8674224E-01
         -1   -1    0    0    0  501 -0.00000000000E+00  0.00000000000E+00  0.63886805878E+03  0.63886805878E+03  0.00000000000E+00 0.  1.
          1   -1    0    0  501    0  0.00000000000E+00 -0.00000000000E+00 -0.13560913874E+04  0.13560913874E+04  0.00000000000E+00 0. -1.
         23    2    1    2    0    0  0.18716418694E+03 -0.24475760669E+03 -0.90372529277E+03  0.95915233160E+03  0.91197979734E+02 0.  0.
        254    2    1    2    0    0 -0.18716418694E+03  0.24475760669E+03  0.18650196420E+03  0.10358071145E+04  0.97117283579E+03 0.  0.
        -24    2    4    4    0    0  0.22478199528E+03  0.39272358680E+03  0.33440116295E+03  0.56751614934E+03  0.74105876629E+02 0.  0.
         24    2    4    4    0    0 -0.41194618222E+03 -0.14796598011E+03 -0.14789919875E+03  0.46829096519E+03  0.76345705705E+02 0.  0.
         11    1    3    3    0    0  0.25180756789E+02 -0.69831273794E+02 -0.32247883096E+03  0.33091248652E+03  0.00000000000E+00 0.  1.
        -11    1    3    3    0    0  0.16198343015E+03 -0.17492633290E+03 -0.58124646181E+03  0.62823984508E+03  0.00000000000E+00 0. -1.
          4    1    6    6  502    0 -0.28644346534E+03 -0.13782102276E+03 -0.11622127640E+03  0.33845513475E+03  0.00000000000E+00 0. -1.
          1    1    5    5  503    0 -0.58596780022E+01  0.12177401596E+02  0.11024057705E+02  0.17440033951E+02  0.00000000000E+00 0. -1.
         -2    1    5    5    0  503  0.23064167328E+03  0.38054618521E+03  0.32337710525E+03  0.55007611539E+03  0.00000000000E+00 0.  1.
         -3    1    6    6    0  502 -0.12550271687E+03 -0.10144957348E+02 -0.31677922357E+02  0.12983583044E+03  0.00000000000E+00 0.  1.
<mgrwt>
<rscale>  0 0.18615730E+04</rscale>
<asrwt>0</asrwt>
<pdfrwt beam="1">  1        1 0.20862944E+00 0.18615730E+04</pdfrwt>
<pdfrwt beam="2">  1       -1 0.98287395E-01 0.18615730E+04</pdfrwt>
<totfact> 0.76789948E+00</totfact>
</mgrwt>
</event>
<event>
12    1  0.1472088E-007  0.1380803E+04  0.7818608E-02  0.8967833E-01
          1   -1    0    0  501    0  0.00000000000E+00  0.00000000000E+00  0.13642671648E+04  0.13642671648E+04  0.00000000000E+00 0. -1.
         -1   -1    0    0    0  501 -0.00000000000E+00 -0.00000000000E+00 -0.34938478580E+03  0.34938478580E+03  0.00000000000E+00 0.  1.
         23    2    1    2    0    0 -0.27168723512E+03  0.27660738804E+03  0.25357751693E+03  0.47156328892E+03  0.88004417624E+02 0.  0.
        254    2    1    2    0    0  0.27168723512E+03 -0.27660738804E+03  0.76130486208E+03  0.12420886617E+04  0.90159500311E+03 0.  0.
        -24    2    4    4    0    0  0.49226452794E+03 -0.41464403145E+03  0.32155019429E+03  0.72502184132E+03  0.89488014040E+02 0.  0.
         24    2    4    4    0    0 -0.22057729282E+03  0.13803664341E+03  0.43975466779E+03  0.51706682037E+03  0.79154733673E+02 0.  0.
         11    1    3    3    0    0 -0.44403763794E+02  0.57521038058E+02  0.91065546991E+02  0.11650449737E+03  0.00000000000E+00 0.  1.
        -11    1    3    3    0    0 -0.22728347133E+03  0.21908634998E+03  0.16251196994E+03  0.35505879155E+03  0.00000000000E+00 0. -1.
          2    1    6    6  502    0 -0.12524138642E+03  0.91485345362E+02  0.18700031739E+03  0.24294874354E+03  0.00000000000E+00 0. -1.
          3    1    5    5  503    0  0.18823693159E+03 -0.17909247622E+03  0.17590842279E+03  0.31376907219E+03  0.00000000000E+00 0. -1.
         -4    1    5    5    0  503  0.30402759635E+03 -0.23555155523E+03  0.14564177151E+03  0.41125276913E+03  0.00000000000E+00 0.  1.
         -1    1    6    6    0  502 -0.95335906402E+02  0.46551298050E+02  0.25275435040E+03  0.27411807683E+03  0.00000000000E+00 0.  1.
<mgrwt>
<rscale>  0 0.13808029E+04</rscale>
<asrwt>0</asrwt>
<pdfrwt beam="1">  1        1 0.20988725E+00 0.13808029E+04</pdfrwt>
<pdfrwt beam="2">  1       -1 0.53751506E-01 0.13808029E+04</pdfrwt>
<totfact> 0.27769770E+01</totfact>
</mgrwt>
</event>
<event>
12    1  0.1472088E-007  0.1222669E+04  0.7818608E-02  0.9093242E-01
         -2   -1    0    0    0  501 -0.00000000000E+00  0.00000000000E+00  0.28903607338E+03  0.28903607338E+03  0.00000000000E+00 0. -1.
          2   -1    0    0  501    0  0.00000000000E+00 -0.00000000000E+00 -0.12930225011E+04  0.12930225011E+04  0.00000000000E+00 0.  1.
         23    2    1    2    0    0 -0.24877413227E+03 -0.69644738958E+02 -0.20724394035E+03  0.34388933594E+03  0.92578971745E+02 0.  0.
        254    2    1    2    0    0  0.24877413227E+03  0.69644738958E+02 -0.79674248737E+03  0.12381692385E+04  0.91188020790E+03 0.  0.
        -24    2    4    4    0    0  0.54578283297E+03  0.14248082909E+03 -0.28516509016E+03  0.63681158919E+03  0.77654259742E+02 0.  0.
         24    2    4    4    0    0 -0.29700870070E+03 -0.72836090131E+02 -0.51157739721E+03  0.60135764936E+03  0.80002029888E+02 0.  0.
         11    1    3    3    0    0 -0.16530093572E+03 -0.42560576910E+02 -0.18822406727E+03  0.25409467047E+03  0.00000000000E+00 0.  1.
        -11    1    3    3    0    0 -0.83473196544E+02 -0.27084162047E+02 -0.19019873074E+02  0.89794665470E+02  0.00000000000E+00 0. -1.
          4    1    6    6  502    0 -0.26494341876E+03 -0.37511415393E+02 -0.41783120776E+03  0.49617037357E+03  0.00000000000E+00 0. -1.
          1    1    5    5  503    0  0.35711518989E+03  0.10017659720E+03 -0.14607401229E+03  0.39862792995E+03  0.00000000000E+00 0. -1.
         -2    1    5    5    0  503  0.18866764309E+03  0.42304231888E+02 -0.13909107787E+03  0.23818365924E+03  0.00000000000E+00 0.  1.
         -3    1    6    6    0  502 -0.32065281940E+02 -0.35324674738E+02 -0.93746189447E+02  0.10518727579E+03  0.00000000000E+00 0.  1.
<mgrwt>
<rscale>  0 0.12226695E+04</rscale>
<asrwt>0</asrwt>
<pdfrwt beam="1">  1        2 0.19892654E+00 0.12226695E+04</pdfrwt>
<pdfrwt beam="2">  1       -2 0.44467088E-01 0.12226695E+04</pdfrwt>
<totfact> 0.78819953E+01</totfact>
</mgrwt>
</event>
<event>
12    1  0.1472088E-007  0.1465338E+04  0.7818608E-02  0.8907836E-01
         -2   -1    0    0    0  501 -0.00000000000E+00  0.00000000000E+00  0.15977545612E+04  0.15977545612E+04  0.00000000000E+00 0.  1.
          2   -1    0    0  501    0  0.00000000000E+00 -0.00000000000E+00 -0.33597376338E+03  0.33597376338E+03  0.00000000000E+00 0. -1.
         23    2    1    2    0    0  0.20594405676E+03  0.15685763136E+03 -0.99902534474E+02  0.29184255328E+03  0.90411771805E+02 0.  0.
        254    2    1    2    0    0 -0.20594405676E+03 -0.15685763136E+03  0.13616833323E+04  0.16418857713E+04  0.88010801469E+03 0.  0.
        -24    2    4    4    0    0 -0.42664465326E+03 -0.21750904422E+03  0.13053493928E+04  0.13927081377E+04  0.79768884403E+02 0.  0.
         24    2    4    4    0    0  0.22070059650E+03  0.60651412864E+02  0.56333939453E+02  0.24917763361E+03  0.80799957799E+02 0.  0.
         11    1    3    3    0    0  0.15299250522E+03  0.15225127706E+03 -0.10183099506E+03  0.23865604869E+03  0.00000000000E+00 0. -1.
        -11    1    3    3    0    0  0.52951551545E+02  0.46063542993E+01  0.19284605896E+01  0.53186504596E+02  0.00000000000E+00 0.  1.
          2    1    6    6  502    0  0.77850274237E+02  0.66670354806E+01 -0.16702051692E+02  0.79900394815E+02  0.00000000000E+00 0. -1.
          1    1    5    5  503    0 -0.47830039504E+02 -0.35519633584E+02  0.24432234328E+03  0.25148114139E+03  0.00000000000E+00 0. -1.
         -2    1    5    5    0  503 -0.37881461376E+03 -0.18198941064E+03  0.10610270495E+04  0.11412269963E+04  0.00000000000E+00 0.  1.
         -1    1    6    6    0  502  0.14285032226E+03  0.53984377383E+02  0.73035991145E+02  0.16927723880E+03  0.00000000000E+00 0.  1.
<mgrwt>
<rscale>  0 0.14653377E+04</rscale>
<asrwt>0</asrwt>
<pdfrwt beam="1">  1        2 0.51688272E-01 0.14653377E+04</pdfrwt>
<pdfrwt beam="2">  1       -2 0.24580839E+00 0.14653377E+04</pdfrwt>
<totfact> 0.63946390E+00</totfact>
</mgrwt>
</event>
<event>
12    1  0.1472088E-007  0.4084328E+04  0.7818608E-02  0.7987748E-01
         -2   -1    0    0    0  501 -0.00000000000E+00  0.00000000000E+00  0.10890659710E+04  0.10890659710E+04  0.00000000000E+00 0.  1.
          2   -1    0    0  501    0  0.00000000000E+00 -0.00000000000E+00 -0.38293679965E+04  0.38293679965E+04  0.00000000000E+00 0. -1.
         23    2    1    2    0    0 -0.49821975601E+03  0.12453140436E+04 -0.30015467134E+04  0.32888766703E+04  0.91635622481E+02 0.  0.
        254    2    1    2    0    0  0.49821975601E+03 -0.12453140436E+04  0.26124468786E+03  0.16295572972E+04  0.88779401058E+03 0.  0.
        -24    2    4    4    0    0  0.43845804531E+03 -0.12691556134E+04  0.44683573228E+03  0.14173968838E+04  0.79688931951E+02 0.  0.
         24    2    4    4    0    0  0.59761710697E+02  0.23841569796E+02 -0.18559104442E+03  0.21216041339E+03  0.80175574357E+02 0.  0.
         11    1    3    3    0    0 -0.30370102217E+03  0.65083403373E+03 -0.16573436198E+04  0.18062688406E+04  0.00000000000E+00 0. -1.
        -11    1    3    3    0    0 -0.19451873383E+03  0.59448000990E+03 -0.13442030936E+04  0.14826078298E+04  0.00000000000E+00 0.  1.
          2    1    6    6  502    0  0.50148856295E+02  0.50467142371E+02 -0.10580220907E+03  0.12749881447E+03  0.00000000000E+00 0. -1.
          3    1    5    5  503    0  0.33443701666E+03 -0.89013493573E+03  0.34319833259E+03  0.10109270089E+04  0.00000000000E+00 0. -1.
         -4    1    5    5    0  503  0.10402102865E+03 -0.37902067770E+03  0.10363739970E+03  0.40646987483E+03  0.00000000000E+00 0.  1.
         -1    1    6    6    0  502  0.96128544025E+01 -0.26625572575E+02 -0.79788835353E+02  0.84661598920E+02  0.00000000000E+00 0.  1.
<mgrwt>
<rscale>  0 0.40843283E+04</rscale>
<asrwt>0</asrwt>
<pdfrwt beam="1">  1        2 0.58913355E+00 0.40843283E+04</pdfrwt>
<pdfrwt beam="2">  1       -2 0.16754861E+00 0.40843283E+04</pdfrwt>
<totfact> 0.80848829E-02</totfact>
</mgrwt>
</event>
<event>
12    1  0.1472088E-007  0.2895201E+04  0.7818608E-02  0.8274307E-01
         -2   -1    0    0    0  501 -0.00000000000E+00  0.00000000000E+00  0.10468456983E+04  0.10468456983E+04  0.00000000000E+00 0. -1.
          2   -1    0    0  501    0  0.00000000000E+00 -0.00000000000E+00 -0.20017726411E+04  0.20017726411E+04  0.00000000000E+00 0.  1.
         23    2    1    2    0    0  0.56074794590E+03  0.97992887283E+03 -0.11259424841E+04  0.15973144668E+04  0.94700441808E+02 0.  0.
        254    2    1    2    0    0 -0.56074794590E+03 -0.97992887283E+03  0.17101554137E+03  0.14513038726E+04  0.89573308561E+03 0.  0.
        -24    2    4    4    0    0  0.80671592705E+02 -0.19609234098E+03  0.35247883027E+03  0.41914137393E+03  0.80486355926E+02 0.  0.
         24    2    4    4    0    0 -0.64141953860E+03 -0.78383653186E+03 -0.18146328890E+03  0.10321624987E+04  0.81312762289E+02 0.  0.
         11    1    3    3    0    0  0.43324953299E+03  0.71395968136E+03 -0.88097222626E+03  0.12139010042E+04  0.00000000000E+00 0.  1.
        -11    1    3    3    0    0  0.12749841290E+03  0.26596919147E+03 -0.24497025787E+03  0.38341346265E+03  0.00000000000E+00 0. -1.
          4    1    6    6  502    0 -0.12912817379E+03 -0.11308243814E+03 -0.19444930865E+02  0.17274208641E+03  0.00000000000E+00 0. -1.
          3    1    5    5  503    0  0.59295157512E+02 -0.54552360928E+02  0.95178271460E+02  0.12470276318E+03  0.00000000000E+00 0. -1.
         -4    1    5    5    0  503  0.21376435194E+02 -0.14153998005E+03  0.25730055881E+03  0.29443861075E+03  0.00000000000E+00 0.  1.
         -1    1    6    6    0  502 -0.51229136481E+03 -0.67075409371E+03 -0.16201835804E+03  0.85942041227E+03  0.00000000000E+00 0.  1.
<mgrwt>
<rscale>  0 0.28952009E+04</rscale>
<asrwt>0</asrwt>
<pdfrwt beam="1">  1        2 0.30796502E+00 0.28952009E+04</pdfrwt>
<pdfrwt beam="2">  1       -2 0.16105319E+00 0.28952009E+04</pdfrwt>
<totfact> 0.14241472E+00</totfact>
</mgrwt>
</event>
<event>
12    1  0.1472088E-007  0.1458309E+04  0.7818608E-02  0.8912660E-01
         -1   -1    0    0    0  501 -0.00000000000E+00  0.00000000000E+00  0.53468976099E+03  0.53468976099E+03  0.00000000000E+00 0.  1.
          1   -1    0    0  501    0  0.00000000000E+00 -0.00000000000E+00 -0.99434520984E+03  0.99434520984E+03  0.00000000000E+00 0. -1.
         23    2    1    2    0    0 -0.13652386925E+03 -0.22227797286E+03 -0.52352955257E+03  0.59218671354E+03  0.92496741487E+02 0.  0.
        254    2    1    2    0    0  0.13652386925E+03  0.22227797286E+03  0.63874103725E+02  0.93684825728E+03  0.89752910367E+03 0.  0.
        -24    2    4    4    0    0  0.11740597133E+03 -0.22698992198E+03  0.31671693823E+03  0.41477649763E+03  0.80133246808E+02 0.  0.
         24    2    4    4    0    0  0.19117897921E+02  0.44926789484E+03 -0.25284283451E+03  0.52207175964E+03  0.80139178323E+02 0.  0.
         11    1    3    3    0    0 -0.77166764202E+02 -0.19525306446E+03 -0.42497075499E+03  0.47400275450E+03  0.00000000000E+00 0. -1.
        -11    1    3    3    0    0 -0.59357105048E+02 -0.27024908400E+02 -0.98558797587E+02  0.11818395904E+03  0.00000000000E+00 0.  1.
          2    1    6    6  502    0  0.44700464307E+02  0.18390572773E+03 -0.12126444457E+03  0.22477658623E+03  0.00000000000E+00 0. -1.
          3    1    5    5  503    0  0.50976025327E-01 -0.45887081283E+02  0.26076618346E+02  0.52778943259E+02  0.00000000000E+00 0. -1.
         -2    1    5    5    0  503  0.11735499530E+03 -0.18110284069E+03  0.29064031989E+03  0.36199755438E+03  0.00000000000E+00 0.  1.
         -1    1    6    6    0  502 -0.25582566386E+02  0.26536216711E+03 -0.13157838994E+03  0.29729517342E+03  0.00000000000E+00 0.  1.
<mgrwt>
<rscale>  0 0.14583089E+04</rscale>
<asrwt>0</asrwt>
<pdfrwt beam="1">  1        1 0.15297619E+00 0.14583089E+04</pdfrwt>
<pdfrwt beam="2">  1       -1 0.82259963E-01 0.14583089E+04</pdfrwt>
<totfact> 0.21808604E+01</totfact>
</mgrwt>
</event>
<event>
12    1  0.1472088E-007  0.1965849E+04  0.7818608E-02  0.8622756E-01
          2   -1    0    0  501    0  0.00000000000E+00  0.00000000000E+00  0.54240914551E+03  0.54240914551E+03  0.00000000000E+00 0. -1.
         -2   -1    0    0    0  501 -0.00000000000E+00 -0.00000000000E+00 -0.17812028182E+04  0.17812028182E+04  0.00000000000E+00 0.  1.
         23    2    1    2    0    0  0.27781304165E+03 -0.67928740829E+03 -0.80729177417E+03  0.10947283643E+04  0.89992853820E+02 0.  0.
        254    2    1    2    0    0 -0.27781304165E+03  0.67928740829E+03 -0.43150189848E+03  0.12288835994E+04  0.88619949405E+03 0.  0.
        -24    2    4    4    0    0  0.24557436085E+03  0.25787101041E+03 -0.41449680657E+03  0.55220231904E+03  0.79470584404E+02 0.  0.
         24    2    4    4    0    0 -0.52338740250E+03  0.42141639789E+03 -0.17005091910E+02  0.67668128034E+03  0.77988643428E+02 0.  0.
         11    1    3    3    0    0  0.70808694048E+02 -0.26591353673E+03 -0.26370947640E+03  0.38113851565E+03  0.00000000000E+00 0. -1.
        -11    1    3    3    0    0  0.20700434760E+03 -0.41337387156E+03 -0.54358229777E+03  0.71358984863E+03  0.00000000000E+00 0.  1.
          2    1    6    6  502    0 -0.43359489168E+03  0.38021443391E+03 -0.27429234543E+02  0.57733864305E+03  0.00000000000E+00 0. -1.
          1    1    5    5  503    0  0.23939000589E+03  0.23418555388E+03 -0.40598891311E+03  0.52628646775E+03  0.00000000000E+00 0. -1.
         -2    1    5    5    0  503  0.61843549579E+01  0.23685456526E+02 -0.85078934552E+01  0.25915851291E+02  0.00000000000E+00 0.  1.
         -1    1    6    6    0  502 -0.89792510813E+02  0.41201963979E+02  0.10424142633E+02  0.99342637289E+02  0.00000000000E+00 0.  1.
<mgrwt>
<rscale>  0 0.19658491E+04</rscale>
<asrwt>0</asrwt>
<pdfrwt beam="1">  1        2 0.83447562E-01 0.19658491E+04</pdfrwt>
<pdfrwt beam="2">  1       -2 0.27403120E+00 0.19658491E+04</pdfrwt>
<totfact> 0.23887049E+00</totfact>
</mgrwt>
</event>
<event>
12    1  0.1472088E-007  0.2765312E+04  0.7818608E-02  0.8314119E-01
         -2   -1    0    0    0  501 -0.00000000000E+00  0.00000000000E+00  0.10175073351E+04  0.10175073351E+04  0.00000000000E+00 0. -1.
          2   -1    0    0  501    0  0.00000000000E+00 -0.00000000000E+00 -0.18788447280E+04  0.18788447280E+04  0.00000000000E+00 0.  1.
         23    2    1    2    0    0 -0.93882007496E+03  0.61123082898E+03 -0.93110881955E+03  0.14594395527E+04  0.89520471589E+02 0.  0.
        254    2    1    2    0    0  0.93882007496E+03 -0.61123082898E+03  0.69771426701E+02  0.14369125104E+04  0.89714171177E+03 0.  0.
        -24    2    4    4    0    0  0.31093015613E+03 -0.51575589898E+03  0.38920343860E+03  0.72124765849E+03  0.77699156588E+02 0.  0.
         24    2    4    4    0    0  0.62788991883E+03 -0.95474929999E+02 -0.31943201190E+03  0.71566485187E+03  0.82329566691E+02 0.  0.
         11    1    3    3    0    0 -0.61807819685E+03  0.40878884804E+03 -0.56034827873E+03  0.92904207288E+03  0.00000000000E+00 0. -1.
        -11    1    3    3    0    0 -0.32074187812E+03  0.20244198093E+03 -0.37076054082E+03  0.53039747987E+03  0.00000000000E+00 0.  1.
          4    1    6    6  502    0  0.36668289369E+03 -0.85000523571E+02 -0.15659929938E+03  0.40768219742E+03  0.00000000000E+00 0. -1.
          3    1    5    5  503    0 -0.35227128234E+01 -0.49769911002E+00  0.28721716896E+01  0.45723714039E+01  0.00000000000E+00 0. -1.
         -4    1    5    5    0  503  0.31445286895E+03 -0.51525819987E+03  0.38633126691E+03  0.71667528708E+03  0.00000000000E+00 0.  1.
         -3    1    6    6    0  502  0.26120702514E+03 -0.10474406428E+02 -0.16283271252E+03  0.30798265445E+03  0.00000000000E+00 0.  1.
<mgrwt>
<rscale>  0 0.27653125E+04</rscale>
<asrwt>0</asrwt>
<pdfrwt beam="1">  1        2 0.28905303E+00 0.27653125E+04</pdfrwt>
<pdfrwt beam="2">  1       -2 0.15653959E+00 0.27653125E+04</pdfrwt>
<totfact> 0.18199633E+00</totfact>
</mgrwt>
</event>
<event>
12    1  0.1472088E-007  0.1347062E+04  0.7818608E-02  0.8993055E-01
         -1   -1    0    0    0  501 -0.00000000000E+00  0.00000000000E+00  0.12780629382E+03  0.12780629382E+03  0.00000000000E+00 0.  1.
          1   -1    0    0  501    0  0.00000000000E+00 -0.00000000000E+00 -0.35494651599E+04  0.35494651599E+04  0.00000000000E+00 0. -1.
         23    2    1    2    0    0  0.25505698329E+03  0.25350914588E+03 -0.88531623968E+03  0.95975120739E+03  0.89535378882E+02 0.  0.
        254    2    1    2    0    0 -0.25505698329E+03 -0.25350914588E+03 -0.25363426264E+04  0.27175202464E+04  0.90695171810E+03 0.  0.
        -24    2    4    4    0    0 -0.20342753460E+03 -0.46070548648E+03 -0.23956039073E+04  0.24493080212E+04  0.80990092395E+02 0.  0.
         24    2    4    4    0    0 -0.51629448696E+02  0.20719634060E+03 -0.14073871914E+03  0.26821222514E+03  0.80836174589E+02 0.  0.
         11    1    3    3    0    0  0.19492063666E+03  0.15281343609E+03 -0.67400309700E+03  0.71807114941E+03  0.00000000000E+00 0. -1.
        -11    1    3    3    0    0  0.60136346631E+02  0.10069570979E+03 -0.21131314268E+03  0.24168005798E+03  0.00000000000E+00 0.  1.
          2    1    6    6  502    0 -0.20499980225E+02  0.30841817736E+02 -0.62800315430E+02  0.72906423096E+02  0.00000000000E+00 0. -1.
          3    1    5    5  503    0 -0.21837717004E+02 -0.13694017068E+03 -0.62093111648E+03  0.63622711954E+03  0.00000000000E+00 0. -1.
         -4    1    5    5    0  503 -0.18158981759E+03 -0.32376531580E+03 -0.17746727908E+04  0.18130809017E+04  0.00000000000E+00 0.  1.
         -1    1    6    6    0  502 -0.31129468470E+02  0.17635452286E+03 -0.77938403706E+02  0.19530580205E+03  0.00000000000E+00 0.  1.
<mgrwt>
<rscale>  0 0.13470620E+04</rscale>
<asrwt>0</asrwt>
<pdfrwt beam="1">  1        1 0.54607157E+00 0.13470620E+04</pdfrwt>
<pdfrwt beam="2">  1       -1 0.19662507E-01 0.13470620E+04</pdfrwt>
<totfact> 0.47854480E+00</totfact>
</mgrwt>
</event>
<event>
12    1  0.1472088E-007  0.1468086E+04  0.7818608E-02  0.8905957E-01
          1   -1    0    0  501    0  0.00000000000E+00  0.00000000000E+00  0.67680163247E+03  0.67680163247E+03  0.00000000000E+00 0. -1.
         -1   -1    0    0    0  501 -0.00000000000E+00 -0.00000000000E+00 -0.79612579672E+03  0.79612579672E+03  0.00000000000E+00 0.  1.
         23    2    1    2    0    0 -0.22962911074E+03 -0.36302774871E+03  0.99560127163E+02  0.45030085817E+03  0.91323431355E+02 0.  0.
        254    2    1    2    0    0  0.22962911074E+03  0.36302774871E+03 -0.21888429141E+03  0.10226265710E+04  0.90185148216E+03 0.  0.
        -24    2    4    4    0    0  0.45190205788E+03  0.48179882873E+03 -0.32296710695E+03  0.73908965069E+03  0.74834339011E+02 0.  0.
         24    2    4    4    0    0 -0.22227294714E+03 -0.11877108002E+03  0.10408281554E+03  0.28353692033E+03  0.77769661289E+02 0.  0.
         13    1    3    3    0    0 -0.63121202881E+02 -0.17964167544E+03  0.58714511297E+02  0.19925564394E+03  0.00000000000E+00 0. -1.
        -13    1    3    3    0    0 -0.16650790786E+03 -0.18338607328E+03  0.40845615867E+02  0.25104521423E+03  0.00000000000E+00 0.  1.
          2    1    6    6  502    0 -0.68400589612E+02 -0.32379038059E+02  0.71452552528E+02  0.10407934487E+03  0.00000000000E+00 0. -1.
          3    1    5    5  503    0  0.31444423951E+02  0.57041704892E+02 -0.15408495151E+02  0.66932276350E+02  0.00000000000E+00 0. -1.
         -4    1    5    5    0  503  0.42045763393E+03  0.42475712384E+03 -0.30755861180E+03  0.67215737434E+03  0.00000000000E+00 0.  1.
         -1    1    6    6    0  502 -0.15387235753E+03 -0.86392041960E+02  0.32630263013E+02  0.17945757546E+03  0.00000000000E+00 0.  1.
<mgrwt>
<rscale>  0 0.14680862E+04</rscale>
<asrwt>0</asrwt>
<pdfrwt beam="1">  1        1 0.10412333E+00 0.14680862E+04</pdfrwt>
<pdfrwt beam="2">  1       -1 0.12248089E+00 0.14680862E+04</pdfrwt>
<totfact> 0.16372892E+01</totfact>
</mgrwt>
</event>
<event>
12    1  0.1472088E-007  0.2654748E+04  0.7818608E-02  0.8349839E-01
          1   -1    0    0  501    0  0.00000000000E+00  0.00000000000E+00  0.14853395739E+04  0.14853395739E+04  0.00000000000E+00 0. -1.
         -1   -1    0    0    0  501 -0.00000000000E+00 -0.00000000000E+00 -0.11862082509E+04  0.11862082509E+04  0.00000000000E+00 0.  1.
         23    2    1    2    0    0 -0.73734381080E+03  0.26766039536E+03  0.10094200054E+04  0.12834112535E+04  0.11356811016E+03 0.  0.
        254    2    1    2    0    0  0.73734381080E+03 -0.26766039536E+03 -0.71028868233E+03  0.13881365713E+04  0.89838474268E+03 0.  0.
        -24    2    4    4    0    0  0.88519524287E+03 -0.11042056679E+03 -0.73147162890E+03  0.11570206004E+04  0.88784043292E+02 0.  0.
         24    2    4    4    0    0 -0.14785143207E+03 -0.15723982858E+03  0.21182946570E+02  0.23111597092E+03  0.79884073100E+02 0.  0.
         13    1    3    3    0    0 -0.19773407144E+03  0.50670363064E+02  0.19227426618E+03  0.28042047381E+03  0.00000000000E+00 0.  1.
        -13    1    3    3    0    0 -0.53960973936E+03  0.21699003230E+03  0.81714573923E+03  0.10029907797E+04  0.00000000000E+00 0. -1.
          2    1    6    6  502    0 -0.12957300359E+02 -0.65840984104E+02  0.31317162536E+01  0.67176889382E+02  0.00000000000E+00 0. -1.
          3    1    5    5  503    0  0.19275409425E+02 -0.16661199534E+02 -0.20232230298E+02  0.32534291467E+02  0.00000000000E+00 0. -1.
         -4    1    5    5    0  503  0.86591983345E+03 -0.93759367253E+02 -0.71123939860E+03  0.11244863090E+04  0.00000000000E+00 0.  1.
         -1    1    6    6    0  502 -0.13489413171E+03 -0.91398844472E+02  0.18051230316E+02  0.16393908154E+03  0.00000000000E+00 0.  1.
<mgrwt>
<rscale>  0 0.26547482E+04</rscale>
<asrwt>0</asrwt>
<pdfrwt beam="1">  1        1 0.22851378E+00 0.26547482E+04</pdfrwt>
<pdfrwt beam="2">  1       -1 0.18249358E+00 0.26547482E+04</pdfrwt>
<totfact> 0.11724659E+00</totfact>
</mgrwt>
</event>
<event>
12    1  0.1472088E-007  0.2195015E+04  0.7818608E-02  0.8520506E-01
          2   -1    0    0  501    0  0.00000000000E+00  0.00000000000E+00  0.19150990182E+04  0.19150990182E+04  0.00000000000E+00 0. -1.
         -2   -1    0    0    0  501 -0.00000000000E+00 -0.00000000000E+00 -0.62896090557E+03  0.62896090557E+03  0.00000000000E+00 0.  1.
         23    2    1    2    0    0  0.60867085120E+03 -0.48665391980E+02  0.13272147754E+04  0.14638942370E+04  0.92944885889E+02 0.  0.
        254    2    1    2    0    0 -0.60867085120E+03  0.48665391980E+02 -0.41076662674E+02  0.10801656868E+04  0.89006858906E+03 0.  0.
        -24    2    4    4    0    0  0.10128780724E+02  0.18316689945E+03  0.29681852955E+03  0.35816388730E+03  0.80792483706E+02 0.  0.
         24    2    4    4    0    0 -0.61879963193E+03 -0.13450150747E+03 -0.33789519223E+03  0.72200179949E+03  0.78165194033E+02 0.  0.
         11    1    3    3    0    0  0.50982026901E+03 -0.10749955486E+02  0.10537392553E+04  0.11706402890E+04  0.00000000000E+00 0. -1.
        -11    1    3    3    0    0  0.98850582195E+02 -0.37915436494E+02  0.27347552009E+03  0.29325394800E+03  0.00000000000E+00 0.  1.
          2    1    6    6  502    0 -0.31985500811E+03 -0.95755387832E+02 -0.21080660292E+03  0.39486167749E+03  0.00000000000E+00 0. -1.
          3    1    5    5  503    0  0.31195879561E+02  0.17307939356E+03  0.24781348926E+03  0.30387692383E+03  0.00000000000E+00 0. -1.
         -4    1    5    5    0  503 -0.21067098837E+02  0.10087505897E+02  0.49005040293E+02  0.54286963469E+02  0.00000000000E+00 0.  1.
         -3    1    6    6    0  502 -0.29894462382E+03 -0.38746119642E+02 -0.12708858931E+03  0.32714012201E+03  0.00000000000E+00 0.  1.
<mgrwt>
<rscale>  0 0.21950147E+04</rscale>
<asrwt>0</asrwt>
<pdfrwt beam="1">  1        2 0.29463061E+00 0.21950147E+04</pdfrwt>
<pdfrwt beam="2">  1       -2 0.96763218E-01 0.21950147E+04</pdfrwt>
<totfact> 0.60795782E+00</totfact>
</mgrwt>
</event>
<event>
12    1  0.1472088E-007  0.2038760E+04  0.7818608E-02  0.8588710E-01
          1   -1    0    0  501    0  0.00000000000E+00  0.00000000000E+00  0.89380310127E+03  0.89380310127E+03  0.00000000000E+00 0. -1.
         -1   -1    0    0    0  501 -0.00000000000E+00 -0.00000000000E+00 -0.11626004599E+04  0.11626004599E+04  0.00000000000E+00 0.  1.
         23    2    1    2    0    0  0.81354636023E+03 -0.75411947518E+02 -0.16040854477E+03  0.83764266359E+03  0.91486001987E+02 0.  0.
        254    2    1    2    0    0 -0.81354636023E+03  0.75411947518E+02 -0.10838881389E+03  0.12187608976E+04  0.89782255957E+03 0.  0.
        -24    2    4    4    0    0  0.18343534091E+03 -0.35063179496E+02  0.19631744689E+02  0.20421172411E+03  0.80243828502E+02 0.  0.
         24    2    4    4    0    0 -0.99698170114E+03  0.11047512701E+03 -0.12802055858E+03  0.10145491735E+04  0.82118791541E+02 0.  0.
         11    1    3    3    0    0  0.74404725811E+02  0.15405503619E+02 -0.29582426659E+02  0.81538412615E+02  0.00000000000E+00 0. -1.
        -11    1    3    3    0    0  0.73914163442E+03 -0.90817451138E+02 -0.13082611811E+03  0.75610425098E+03  0.00000000000E+00 0.  1.
          4    1    6    6  502    0 -0.14714630234E+03  0.41208430057E+02 -0.35614221928E+02  0.15690296939E+03  0.00000000000E+00 0. -1.
          1    1    5    5  503    0  0.18946014342E+02 -0.31685122876E+02  0.14333668657E+02  0.39602430838E+02  0.00000000000E+00 0. -1.
         -2    1    5    5    0  503  0.16448932657E+03 -0.33780566194E+01  0.52980760319E+01  0.16460929327E+03  0.00000000000E+00 0.  1.
         -3    1    6    6    0  502 -0.84983539881E+03  0.69266696957E+02 -0.92406336649E+02  0.85764620411E+03  0.00000000000E+00 0.  1.
<mgrwt>
<rscale>  0 0.20387603E+04</rscale>
<asrwt>0</asrwt>
<pdfrwt beam="1">  1        1 0.13750817E+00 0.20387603E+04</pdfrwt>
<pdfrwt beam="2">  1       -1 0.17886161E+00 0.20387603E+04</pdfrwt>
<totfact> 0.36099830E+00</totfact>
</mgrwt>
</event>
<event>
12    1  0.1472088E-007  0.2494875E+04  0.7818608E-02  0.8404814E-01
         -1   -1    0    0    0  501 -0.00000000000E+00  0.00000000000E+00  0.14125133240E+04  0.14125133240E+04  0.00000000000E+00 0.  1.
          1   -1    0    0  501    0  0.00000000000E+00 -0.00000000000E+00 -0.11016532812E+04  0.11016532812E+04  0.00000000000E+00 0. -1.
         23    2    1    2    0    0 -0.56479162117E+03  0.24285476992E+03  0.10359233232E+04  0.12079467977E+04  0.89612052930E+02 0.  0.
        254    2    1    2    0    0  0.56479162117E+03 -0.24285476992E+03 -0.72506328042E+03  0.13062198075E+04  0.89583782583E+03 0.  0.
        -24    2    4    4    0    0  0.59348652945E+03  0.20252673235E+03 -0.44863292637E+03  0.77549920223E+03  0.82970911069E+02 0.  0.
         24    2    4    4    0    0 -0.28694908278E+02 -0.44538150226E+03 -0.27643035405E+03  0.53072060524E+03  0.77862313513E+02 0.  0.
         13    1    3    3    0    0 -0.37755595702E+03  0.17093145567E+03  0.61413089992E+03  0.74089326186E+03  0.00000000000E+00 0.  1.
        -13    1    3    3    0    0 -0.18723566415E+03  0.71923314246E+02  0.42179242324E+03  0.46705353586E+03  0.00000000000E+00 0. -1.
          4    1    6    6  502    0 -0.16906153664E+02 -0.43767720472E+03 -0.27335957268E+03  0.51630670104E+03  0.00000000000E+00 0. -1.
          1    1    5    5  503    0  0.43115191879E+03  0.11220444659E+03 -0.33865921320E+03  0.55961761730E+03  0.00000000000E+00 0. -1.
         -2    1    5    5    0  503  0.16233461066E+03  0.90322285759E+02 -0.10997371318E+03  0.21588158493E+03  0.00000000000E+00 0.  1.
         -3    1    6    6    0  502 -0.11788754614E+02 -0.77042975477E+01 -0.30707813612E+01  0.14413904198E+02  0.00000000000E+00 0.  1.
<mgrwt>
<rscale>  0 0.24948747E+04</rscale>
<asrwt>0</asrwt>
<pdfrwt beam="1">  1        1 0.16948512E+00 0.24948747E+04</pdfrwt>
<pdfrwt beam="2">  1       -1 0.21730974E+00 0.24948747E+04</pdfrwt>
<totfact> 0.12891037E+00</totfact>
</mgrwt>
</event>
<event>
12    1  0.1472088E-007  0.2376359E+04  0.7818608E-02  0.8448408E-01
          1   -1    0    0  501    0  0.00000000000E+00  0.00000000000E+00  0.97316235801E+03  0.97316235801E+03  0.00000000000E+00 0. -1.
         -1   -1    0    0    0  501 -0.00000000000E+00 -0.00000000000E+00 -0.14507041865E+04  0.14507041865E+04  0.00000000000E+00 0.  1.
         23    2    1    2    0    0  0.60001290713E+03  0.80108594761E+03 -0.26986993412E+02  0.10055076168E+04  0.92536940667E+02 0.  0.
        254    2    1    2    0    0 -0.60001290713E+03 -0.80108594761E+03 -0.45055483507E+03  0.14183589277E+04  0.89832522189E+03 0.  0.
        -24    2    4    4    0    0 -0.13620769449E+02  0.18010753621E+03 -0.48478045236E+02  0.20405921617E+03  0.81644307041E+02 0.  0.
         24    2    4    4    0    0 -0.58639213768E+03 -0.98119348382E+03 -0.40207678983E+03  0.12142997116E+04  0.79130605715E+02 0.  0.
         13    1    3    3    0    0  0.36546493828E+03  0.55020792495E+03  0.53469959050E+01  0.66054672216E+03  0.00000000000E+00 0.  1.
        -13    1    3    3    0    0  0.23454796885E+03  0.25087802265E+03 -0.32333989317E+02  0.34496089461E+03  0.00000000000E+00 0. -1.
          4    1    6    6  502    0 -0.20542425867E+03 -0.27593632480E+03 -0.10990404012E+03  0.36113554163E+03  0.00000000000E+00 0. -1.
          3    1    5    5  503    0  0.28088183174E+02  0.89570700035E+02 -0.15531176963E+01  0.93884335825E+02  0.00000000000E+00 0. -1.
         -4    1    5    5    0  503 -0.41708952623E+02  0.90536836175E+02 -0.46924927539E+02  0.11017488034E+03  0.00000000000E+00 0.  1.
         -3    1    6    6    0  502 -0.38096787902E+03 -0.70525715901E+03 -0.29217274971E+03  0.85316416993E+03  0.00000000000E+00 0.  1.
<mgrwt>
<rscale>  0 0.23763592E+04</rscale>
<asrwt>0</asrwt>
<pdfrwt beam="1">  1        1 0.14971729E+00 0.23763592E+04</pdfrwt>
<pdfrwt beam="2">  1       -1 0.22318526E+00 0.23763592E+04</pdfrwt>
<totfact> 0.14945482E+00</totfact>
</mgrwt>
</event>
<event>
12    1  0.1472088E-007  0.1577109E+04  0.7818608E-02  0.8834735E-01
          2   -1    0    0  501    0  0.00000000000E+00  0.00000000000E+00  0.29494892593E+03  0.29494892593E+03  0.00000000000E+00 0. -1.
         -2   -1    0    0    0  501 -0.00000000000E+00 -0.00000000000E+00 -0.21082234406E+04  0.21082234406E+04  0.00000000000E+00 0.  1.
         23    2    1    2    0    0  0.24210808962E+03 -0.15531992219E+03  0.52651128514E+02  0.30866087416E+03  0.98786581137E+02 0.  0.
        254    2    1    2    0    0 -0.24210808962E+03  0.15531992219E+03 -0.18659256432E+04  0.20945114924E+04  0.90695053919E+03 0.  0.
        -24    2    4    4    0    0 -0.33644884725E+03 -0.44624648875E+02 -0.18225597570E+04  0.18556457352E+04  0.80671188357E+02 0.  0.
         24    2    4    4    0    0  0.94340757629E+02  0.19994457107E+03 -0.43365886206E+02  0.23886575720E+03  0.79361450511E+02 0.  0.
         13    1    3    3    0    0  0.63618808828E+02 -0.53276584791E+01 -0.15623930741E+02  0.65725520107E+02  0.00000000000E+00 0.  1.
        -13    1    3    3    0    0  0.17848928079E+03 -0.14999226371E+03  0.68275059255E+02  0.24293535405E+03  0.00000000000E+00 0. -1.
          4    1    6    6  502    0  0.88745023985E+02  0.19163189781E+03 -0.59915900828E+02  0.21951851565E+03  0.00000000000E+00 0. -1.
          3    1    5    5  503    0 -0.29092485476E+03 -0.64384064513E+02 -0.16129760066E+04  0.16402664956E+04  0.00000000000E+00 0. -1.
         -4    1    5    5    0  503 -0.45523992486E+02  0.19759415638E+02 -0.20958375042E+03  0.21537923957E+03  0.00000000000E+00 0.  1.
         -3    1    6    6    0  502  0.55957336437E+01  0.83126732596E+01  0.16550014623E+02  0.19347241554E+02  0.00000000000E+00 0.  1.
<mgrwt>
<rscale>  0 0.15771091E+04</rscale>
<asrwt>0</asrwt>
<pdfrwt beam="1">  1        2 0.45376759E-01 0.15771091E+04</pdfrwt>
<pdfrwt beam="2">  1       -2 0.32434206E+00 0.15771091E+04</pdfrwt>
<totfact> 0.24302115E+00</totfact>
</mgrwt>
</event>
<event>
12    1  0.1472088E-007  0.1642126E+04  0.7818608E-02  0.8795078E-01
         -2   -1    0    0    0  501 -0.00000000000E+00  0.00000000000E+00  0.26408989605E+03  0.26408989605E+03  0.00000000000E+00 0.  1.
          2   -1    0    0  501    0  0.00000000000E+00 -0.00000000000E+00 -0.25527086445E+04  0.25527086445E+04  0.00000000000E+00 0. -1.
         23    2    1    2    0    0 -0.11696884163E+03  0.27319505682E+03  0.31780833190E+02  0.31260871577E+03  0.91634812331E+02 0.  0.
        254    2    1    2    0    0  0.11696884163E+03 -0.27319505682E+03 -0.23203995817E+04  0.25041898248E+04  0.89352963635E+03 0.  0.
        -24    2    4    4    0    0  0.16589503725E+02 -0.57795067761E+03 -0.17467815586E+04  0.18418278769E+04  0.82352396792E+02 0.  0.
         24    2    4    4    0    0  0.10037933791E+03  0.30475562078E+03 -0.57361802306E+03  0.66236194790E+03  0.82059208885E+02 0.  0.
         13    1    3    3    0    0 -0.12196696348E+03  0.17927586987E+03  0.18417249335E+02  0.21761197754E+03  0.00000000000E+00 0.  1.
        -13    1    3    3    0    0  0.49981218439E+01  0.93919186955E+02  0.13363583855E+02  0.94996738227E+02  0.00000000000E+00 0. -1.
          4    1    6    6  502    0  0.11371145378E+03  0.27791084099E+03 -0.53463890259E+03  0.61319123153E+03  0.00000000000E+00 0. -1.
          3    1    5    5  503    0 -0.12960230263E+02 -0.35392668444E+03 -0.96022959583E+03  0.10234612559E+04  0.00000000000E+00 0. -1.
         -4    1    5    5    0  503  0.29549733988E+02 -0.22402399317E+03 -0.78655196279E+03  0.81836662106E+03  0.00000000000E+00 0.  1.
         -3    1    6    6    0  502 -0.13332115866E+02  0.26844779790E+02 -0.38979120472E+02  0.49170716369E+02  0.00000000000E+00 0.  1.
<mgrwt>
<rscale>  0 0.16421261E+04</rscale>
<asrwt>0</asrwt>
<pdfrwt beam="1">  1        2 0.39272439E+00 0.16421261E+04</pdfrwt>
<pdfrwt beam="2">  1       -2 0.40629216E-01 0.16421261E+04</pdfrwt>
<totfact> 0.17822844E+01</totfact>
</mgrwt>
</event>
<event>
12    1  0.1472088E-007  0.2751674E+04  0.7818608E-02  0.8318431E-01
          1   -1    0    0  501    0  0.00000000000E+00  0.00000000000E+00  0.23327228662E+04  0.23327228662E+04  0.00000000000E+00 0. -1.
         -1   -1    0    0    0  501 -0.00000000000E+00 -0.00000000000E+00 -0.81146669462E+03  0.81146669462E+03  0.00000000000E+00 0.  1.
         23    2    1    2    0    0  0.37361103096E+03  0.11391464601E+04  0.97345171481E+03  0.15469791731E+04  0.91084910090E+02 0.  0.
        254    2    1    2    0    0 -0.37361103096E+03 -0.11391464601E+04  0.54780445678E+03  0.15972103877E+04  0.90208172570E+03 0.  0.
        -24    2    4    4    0    0 -0.64322052404E+03 -0.56593678662E+03  0.27450810058E+03  0.90314502332E+03  0.79367164855E+02 0.  0.
         24    2    4    4    0    0  0.26960949308E+03 -0.57320967348E+03  0.27329635620E+03  0.69406536443E+03  0.76008047353E+02 0.  0.
         11    1    3    3    0    0  0.19148612925E+03  0.50423392006E+03  0.38899683281E+03  0.66500926292E+03  0.00000000000E+00 0. -1.
        -11    1    3    3    0    0  0.18212490171E+03  0.63491254005E+03  0.58445488200E+03  0.88196991016E+03  0.00000000000E+00 0.  1.
          4    1    6    6  502    0  0.11228032869E+03 -0.32738945835E+03  0.14494690682E+03  0.37523370777E+03  0.00000000000E+00 0. -1.
          1    1    5    5  503    0 -0.43848929907E+03 -0.41463793633E+03  0.22329890242E+03  0.64347485069E+03  0.00000000000E+00 0. -1.
         -2    1    5    5    0  503 -0.20473122497E+03 -0.15129885029E+03  0.51209198161E+02  0.25967017263E+03  0.00000000000E+00 0.  1.
         -3    1    6    6    0  502  0.15732916439E+03 -0.24582021513E+03  0.12834944938E+03  0.31883165667E+03  0.00000000000E+00 0.  1.
<mgrwt>
<rscale>  0 0.27516736E+04</rscale>
<asrwt>0</asrwt>
<pdfrwt beam="1">  1        1 0.35888044E+00 0.27516736E+04</pdfrwt>
<pdfrwt beam="2">  1       -1 0.12484103E+00 0.27516736E+04</pdfrwt>
<totfact> 0.86225718E-01</totfact>
</mgrwt>
</event>
<event>
12    1  0.1472088E-007  0.1255809E+04  0.7818608E-02  0.9065362E-01
         -2   -1    0    0    0  501 -0.00000000000E+00  0.00000000000E+00  0.45356828051E+03  0.45356828051E+03  0.00000000000E+00 0.  1.
          2   -1    0    0  501    0  0.00000000000E+00 -0.00000000000E+00 -0.86924987548E+03  0.86924987548E+03  0.00000000000E+00 0. -1.
         23    2    1    2    0    0  0.75656036570E+02  0.18043224110E+03 -0.32400997124E+03  0.38935355372E+03  0.91291285640E+02 0.  0.
        254    2    1    2    0    0 -0.75656036570E+02 -0.18043224110E+03 -0.91671623726E+02  0.93346460228E+03  0.90811499691E+03 0.  0.
        -24    2    4    4    0    0 -0.42688660009E+03  0.12841271434E+03 -0.16286397962E+02  0.45328454927E+03  0.80496219226E+02 0.  0.
         24    2    4    4    0    0  0.35123056352E+03 -0.30884495544E+03 -0.75385225763E+02  0.48018005300E+03  0.78369865279E+02 0.  0.
         11    1    3    3    0    0 -0.11380894764E+02  0.88020587704E+02 -0.14167234755E+03  0.16717715958E+03  0.00000000000E+00 0. -1.
        -11    1    3    3    0    0  0.87036931334E+02  0.92411653393E+02 -0.18233762369E+03  0.22217639414E+03  0.00000000000E+00 0.  1.
          4    1    6    6  502    0  0.96606523674E+02 -0.81509705450E+02  0.14427875087E+02  0.12721955855E+03  0.00000000000E+00 0. -1.
          3    1    5    5  503    0 -0.24208809578E+03  0.53512301108E+02 -0.44513217484E+02  0.25189608774E+03  0.00000000000E+00 0. -1.
         -4    1    5    5    0  503 -0.18479850431E+03  0.74900413236E+02  0.28226819522E+02  0.20138846153E+03  0.00000000000E+00 0.  1.
         -3    1    6    6    0  502  0.25462403985E+03 -0.22733524999E+03 -0.89813100850E+02  0.35296049445E+03  0.00000000000E+00 0.  1.
<mgrwt>
<rscale>  0 0.12558092E+04</rscale>
<asrwt>0</asrwt>
<pdfrwt beam="1">  1        2 0.13373075E+00 0.12558092E+04</pdfrwt>
<pdfrwt beam="2">  1       -2 0.69779736E-01 0.12558092E+04</pdfrwt>
<totfact> 0.56654582E+01</totfact>
</mgrwt>
</event>
<event>
12    1  0.1472088E-007  0.1485331E+04  0.7818608E-02  0.8894266E-01
         -2   -1    0    0    0  501 -0.00000000000E+00  0.00000000000E+00  0.26379169602E+03  0.26379169602E+03  0.00000000000E+00 0.  1.
          2   -1    0    0  501    0  0.00000000000E+00 -0.00000000000E+00 -0.20908633710E+04  0.20908633710E+04  0.00000000000E+00 0. -1.
         23    2    1    2    0    0  0.39840122509E+03 -0.55973177571E+02 -0.21930001121E+03  0.46736449820E+03  0.92089882695E+02 0.  0.
        254    2    1    2    0    0 -0.39840122509E+03  0.55973177571E+02 -0.16077716637E+04  0.18872905688E+04  0.90281749850E+03 0.  0.
        -24    2    4    4    0    0 -0.66811953671E+03 -0.31722689687E+02 -0.12818548781E+04  0.14482018447E+04  0.82137750668E+02 0.  0.
         24    2    4    4    0    0  0.26971831162E+03  0.87695867258E+02 -0.32591678563E+03  0.43908872410E+03  0.78349369634E+02 0.  0.
         11    1    3    3    0    0  0.12507764092E+03  0.41980636479E+01 -0.27652399838E+02  0.12816666967E+03  0.00000000000E+00 0.  1.
        -11    1    3    3    0    0  0.27332358417E+03 -0.60171241219E+02 -0.19164761137E+03  0.33919782853E+03  0.00000000000E+00 0. -1.
          2    1    6    6  502    0  0.59828928553E+02  0.31315305136E+02 -0.12997371582E+03  0.14646950478E+03  0.00000000000E+00 0. -1.
          3    1    5    5  503    0 -0.33572625629E+03 -0.26136222601E+02 -0.55949187136E+03  0.65301330416E+03  0.00000000000E+00 0. -1.
         -4    1    5    5    0  503 -0.33239328042E+03 -0.55864670863E+01 -0.72236300676E+03  0.79518854055E+03  0.00000000000E+00 0.  1.
         -1    1    6    6    0  502  0.20988938306E+03  0.56380562122E+02 -0.19594306982E+03  0.29261921932E+03  0.00000000000E+00 0.  1.
<mgrwt>
<rscale>  0 0.14853315E+04</rscale>
<asrwt>0</asrwt>
<pdfrwt beam="1">  1        2 0.32167129E+00 0.14853315E+04</pdfrwt>
<pdfrwt beam="2">  1       -2 0.40583337E-01 0.14853315E+04</pdfrwt>
<totfact> 0.33081248E+01</totfact>
</mgrwt>
</event>
<event>
12    1  0.1472088E-007  0.1424490E+04  0.7818608E-02  0.8936280E-01
          2   -1    0    0  501    0  0.00000000000E+00  0.00000000000E+00  0.15206619511E+04  0.15206619511E+04  0.00000000000E+00 0.  1.
         -2   -1    0    0    0  501 -0.00000000000E+00 -0.00000000000E+00 -0.33360023525E+03  0.33360023525E+03  0.00000000000E+00 0. -1.
         23    2    1    2    0    0  0.40998890181E+02 -0.95380770090E+02 -0.17325356099E+03  0.22176161248E+03  0.91558812103E+02 0.  0.
        254    2    1    2    0    0 -0.40998890181E+02  0.95380770090E+02  0.13603152768E+04  0.16325005738E+04  0.89656124776E+03 0.  0.
        -24    2    4    4    0    0 -0.15444047840E+03  0.39431831391E+03  0.11795218000E+04  0.12560952751E+04  0.84645552613E+02 0.  0.
         24    2    4    4    0    0  0.11344158822E+03 -0.29893754382E+03  0.18079347684E+03  0.37640529870E+03  0.82231493881E+02 0.  0.
         11    1    3    3    0    0  0.39153648565E+02 -0.29526239901E+02 -0.16522689890E+02  0.51747524771E+02  0.00000000000E+00 0.  1.
        -11    1    3    3    0    0  0.18452416156E+01 -0.65854530188E+02 -0.15673087110E+03  0.17001408771E+03  0.00000000000E+00 0. -1.
          4    1    6    6  502    0  0.11748845890E+03 -0.30209588356E+03  0.18103358814E+03  0.37126623987E+03  0.00000000000E+00 0. -1.
          3    1    5    5  503    0 -0.53419753372E+02  0.24606425252E+03  0.65414515084E+03  0.70093306726E+03  0.00000000000E+00 0. -1.
         -4    1    5    5    0  503 -0.10102072503E+03  0.14825406139E+03  0.52537664912E+03  0.55516220787E+03  0.00000000000E+00 0.  1.
         -3    1    6    6    0  502 -0.40468706814E+01  0.31583397405E+01 -0.24011130012E+00  0.51390588306E+01  0.00000000000E+00 0.  1.
<mgrwt>
<rscale>  0 0.14244903E+04</rscale>
<asrwt>0</asrwt>
<pdfrwt beam="1">  1        2 0.23394799E+00 0.14244903E+04</pdfrwt>
<pdfrwt beam="2">  1       -2 0.51323114E-01 0.14244903E+04</pdfrwt>
<totfact> 0.43058965E+01</totfact>
</mgrwt>
</event>
<event>
12    1  0.1472088E-007  0.2742084E+04  0.7818608E-02  0.8321478E-01
          2   -1    0    0  501    0  0.00000000000E+00  0.00000000000E+00  0.22991031745E+04  0.22991031745E+04  0.00000000000E+00 0. -1.
         -2   -1    0    0    0  501 -0.00000000000E+00 -0.00000000000E+00 -0.81760398578E+03  0.81760398578E+03  0.00000000000E+00 0.  1.
         23    2    1    2    0    0 -0.10343495142E+04  0.48241532521E+03  0.11752096074E+04  0.16407403932E+04  0.91147973764E+02 0.  0.
        254    2    1    2    0    0  0.10343495142E+04 -0.48241532521E+03  0.30628958130E+03  0.14759667670E+04  0.88434219974E+03 0.  0.
        -24    2    4    4    0    0 -0.14182763950E+03  0.14400317635E+02  0.17385660518E+02  0.16443683365E+03  0.80092213084E+02 0.  0.
         24    2    4    4    0    0  0.11761771537E+04 -0.49681564284E+03  0.28890392078E+03  0.13115299334E+04  0.80167392609E+02 0.  0.
         13    1    3    3    0    0 -0.93815864232E+03  0.40681846787E+03  0.10539153354E+04  0.14684619294E+04  0.00000000000E+00 0. -1.
        -13    1    3    3    0    0 -0.96190871884E+02  0.75596857343E+02  0.12129427205E+03  0.17227846385E+03  0.00000000000E+00 0.  1.
          4    1    6    6  502    0  0.53616171977E+02 -0.27633569458E+02  0.31047386817E+02  0.67839872396E+02  0.00000000000E+00 0. -1.
          3    1    5    5  503    0  0.72895710681E+00  0.20368333784E+01 -0.17109685983E+02  0.17245910330E+02  0.00000000000E+00 0. -1.
         -4    1    5    5    0  503 -0.14255659661E+03  0.12363484257E+02  0.34495346501E+02  0.14719092332E+03  0.00000000000E+00 0.  1.
         -3    1    6    6    0  502  0.11225609817E+04 -0.46918207339E+03  0.25785653397E+03  0.12436900610E+04  0.00000000000E+00 0.  1.
<mgrwt>
<rscale>  0 0.27420838E+04</rscale>
<asrwt>0</asrwt>
<pdfrwt beam="1">  1        2 0.35370818E+00 0.27420838E+04</pdfrwt>
<pdfrwt beam="2">  1       -2 0.12578523E+00 0.27420838E+04</pdfrwt>
<totfact> 0.18727801E+00</totfact>
</mgrwt>
</event>
<event>
12    1  0.1472088E-007  0.2332946E+04  0.7818608E-02  0.8465043E-01
          1   -1    0    0  501    0  0.00000000000E+00  0.00000000000E+00  0.13648071607E+04  0.13648071607E+04  0.00000000000E+00 0. -1.
         -1   -1    0    0    0  501 -0.00000000000E+00 -0.00000000000E+00 -0.99696083023E+03  0.99696083023E+03  0.00000000000E+00 0.  1.
         23    2    1    2    0    0  0.82199986545E+03  0.14926958500E+03  0.70906658694E+03  0.10998601393E+04  0.94613495269E+02 0.  0.
        254    2    1    2    0    0 -0.82199986545E+03 -0.14926958500E+03 -0.34122025650E+03  0.12619078516E+04  0.88205157145E+03 0.  0.
        -24    2    4    4    0    0 -0.76995166249E+03  0.73619552741E+02  0.73729125559E+02  0.78120202649E+03  0.81210966716E+02 0.  0.
         24    2    4    4    0    0 -0.52048202960E+02 -0.22288913774E+03 -0.41494938206E+03  0.48070582512E+03  0.80662987039E+02 0.  0.
         11    1    3    3    0    0  0.42967023202E+03  0.96606475181E+02  0.31623540068E+03  0.54217538489E+03  0.00000000000E+00 0. -1.
        -11    1    3    3    0    0  0.39232963343E+03  0.52663109818E+02  0.39283118625E+03  0.55768475440E+03  0.00000000000E+00 0.  1.
          4    1    6    6  502    0 -0.20652167787E+02 -0.11526895989E+03 -0.29046248993E+03  0.31318030463E+03  0.00000000000E+00 0. -1.
          3    1    5    5  503    0 -0.38737092165E+03  0.57321693143E+02  0.18886369518E+01  0.39159363426E+03  0.00000000000E+00 0. -1.
         -2    1    5    5    0  503 -0.38258074084E+03  0.16297859598E+02  0.71840488607E+02  0.38960839223E+03  0.00000000000E+00 0.  1.
         -3    1    6    6    0  502 -0.31396035173E+02 -0.10762017785E+03 -0.12448689213E+03  0.16752552049E+03  0.00000000000E+00 0.  1.
<mgrwt>
<rscale>  0 0.23329460E+04</rscale>
<asrwt>0</asrwt>
<pdfrwt beam="1">  1        1 0.20997033E+00 0.23329460E+04</pdfrwt>
<pdfrwt beam="2">  1       -1 0.15337859E+00 0.23329460E+04</pdfrwt>
<totfact> 0.24082374E+00</totfact>
</mgrwt>
</event>
<event>
12    1  0.1472088E-007  0.2130669E+04  0.7818608E-02  0.8547853E-01
          1   -1    0    0  501    0  0.00000000000E+00  0.00000000000E+00  0.27693145397E+04  0.27693145397E+04  0.00000000000E+00 0. -1.
         -1   -1    0    0    0  501 -0.00000000000E+00 -0.00000000000E+00 -0.40982604092E+03  0.40982604092E+03  0.00000000000E+00 0.  1.
         23    2    1    2    0    0 -0.41654919612E+03 -0.31153859689E+03  0.20106121877E+04  0.20787552038E+04  0.89957200374E+02 0.  0.
        254    2    1    2    0    0  0.41654919612E+03  0.31153859689E+03  0.34887631107E+03  0.11003853768E+04  0.90474513919E+03 0.  0.
        -24    2    4    4    0    0  0.93520644420E+02 -0.28459275736E+03  0.27447974437E+03  0.41398239426E+03  0.79392343539E+02 0.  0.
         24    2    4    4    0    0  0.32302855170E+03  0.59613135425E+03  0.74396566694E+02  0.68640298253E+03  0.76773488644E+02 0.  0.
         13    1    3    3    0    0 -0.25554112710E+03 -0.21373919568E+03  0.14323084979E+04  0.14705418541E+04  0.00000000000E+00 0. -1.
        -13    1    3    3    0    0 -0.16100806902E+03 -0.97799401209E+02  0.57830368974E+03  0.60821334968E+03  0.00000000000E+00 0.  1.
          2    1    6    6  502    0  0.24585412748E+03  0.38094204772E+03  0.59988761947E+02  0.45733985971E+03  0.00000000000E+00 0. -1.
          1    1    5    5  503    0  0.92796004004E+02 -0.25402944569E+03  0.27158138880E+03  0.38327341204E+03  0.00000000000E+00 0. -1.
         -2    1    5    5    0  503  0.72464041668E+00 -0.30563311665E+02  0.28983555741E+01  0.30708982216E+02  0.00000000000E+00 0.  1.
         -1    1    6    6    0  502  0.77174424217E+02  0.21518930653E+03  0.14407804746E+02  0.22906312282E+03  0.00000000000E+00 0.  1.
<mgrwt>
<rscale>  0 0.21306686E+04</rscale>
<asrwt>0</asrwt>
<pdfrwt beam="1">  1        1 0.42604838E+00 0.21306686E+04</pdfrwt>
<pdfrwt beam="2">  1       -1 0.63050162E-01 0.21306686E+04</pdfrwt>
<totfact> 0.20523176E+00</totfact>
</mgrwt>
</event>
<event>
12    1  0.1472088E-007  0.1688656E+04  0.7818608E-02  0.8767861E-01
          2   -1    0    0  501    0  0.00000000000E+00  0.00000000000E+00  0.12569922813E+04  0.12569922813E+04  0.00000000000E+00 0. -1.
         -2   -1    0    0    0  501 -0.00000000000E+00 -0.00000000000E+00 -0.56713940891E+03  0.56713940891E+03  0.00000000000E+00 0.  1.
         23    2    1    2    0    0  0.31501806564E+03 -0.28879262554E+02 -0.30414847026E+03  0.44883950997E+03  0.94234920609E+02 0.  0.
        254    2    1    2    0    0 -0.31501806564E+03  0.28879262554E+02  0.99400134261E+03  0.13752921802E+04  0.89628093716E+03 0.  0.
        -24    2    4    4    0    0 -0.56073788058E+02  0.39755592924E+03  0.19278226305E+03  0.45266744002E+03  0.80918624064E+02 0.  0.
         24    2    4    4    0    0 -0.25894427758E+03 -0.36867666669E+03  0.80121907956E+03  0.92262474018E+03  0.79434087685E+02 0.  0.
         13    1    3    3    0    0  0.13216493720E+03 -0.42750752480E+02 -0.84039192029E+02  0.16235080308E+03  0.00000000000E+00 0. -1.
        -13    1    3    3    0    0  0.18285312843E+03  0.13871489926E+02 -0.22010927823E+03  0.28648870689E+03  0.00000000000E+00 0.  1.
          4    1    6    6  502    0 -0.22139278062E+03 -0.31783194670E+03  0.62370930732E+03  0.73419698289E+03  0.00000000000E+00 0. -1.
          1    1    5    5  503    0 -0.55494793271E+02  0.39180748861E+03  0.20002783096E+03  0.44340039847E+03  0.00000000000E+00 0. -1.
         -2    1    5    5    0  503 -0.57899478740E+00  0.57484406384E+01 -0.72455679054E+01  0.92670415456E+01  0.00000000000E+00 0.  1.
         -3    1    6    6    0  502 -0.37551496957E+02 -0.50844719994E+02  0.17750977224E+03  0.18842775728E+03  0.00000000000E+00 0.  1.
<mgrwt>
<rscale>  0 0.16886561E+04</rscale>
<asrwt>0</asrwt>
<pdfrwt beam="1">  1        2 0.19338343E+00 0.16886561E+04</pdfrwt>
<pdfrwt beam="2">  1       -2 0.87252217E-01 0.16886561E+04</pdfrwt>
<totfact> 0.18941047E+01</totfact>
</mgrwt>
</event>
<event>
12    1  0.1472088E-007  0.1467055E+04  0.7818608E-02  0.8906662E-01
          1   -1    0    0  501    0  0.00000000000E+00  0.00000000000E+00  0.23041706508E+04  0.23041706508E+04  0.00000000000E+00 0. -1.
         -1   -1    0    0    0  501 -0.00000000000E+00 -0.00000000000E+00 -0.23351673284E+03  0.23351673284E+03  0.00000000000E+00 0.  1.
         23    2    1    2    0    0  0.14650244483E+03  0.35469815403E+03  0.23750179526E+03  0.46064567834E+03  0.92269124902E+02 0.  0.
        254    2    1    2    0    0 -0.14650244483E+03 -0.35469815403E+03  0.18331521227E+04  0.20770417053E+04  0.89798763562E+03 0.  0.
        -24    2    4    4    0    0 -0.41828715164E+03 -0.32551940641E+03  0.16580434309E+04  0.17424941005E+04  0.79061029779E+02 0.  0.
         24    2    4    4    0    0  0.27178470681E+03 -0.29178747615E+02  0.17510869177E+03  0.33454760473E+03  0.80874716292E+02 0.  0.
         13    1    3    3    0    0  0.22125754238E+02  0.12000761774E+03  0.11671564320E+03  0.16886064871E+03  0.00000000000E+00 0. -1.
        -13    1    3    3    0    0  0.12437669059E+03  0.23469053629E+03  0.12078615206E+03  0.29178502963E+03  0.00000000000E+00 0.  1.
          2    1    6    6  502    0  0.25286201378E+03 -0.95586174012E+01  0.13716483771E+03  0.28782765310E+03  0.00000000000E+00 0. -1.
          1    1    5    5  503    0 -0.36497025362E+03 -0.30207230148E+03  0.15332774316E+04  0.16048023690E+04  0.00000000000E+00 0. -1.
         -2    1    5    5    0  503 -0.53316898014E+02 -0.23447104931E+02  0.12476599931E+03  0.13769173151E+03  0.00000000000E+00 0.  1.
         -1    1    6    6    0  502  0.18922693023E+02 -0.19620130214E+02  0.37943854050E+02  0.46719951638E+02  0.00000000000E+00 0.  1.
<mgrwt>
<rscale>  0 0.14670547E+04</rscale>
<asrwt>0</asrwt>
<pdfrwt beam="1">  1        1 0.35448778E+00 0.14670547E+04</pdfrwt>
<pdfrwt beam="2">  1       -1 0.35925653E-01 0.14670547E+04</pdfrwt>
<totfact> 0.13302377E+01</totfact>
</mgrwt>
</event>
<event>
12    1  0.1472088E-007  0.1358040E+04  0.7818608E-02  0.8984764E-01
         -2   -1    0    0    0  501 -0.00000000000E+00  0.00000000000E+00  0.30633800908E+03  0.30633800908E+03  0.00000000000E+00 0.  1.
          2   -1    0    0  501    0  0.00000000000E+00 -0.00000000000E+00 -0.15050966876E+04  0.15050966876E+04  0.00000000000E+00 0. -1.
         23    2    1    2    0    0 -0.17256313859E+03 -0.27768825549E+03 -0.11158392015E+03  0.35662254429E+03  0.88543005508E+02 0.  0.
        254    2    1    2    0    0  0.17256313859E+03  0.27768825549E+03 -0.10871747583E+04  0.14548121523E+04  0.90974756906E+03 0.  0.
        -24    2    4    4    0    0  0.38343618316E+03  0.19960647204E+03 -0.11671056686E+03  0.45530970645E+03  0.82580397983E+02 0.  0.
         24    2    4    4    0    0 -0.21087304457E+03  0.78081783458E+02 -0.97046419148E+03  0.99950244590E+03  0.81487340007E+02 0.  0.
         13    1    3    3    0    0 -0.17388575473E+03 -0.22423199883E+03 -0.81305522031E+02  0.29517254769E+03  0.00000000000E+00 0.  1.
        -13    1    3    3    0    0  0.13226161425E+01 -0.53456256666E+02 -0.30278398116E+02  0.61449996604E+02  0.00000000000E+00 0. -1.
          4    1    6    6  502    0 -0.20814876329E+03  0.56742686929E+02 -0.83927196255E+03  0.86655817306E+03  0.00000000000E+00 0. -1.
          1    1    5    5  503    0  0.23005086027E+03  0.14830191026E+03 -0.41126542134E+02  0.27678194913E+03  0.00000000000E+00 0. -1.
         -2    1    5    5    0  503  0.15338532290E+03  0.51304561777E+02 -0.75584024727E+02  0.17852775732E+03  0.00000000000E+00 0.  1.
         -3    1    6    6    0  502 -0.27242812891E+01  0.21339096530E+02 -0.13119222893E+03  0.13294427284E+03  0.00000000000E+00 0.  1.
<mgrwt>
<rscale>  0 0.13580402E+04</rscale>
<asrwt>0</asrwt>
<pdfrwt beam="1">  1        2 0.23155334E+00 0.13580402E+04</pdfrwt>
<pdfrwt beam="2">  1       -2 0.47128924E-01 0.13580402E+04</pdfrwt>
<totfact> 0.52516828E+01</totfact>
</mgrwt>
</event>
<event>
12    1  0.1472088E-007  0.1764776E+04  0.7818608E-02  0.8725259E-01
          1   -1    0    0  501    0  0.00000000000E+00  0.00000000000E+00  0.50110725018E+03  0.50110725018E+03  0.00000000000E+00 0. -1.
         -1   -1    0    0    0  501 -0.00000000000E+00 -0.00000000000E+00 -0.15537761245E+04  0.15537761245E+04  0.00000000000E+00 0.  1.
         23    2    1    2    0    0  0.33694426120E+03  0.14892435520E+03 -0.10131226438E+04  0.10819019222E+04  0.91566255397E+02 0.  0.
        254    2    1    2    0    0 -0.33694426120E+03 -0.14892435520E+03 -0.39546230523E+02  0.97298145250E+03  0.89967722203E+03 0.  0.
        -24    2    4    4    0    0 -0.10958321364E+03 -0.51237627539E+03  0.24879704408E+02  0.53214880595E+03  0.89584729091E+02 0.  0.
         24    2    4    4    0    0 -0.22736104755E+03  0.36345192019E+03 -0.64425934930E+02  0.44083264655E+03  0.79952341698E+02 0.  0.
         13    1    3    3    0    0  0.85079818375E+02  0.40418061483E+02 -0.38799065734E+03  0.39926049814E+03  0.00000000000E+00 0. -1.
        -13    1    3    3    0    0  0.25186444282E+03  0.10850629372E+03 -0.62513198643E+03  0.68264142402E+03  0.00000000000E+00 0.  1.
          2    1    6    6  502    0 -0.22414806553E+03  0.32441756897E+03 -0.72268472856E+02  0.40088882063E+03  0.00000000000E+00 0. -1.
          1    1    5    5  503    0 -0.35044498464E+02 -0.35359063618E+03  0.26308413537E+01  0.35533276825E+03  0.00000000000E+00 0. -1.
         -2    1    5    5    0  503 -0.74538715178E+02 -0.15878563921E+03  0.22248863054E+02  0.17681603769E+03  0.00000000000E+00 0.  1.
         -1    1    6    6    0  502 -0.32129820276E+01  0.39034351216E+02  0.78425379253E+01  0.39943825924E+02  0.00000000000E+00 0.  1.
<mgrwt>
<rscale>  0 0.17647759E+04</rscale>
<asrwt>0</asrwt>
<pdfrwt beam="1">  1        1 0.77093423E-01 0.17647759E+04</pdfrwt>
<pdfrwt beam="2">  1       -1 0.23904248E+00 0.17647759E+04</pdfrwt>
<totfact> 0.34400730E+00</totfact>
</mgrwt>
</event>
<event>
12    1  0.1472088E-007  0.1190896E+04  0.7818608E-02  0.9120863E-01
          2   -1    0    0  501    0  0.00000000000E+00  0.00000000000E+00  0.31045052598E+04  0.31045052598E+04  0.00000000000E+00 0. -1.
         -2   -1    0    0    0  501 -0.00000000000E+00 -0.00000000000E+00 -0.11420763990E+03  0.11420763990E+03  0.00000000000E+00 0.  1.
         23    2    1    2    0    0  0.94874486140E+02 -0.26183770952E+03  0.58107682092E+03  0.65076963970E+03  0.91053269601E+02 0.  0.
        254    2    1    2    0    0 -0.94874486140E+02  0.26183770952E+03  0.24092207990E+04  0.25679432600E+04  0.84405424828E+03 0.  0.
        -24    2    4    4    0    0 -0.25479352401E+03  0.95131552229E+02  0.20187111835E+03  0.34705571428E+03  0.75670128059E+02 0.  0.
         24    2    4    4    0    0  0.15991903787E+03  0.16670615729E+03  0.22073496807E+04  0.22208875457E+04  0.81140843985E+02 0.  0.
         11    1    3    3    0    0  0.12186497084E+01 -0.37799978982E+02  0.29026962691E+02  0.47674816006E+02  0.00000000000E+00 0.  1.
        -11    1    3    3    0    0  0.93655836431E+02 -0.22403773054E+03  0.55204985823E+03  0.60309482370E+03  0.00000000000E+00 0. -1.
          2    1    6    6  502    0  0.40564519776E+02  0.32593385622E+02  0.25220225728E+03  0.25751463575E+03  0.00000000000E+00 0. -1.
          1    1    5    5  503    0 -0.97289343162E+02 -0.76194328751E+00  0.58990639098E+02  0.11377913847E+03  0.00000000000E+00 0. -1.
         -2    1    5    5    0  503 -0.15750418085E+03  0.95893495517E+02  0.14288047925E+03  0.23327657581E+03  0.00000000000E+00 0.  1.
         -1    1    6    6    0  502  0.11935451810E+03  0.13411277167E+03  0.19551474234E+04  0.19633729100E+04  0.00000000000E+00 0.  1.
<mgrwt>
<rscale>  0 0.11908958E+04</rscale>
<asrwt>0</asrwt>
<pdfrwt beam="1">  1        2 0.47761613E+00 0.11908958E+04</pdfrwt>
<pdfrwt beam="2">  1       -2 0.17570409E-01 0.11908958E+04</pdfrwt>
<totfact> 0.40218016E+01</totfact>
</mgrwt>
</event>
<event>
12    1  0.1472088E-007  0.1435435E+04  0.7818608E-02  0.8928561E-01
          2   -1    0    0  501    0  0.00000000000E+00  0.00000000000E+00  0.25406187212E+04  0.25406187212E+04  0.00000000000E+00 0.  1.
         -2   -1    0    0    0  501 -0.00000000000E+00 -0.00000000000E+00 -0.20275321736E+03  0.20275321736E+03  0.00000000000E+00 0. -1.
         23    2    1    2    0    0 -0.26508879951E+03 -0.16848569238E+03  0.11308679266E+04  0.11773441998E+04  0.92831014370E+02 0.  0.
        254    2    1    2    0    0  0.26508879951E+03  0.16848569238E+03  0.12069975773E+04  0.15660277388E+04  0.94706928309E+03 0.  0.
        -24    2    4    4    0    0 -0.20706245453E+03  0.78667932483E+02  0.10157350520E+04  0.10425639363E+04  0.78475230648E+02 0.  0.
         24    2    4    4    0    0  0.47215125405E+03  0.89817759895E+02  0.19126252529E+03  0.52346380247E+03  0.80243144390E+02 0.  0.
         11    1    3    3    0    0 -0.11887319446E+03 -0.91175368238E+02  0.37976905295E+03  0.40825031257E+03  0.00000000000E+00 0. -1.
        -11    1    3    3    0    0 -0.14621560506E+03 -0.77310324140E+02  0.75109887363E+03  0.76909388721E+03  0.00000000000E+00 0.  1.
          4    1    6    6  502    0 -0.23020626848E+01 -0.11722168050E+01 -0.18704491131E+01  0.31893831265E+01  0.00000000000E+00 0. -1.
          1    1    5    5  503    0  0.16852551503E+00 -0.40077133594E+01  0.18451961725E+01  0.44153047613E+01  0.00000000000E+00 0. -1.
         -2    1    5    5    0  503 -0.20723098005E+03  0.82675645842E+02  0.10138898558E+04  0.10381486316E+04  0.00000000000E+00 0.  1.
         -3    1    6    6    0  502  0.47445331673E+03  0.90989976700E+02  0.19313297441E+03  0.52027441934E+03  0.00000000000E+00 0.  1.
<mgrwt>
<rscale>  0 0.14354353E+04</rscale>
<asrwt>0</asrwt>
<pdfrwt beam="1">  1        2 0.39086440E+00 0.14354353E+04</pdfrwt>
<pdfrwt beam="2">  1       -2 0.31192804E-01 0.14354353E+04</pdfrwt>
<totfact> 0.30620027E+01</totfact>
</mgrwt>
</event>
<event>
12    1  0.1472088E-007  0.1797200E+04  0.7818608E-02  0.8707790E-01
          1   -1    0    0  501    0  0.00000000000E+00  0.00000000000E+00  0.11592909475E+04  0.11592909475E+04  0.00000000000E+00 0. -1.
         -1   -1    0    0    0  501 -0.00000000000E+00 -0.00000000000E+00 -0.69653056558E+03  0.69653056558E+03  0.00000000000E+00 0.  1.
         23    2    1    2    0    0  0.38059185424E+02 -0.11003132452E+03 -0.50799329707E+03  0.52878756866E+03  0.89463450242E+02 0.  0.
        254    2    1    2    0    0 -0.38059185424E+02  0.11003132452E+03  0.97075367903E+03  0.13270339445E+04  0.89727420024E+03 0.  0.
        -24    2    4    4    0    0 -0.22815689428E+03 -0.26357241830E+03  0.12231768275E+03  0.37729663607E+03  0.76584254121E+02 0.  0.
         24    2    4    4    0    0  0.19009770886E+03  0.37360374283E+03  0.84843599628E+03  0.94973730838E+03  0.80252224740E+02 0.  0.
         11    1    3    3    0    0  0.34467892977E+02 -0.45931710473E+02 -0.96329940095E+02  0.11214818336E+03  0.00000000000E+00 0. -1.
        -11    1    3    3    0    0  0.35912924468E+01 -0.64099614051E+02 -0.41166335698E+03  0.41663938530E+03  0.00000000000E+00 0.  1.
          4    1    6    6  502    0  0.12811373147E+03  0.31170878643E+03  0.63183060052E+03  0.71609035986E+03  0.00000000000E+00 0. -1.
          3    1    5    5  503    0 -0.93203973758E+02 -0.14038074780E+03  0.25238641031E+02  0.17038404878E+03  0.00000000000E+00 0. -1.
         -4    1    5    5    0  503 -0.13495292053E+03 -0.12319167051E+03  0.97079041718E+02  0.20691258730E+03  0.00000000000E+00 0.  1.
         -3    1    6    6    0  502  0.61983977392E+02  0.61894956395E+02  0.21660539576E+03  0.23364694852E+03  0.00000000000E+00 0.  1.
<mgrwt>
<rscale>  0 0.17971996E+04</rscale>
<asrwt>0</asrwt>
<pdfrwt beam="1">  1        1 0.17835245E+00 0.17971996E+04</pdfrwt>
<pdfrwt beam="2">  1       -1 0.10715855E+00 0.17971996E+04</pdfrwt>
<totfact> 0.87731810E+00</totfact>
</mgrwt>
</event>
<event>
12    1  0.1472088E-007  0.1487394E+04  0.7818608E-02  0.8892879E-01
         -2   -1    0    0    0  501 -0.00000000000E+00  0.00000000000E+00  0.78305547703E+03  0.78305547703E+03  0.00000000000E+00 0.  1.
          2   -1    0    0  501    0  0.00000000000E+00 -0.00000000000E+00 -0.70631693731E+03  0.70631693731E+03  0.00000000000E+00 0. -1.
         23    2    1    2    0    0 -0.13316787404E+03  0.20760198993E+03  0.46570278481E+03  0.53587648967E+03  0.97222731375E+02 0.  0.
        254    2    1    2    0    0  0.13316787404E+03 -0.20760198993E+03 -0.38896424509E+03  0.95349592466E+03  0.83488264175E+03 0.  0.
        -24    2    4    4    0    0  0.28882412923E+02  0.79914729254E+02 -0.57545784147E+03  0.58662832709E+03  0.75898017864E+02 0.  0.
         24    2    4    4    0    0  0.10428546111E+03 -0.28751671918E+03  0.18649359637E+03  0.36686759757E+03  0.79187445018E+02 0.  0.
         11    1    3    3    0    0 -0.32818261532E+02  0.12167175342E+03  0.16658483854E+03  0.20888169451E+03  0.00000000000E+00 0. -1.
        -11    1    3    3    0    0 -0.10034961250E+03  0.85930236511E+02  0.29911794627E+03  0.32699479515E+03  0.00000000000E+00 0.  1.
          2    1    6    6  502    0  0.91076927594E+02 -0.13848899214E+03  0.87051777643E+02  0.18722238027E+03  0.00000000000E+00 0. -1.
          3    1    5    5  503    0 -0.23311652826E+02  0.82401405239E+01 -0.15073222033E+03  0.15274663767E+03  0.00000000000E+00 0. -1.
         -2    1    5    5    0  503  0.52194065749E+02  0.71674588730E+02 -0.42472562114E+03  0.43388168943E+03  0.00000000000E+00 0.  1.
         -1    1    6    6    0  502  0.13208533519E+02 -0.14902772704E+03  0.99441818730E+02  0.17964521730E+03  0.00000000000E+00 0.  1.
<mgrwt>
<rscale>  0 0.14873942E+04</rscale>
<asrwt>0</asrwt>
<pdfrwt beam="1">  1        2 0.10866414E+00 0.14873942E+04</pdfrwt>
<pdfrwt beam="2">  1       -2 0.12047007E+00 0.14873942E+04</pdfrwt>
<totfact> 0.20597992E+01</totfact>
</mgrwt>
</event>
<event>
12    1  0.1472088E-007  0.1640763E+04  0.7818608E-02  0.8795890E-01
         -2   -1    0    0    0  501 -0.00000000000E+00  0.00000000000E+00  0.85530633974E+03  0.85530633974E+03  0.00000000000E+00 0. -1.
          2   -1    0    0  501    0  0.00000000000E+00 -0.00000000000E+00 -0.78688249947E+03  0.78688249947E+03  0.00000000000E+00 0.  1.
         23    2    1    2    0    0 -0.28401775334E+03 -0.27098214111E+03  0.43990458448E+03  0.59618544144E+03  0.88451298064E+02 0.  0.
        254    2    1    2    0    0  0.28401775334E+03  0.27098214111E+03 -0.37148074421E+03  0.10460033978E+04  0.89556002580E+03 0.  0.
        -24    2    4    4    0    0  0.34489113625E+03 -0.77408299038E+02  0.16526199592E+03  0.39832270678E+03  0.80046928854E+02 0.  0.
         24    2    4    4    0    0 -0.60873382908E+02  0.34839044015E+03 -0.53674274014E+03  0.64768069099E+03  0.79473523032E+02 0.  0.
         11    1    3    3    0    0 -0.76411622214E+02 -0.57022360011E+02  0.16549515984E+03  0.19099459019E+03  0.00000000000E+00 0.  1.
        -11    1    3    3    0    0 -0.20760613113E+03 -0.21395978110E+03  0.27440942463E+03  0.40519085125E+03  0.00000000000E+00 0. -1.
          4    1    6    6  502    0 -0.96487827015E+01  0.22795496466E+03 -0.29675702916E+03  0.37432779656E+03  0.00000000000E+00 0. -1.
          3    1    5    5  503    0  0.30953484780E+03 -0.92715600840E+02  0.13933650654E+03  0.35188445078E+03  0.00000000000E+00 0. -1.
         -4    1    5    5    0  503  0.35356288446E+02  0.15307301802E+02  0.25925489380E+02  0.46438256004E+02  0.00000000000E+00 0.  1.
         -3    1    6    6    0  502 -0.51224600206E+02  0.12043547548E+03 -0.23998571098E+03  0.27335289443E+03  0.00000000000E+00 0.  1.
<mgrwt>
<rscale>  0 0.16407627E+04</rscale>
<asrwt>0</asrwt>
<pdfrwt beam="1">  1        2 0.12105885E+00 0.16407627E+04</pdfrwt>
<pdfrwt beam="2">  1       -2 0.13158559E+00 0.16407627E+04</pdfrwt>
<totfact> 0.14172374E+01</totfact>
</mgrwt>
</event>
<event>
12    1  0.1472088E-007  0.2437114E+04  0.7818608E-02  0.8425738E-01
          1   -1    0    0  501    0  0.00000000000E+00  0.00000000000E+00  0.18388257704E+04  0.18388257704E+04  0.00000000000E+00 0. -1.
         -1   -1    0    0    0  501 -0.00000000000E+00 -0.00000000000E+00 -0.80751582938E+03  0.80751582938E+03  0.00000000000E+00 0.  1.
         23    2    1    2    0    0 -0.68309901162E+02 -0.16790455180E+03  0.15676241227E+04  0.15807469829E+04  0.91964410413E+02 0.  0.
        254    2    1    2    0    0  0.68309901162E+02  0.16790455180E+03 -0.53631418165E+03  0.10655946169E+04  0.90277395013E+03 0.  0.
        -24    2    4    4    0    0 -0.18088670456E+01  0.53226664542E+03 -0.28346273054E+03  0.60887936687E+03  0.84094648913E+02 0.  0.
         24    2    4    4    0    0  0.70118768208E+02 -0.36436209362E+03 -0.25285145111E+03  0.45671525003E+03  0.83537933679E+02 0.  0.
         11    1    3    3    0    0 -0.17385154743E+02 -0.41100243733E+02  0.14853413020E+03  0.15509307358E+03  0.00000000000E+00 0.  1.
        -11    1    3    3    0    0 -0.50924746419E+02 -0.12680430807E+03  0.14190899925E+04  0.14256539093E+04  0.00000000000E+00 0. -1.
          2    1    6    6  502    0 -0.66794437847E+01 -0.13114551094E+03 -0.59391998546E+02  0.14412206459E+03  0.00000000000E+00 0. -1.
          1    1    5    5  503    0 -0.42113380059E+01  0.59228435399E+02 -0.41373476067E+01  0.59521933544E+02  0.00000000000E+00 0. -1.
         -2    1    5    5    0  503  0.24024709603E+01  0.47303821002E+03 -0.27932538293E+03  0.54935743333E+03  0.00000000000E+00 0.  1.
         -1    1    6    6    0  502  0.76798211992E+02 -0.23321658267E+03 -0.19345945257E+03  0.31259318544E+03  0.00000000000E+00 0.  1.
<mgrwt>
<rscale>  0 0.24371138E+04</rscale>
<asrwt>0</asrwt>
<pdfrwt beam="1">  1        1 0.28289627E+00 0.24371138E+04</pdfrwt>
<pdfrwt beam="2">  1       -1 0.12423320E+00 0.24371138E+04</pdfrwt>
<totfact> 0.19458626E+00</totfact>
</mgrwt>
</event>
<event>
12    1  0.1472088E-007  0.1565765E+04  0.7818608E-02  0.8841860E-01
          2   -1    0    0  501    0  0.00000000000E+00  0.00000000000E+00  0.11801420322E+04  0.11801420322E+04  0.00000000000E+00 0. -1.
         -2   -1    0    0    0  501 -0.00000000000E+00 -0.00000000000E+00 -0.51934857405E+03  0.51934857405E+03  0.00000000000E+00 0.  1.
         23    2    1    2    0    0 -0.46423913476E+03 -0.22390749849E+03  0.40795400188E+03  0.66360441049E+03  0.91059342433E+02 0.  0.
        254    2    1    2    0    0  0.46423913476E+03  0.22390749849E+03  0.25283945630E+03  0.10358861958E+04  0.86225279231E+03 0.  0.
        -24    2    4    4    0    0  0.18097212009E+03 -0.20895093478E+01  0.53394917531E+03  0.57051165249E+03  0.87330118040E+02 0.  0.
         24    2    4    4    0    0  0.28326701467E+03  0.22599700784E+03 -0.28110971901E+03  0.46537454330E+03  0.78967982616E+02 0.  0.
         11    1    3    3    0    0 -0.21569296128E+03 -0.15322976607E+03  0.19315017104E+03  0.32758175060E+03  0.00000000000E+00 0.  1.
        -11    1    3    3    0    0 -0.24854617348E+03 -0.70677732422E+02  0.21480383085E+03  0.33602265989E+03  0.00000000000E+00 0. -1.
          4    1    6    6  502    0  0.23543252509E+03  0.18704419713E+03 -0.19117803605E+03  0.35631874357E+03  0.00000000000E+00 0. -1.
          1    1    5    5  503    0  0.16147535532E+03 -0.29453911853E+02  0.39900372001E+03  0.43144616336E+03  0.00000000000E+00 0. -1.
         -2    1    5    5    0  503  0.19496764773E+02  0.27364402505E+02  0.13494545530E+03  0.13906548913E+03  0.00000000000E+00 0.  1.
         -3    1    6    6    0  502  0.47834489584E+02  0.38952810705E+02 -0.89931682956E+02  0.10905579973E+03  0.00000000000E+00 0.  1.
<mgrwt>
<rscale>  0 0.15657651E+04</rscale>
<asrwt>0</asrwt>
<pdfrwt beam="1">  1        2 0.18156031E+00 0.15657651E+04</pdfrwt>
<pdfrwt beam="2">  1       -2 0.79899781E-01 0.15657651E+04</pdfrwt>
<totfact> 0.25949310E+01</totfact>
</mgrwt>
</event>
<event>
12    1  0.1472088E-007  0.2161855E+04  0.7818608E-02  0.8534475E-01
         -1   -1    0    0    0  501 -0.00000000000E+00  0.00000000000E+00  0.12300898542E+04  0.12300898542E+04  0.00000000000E+00 0.  1.
          1   -1    0    0  501    0  0.00000000000E+00 -0.00000000000E+00 -0.94985303119E+03  0.94985303119E+03  0.00000000000E+00 0. -1.
         23    2    1    2    0    0 -0.62047078063E+03 -0.21371169788E+03  0.71608995373E+03  0.97582880593E+03  0.93810219096E+02 0.  0.
        254    2    1    2    0    0  0.62047078063E+03  0.21371169788E+03 -0.43585313069E+03  0.12041140795E+04  0.91064048091E+03 0.  0.
        -24    2    4    4    0    0  0.13142325075E+03  0.51399146112E+03 -0.27143722445E+03  0.60174681819E+03  0.83437242565E+02 0.  0.
         24    2    4    4    0    0  0.48904752988E+03 -0.30027976324E+03 -0.16441590624E+03  0.60236726130E+03  0.80487915690E+02 0.  0.
         11    1    3    3    0    0 -0.61600411937E+03 -0.22085398700E+03  0.70505577312E+03  0.96194656913E+03  0.00000000000E+00 0.  1.
        -11    1    3    3    0    0 -0.44666612604E+01  0.71422891135E+01  0.11034180612E+02  0.13882236793E+02  0.00000000000E+00 0. -1.
          2    1    6    6  502    0  0.88740795190E+01  0.28992461418E+01  0.38308811092E+01  0.10091113198E+02  0.00000000000E+00 0. -1.
          3    1    5    5  503    0  0.85397789869E+02  0.20350186611E+03 -0.83878498894E+02  0.23609615542E+03  0.00000000000E+00 0. -1.
         -4    1    5    5    0  503  0.46025460882E+02  0.31048959501E+03 -0.18755872555E+03  0.36565066277E+03  0.00000000000E+00 0.  1.
         -1    1    6    6    0  502  0.48017345036E+03 -0.30317900938E+03 -0.16824678735E+03  0.59227614810E+03  0.00000000000E+00 0.  1.
<mgrwt>
<rscale>  0 0.21618553E+04</rscale>
<asrwt>0</asrwt>
<pdfrwt beam="1">  1        1 0.14613123E+00 0.21618553E+04</pdfrwt>
<pdfrwt beam="2">  1       -1 0.18924459E+00 0.21618553E+04</pdfrwt>
<totfact> 0.27127186E+00</totfact>
</mgrwt>
</event>
<event>
12    1  0.1472088E-007  0.3165918E+04  0.7818608E-02  0.8197876E-01
          2   -1    0    0  501    0  0.00000000000E+00  0.00000000000E+00  0.31020049541E+04  0.31020049541E+04  0.00000000000E+00 0. -1.
         -2   -1    0    0    0  501 -0.00000000000E+00 -0.00000000000E+00 -0.80778714924E+03  0.80778714924E+03  0.00000000000E+00 0.  1.
         23    2    1    2    0    0  0.29501274596E+03  0.13836552661E+04  0.14732353961E+04  0.20445674741E+04  0.91099991664E+02 0.  0.
        254    2    1    2    0    0 -0.29501274596E+03 -0.13836552661E+04  0.82098240879E+03  0.18652246292E+04  0.89639075531E+03 0.  0.
        -24    2    4    4    0    0 -0.37394597344E+03 -0.11008158159E+04  0.97907442366E+03  0.15220415177E+04  0.79953754188E+02 0.  0.
         24    2    4    4    0    0  0.78933227484E+02 -0.28283945017E+03 -0.15809201487E+03  0.34318311154E+03  0.80950317522E+02 0.  0.
         13    1    3    3    0    0  0.60449866802E+02  0.21465158126E+03  0.27703681917E+03  0.35563870277E+03  0.00000000000E+00 0.  1.
        -13    1    3    3    0    0  0.23456287915E+03  0.11690036848E+04  0.11961985769E+04  0.16889287714E+04  0.00000000000E+00 0. -1.
          4    1    6    6  502    0  0.17776311846E+01 -0.72950716578E+01 -0.27758038059E+02  0.28755638056E+02  0.00000000000E+00 0. -1.
          1    1    5    5  503    0 -0.53277119133E+02 -0.23792640799E+03  0.18012646530E+03  0.30313853359E+03  0.00000000000E+00 0. -1.
         -2    1    5    5    0  503 -0.32066885431E+03 -0.86288940791E+03  0.79894795836E+03  0.12189029841E+04  0.00000000000E+00 0.  1.
         -3    1    6    6    0  502  0.77155596299E+02 -0.27554437851E+03 -0.13033397681E+03  0.31442747348E+03  0.00000000000E+00 0.  1.
<mgrwt>
<rscale>  0 0.31659183E+04</rscale>
<asrwt>0</asrwt>
<pdfrwt beam="1">  1        2 0.47723153E+00 0.31659183E+04</pdfrwt>
<pdfrwt beam="2">  1       -2 0.12427495E+00 0.31659183E+04</pdfrwt>
<totfact> 0.61593609E-01</totfact>
</mgrwt>
</event>
<event>
12    1  0.1472088E-007  0.1821361E+04  0.7818608E-02  0.8695022E-01
         -1   -1    0    0    0  501 -0.00000000000E+00  0.00000000000E+00  0.12337238548E+04  0.12337238548E+04  0.00000000000E+00 0.  1.
          1   -1    0    0  501    0  0.00000000000E+00 -0.00000000000E+00 -0.67222391160E+03  0.67222391160E+03  0.00000000000E+00 0. -1.
         23    2    1    2    0    0  0.41962956814E+03 -0.19680993572E+03 -0.30145824365E+03  0.56032340940E+03  0.90896233162E+02 0.  0.
        254    2    1    2    0    0 -0.41962956814E+03  0.19680993572E+03  0.86295818690E+03  0.13456243570E+04  0.92259685274E+03 0.  0.
        -24    2    4    4    0    0  0.18156978137E+03  0.33276700563E+03  0.19537287054E+03  0.43398190207E+03  0.80425538477E+02 0.  0.
         24    2    4    4    0    0 -0.60119934951E+03 -0.13595706991E+03  0.66758531636E+03  0.91164245498E+03  0.74140598771E+02 0.  0.
         11    1    3    3    0    0  0.36886330688E+03 -0.17915027658E+03 -0.29712813694E+03  0.50639914151E+03  0.00000000000E+00 0. -1.
        -11    1    3    3    0    0  0.50766261259E+02 -0.17659659135E+02 -0.43301067064E+01  0.53924267886E+02  0.00000000000E+00 0.  1.
          4    1    6    6  502    0 -0.18156675836E+03 -0.42602595266E+02  0.15383539383E+03  0.24175772430E+03  0.00000000000E+00 0. -1.
          1    1    5    5  503    0 -0.81426762283E+01  0.20246210637E+02  0.13320156754E+02  0.25566360658E+02  0.00000000000E+00 0. -1.
         -2    1    5    5    0  503  0.18971245760E+03  0.31252079499E+03  0.18205271379E+03  0.40841554141E+03  0.00000000000E+00 0.  1.
         -3    1    6    6    0  502 -0.41963259116E+03 -0.93354474642E+02  0.51374992253E+03  0.66988473068E+03  0.00000000000E+00 0.  1.
<mgrwt>
<rscale>  0 0.18213607E+04</rscale>
<asrwt>0</asrwt>
<pdfrwt beam="1">  1        1 0.10341906E+00 0.18213607E+04</pdfrwt>
<pdfrwt beam="2">  1       -1 0.18980367E+00 0.18213607E+04</pdfrwt>
<totfact> 0.48353204E+00</totfact>
</mgrwt>
</event>
<event>
12    1  0.1472088E-007  0.1400447E+04  0.7818608E-02  0.8953495E-01
         -1   -1    0    0    0  501 -0.00000000000E+00  0.00000000000E+00  0.11171231960E+04  0.11171231960E+04  0.00000000000E+00 0. -1.
          1   -1    0    0  501    0  0.00000000000E+00 -0.00000000000E+00 -0.43890686368E+03  0.43890686368E+03  0.00000000000E+00 0.  1.
         23    2    1    2    0    0  0.33234412388E+03 -0.18450497313E+02  0.47830375188E+03  0.58984267453E+03  0.91361173931E+02 0.  0.
        254    2    1    2    0    0 -0.33234412388E+03  0.18450497313E+02  0.19991258048E+03  0.96618738518E+03  0.88473724118E+03 0.  0.
        -24    2    4    4    0    0 -0.62655821425E+03 -0.28057661186E+02  0.89231330077E+02  0.63840224779E+03  0.78947903908E+02 0.  0.
         24    2    4    4    0    0  0.29421409037E+03  0.46508158499E+02  0.11068125040E+03  0.32778513739E+03  0.80422741331E+02 0.  0.
         13    1    3    3    0    0  0.36964173265E+02  0.76189552059E+01  0.16859172696E+02  0.41335581375E+02  0.00000000000E+00 0.  1.
        -13    1    3    3    0    0  0.29537995061E+03 -0.26069452519E+02  0.46144457919E+03  0.54850709315E+03  0.00000000000E+00 0. -1.
          4    1    6    6  502    0  0.22033202828E+03  0.49813033087E+02  0.48220617446E+02  0.23098218308E+03  0.00000000000E+00 0. -1.
          1    1    5    5  503    0 -0.58907503669E+03 -0.43170856119E+02  0.92504254663E+02  0.59785463015E+03  0.00000000000E+00 0. -1.
         -2    1    5    5    0  503 -0.37483177559E+02  0.15113194933E+02 -0.32729245858E+01  0.40547617641E+02  0.00000000000E+00 0.  1.
         -3    1    6    6    0  502  0.73882062088E+02 -0.33048745875E+01  0.62460632953E+02  0.96802954310E+02  0.00000000000E+00 0.  1.
<mgrwt>
<rscale>  0 0.14004471E+04</rscale>
<asrwt>0</asrwt>
<pdfrwt beam="1">  1        1 0.67524133E-01 0.14004471E+04</pdfrwt>
<pdfrwt beam="2">  1       -1 0.17186511E+00 0.14004471E+04</pdfrwt>
<totfact> 0.12311654E+01</totfact>
</mgrwt>
</event>
<event>
12    1  0.1472088E-007  0.3811160E+04  0.7818608E-02  0.8043764E-01
         -1   -1    0    0    0  501 -0.00000000000E+00  0.00000000000E+00  0.15101886226E+04  0.15101886226E+04  0.00000000000E+00 0.  1.
          1   -1    0    0  501    0  0.00000000000E+00 -0.00000000000E+00 -0.24044911713E+04  0.24044911713E+04  0.00000000000E+00 0. -1.
         23    2    1    2    0    0 -0.47109030010E+03 -0.77359206120E+03  0.11773462134E+04  0.14883634661E+04  0.93332486805E+02 0.  0.
        254    2    1    2    0    0  0.47109030010E+03  0.77359206120E+03 -0.20716487622E+04  0.24263163278E+04  0.88029062282E+03 0.  0.
        -24    2    4    4    0    0  0.43145989530E+01  0.22821477228E+02 -0.11261901801E+04  0.11294906102E+04  0.83098021073E+02 0.  0.
         24    2    4    4    0    0  0.46677570114E+03  0.75077058397E+03 -0.94545858205E+03  0.12968257176E+04  0.79554927533E+02 0.  0.
         11    1    3    3    0    0 -0.28545534600E+03 -0.45280995373E+03  0.76836881310E+03  0.93643592504E+03  0.00000000000E+00 0.  1.
        -11    1    3    3    0    0 -0.18563495410E+03 -0.32078210747E+03  0.40897740031E+03  0.55192754109E+03  0.00000000000E+00 0. -1.
          2    1    6    6  502    0  0.41069941449E+03  0.64957817444E+03 -0.85752332982E+03  0.11515086083E+04  0.00000000000E+00 0. -1.
          3    1    5    5  503    0  0.25464282279E+02  0.76346762104E+01 -0.10128220027E+04  0.10131708282E+04  0.00000000000E+00 0. -1.
         -4    1    5    5    0  503 -0.21149683326E+02  0.15186801018E+02 -0.11336817739E+03  0.11631978195E+03  0.00000000000E+00 0.  1.
         -1    1    6    6    0  502  0.56076286655E+02  0.10119240953E+03 -0.87935252233E+02  0.14531710931E+03  0.00000000000E+00 0.  1.
<mgrwt>
<rscale>  0 0.38111600E+04</rscale>
<asrwt>0</asrwt>
<pdfrwt beam="1">  1        1 0.36992171E+00 0.38111600E+04</pdfrwt>
<pdfrwt beam="2">  1       -1 0.23233671E+00 0.38111600E+04</pdfrwt>
<totfact> 0.11421618E-01</totfact>
</mgrwt>
</event>
<event>
12    1  0.1472088E-007  0.1520964E+04  0.7818608E-02  0.8870631E-01
          1   -1    0    0  501    0  0.00000000000E+00  0.00000000000E+00  0.92633877858E+03  0.92633877858E+03  0.00000000000E+00 0. -1.
         -1   -1    0    0    0  501 -0.00000000000E+00 -0.00000000000E+00 -0.62432104231E+03  0.62432104231E+03  0.00000000000E+00 0.  1.
         23    2    1    2    0    0  0.32234221855E+03  0.32970466018E+03 -0.95097928784E+02  0.47952657519E+03  0.91062898304E+02 0.  0.
        254    2    1    2    0    0 -0.32234221855E+03 -0.32970466018E+03  0.39711566506E+03  0.10711332457E+04  0.88148505933E+03 0.  0.
        -24    2    4    4    0    0 -0.12496784224E+03 -0.61853477671E+03  0.23411892297E+03  0.67775822014E+03  0.79638579148E+02 0.  0.
         24    2    4    4    0    0 -0.19737437631E+03  0.28883011653E+03  0.16299674209E+03  0.39337502556E+03  0.76134697524E+02 0.  0.
         11    1    3    3    0    0  0.19573233727E+02  0.50704747634E+00  0.69451967407E+01  0.20775089253E+02  0.00000000000E+00 0. -1.
        -11    1    3    3    0    0  0.30276898482E+03  0.32919761270E+03 -0.10204312553E+03  0.45875148593E+03  0.00000000000E+00 0.  1.
          4    1    6    6  502    0 -0.24747184948E+02  0.88460388174E+02  0.25700552276E+02  0.95384389844E+02  0.00000000000E+00 0. -1.
          1    1    5    5  503    0 -0.12936873018E+03 -0.55528108278E+03  0.22802575743E+03  0.61405952097E+03  0.00000000000E+00 0. -1.
         -2    1    5    5    0  503  0.44008879375E+01 -0.63253693928E+02  0.60931655371E+01  0.63698699174E+02  0.00000000000E+00 0.  1.
         -3    1    6    6    0  502 -0.17262719136E+03  0.20036972836E+03  0.13729618981E+03  0.29799063572E+03  0.00000000000E+00 0.  1.
<mgrwt>
<rscale>  0 0.15209639E+04</rscale>
<asrwt>0</asrwt>
<pdfrwt beam="1">  1        1 0.14251366E+00 0.15209639E+04</pdfrwt>
<pdfrwt beam="2">  1       -1 0.96049391E-01 0.15209639E+04</pdfrwt>
<totfact> 0.17475184E+01</totfact>
</mgrwt>
</event>
<event>
12    1  0.1472088E-007  0.2455604E+04  0.7818608E-02  0.8418975E-01
          2   -1    0    0  501    0  0.00000000000E+00  0.00000000000E+00  0.87080152531E+03  0.87080152531E+03  0.00000000000E+00 0. -1.
         -2   -1    0    0    0  501 -0.00000000000E+00 -0.00000000000E+00 -0.17311611361E+04  0.17311611361E+04  0.00000000000E+00 0.  1.
         23    2    1    2    0    0  0.83770036337E+03 -0.40055354152E+03  0.16945983174E+03  0.94827676828E+03  0.91253253568E+02 0.  0.
        254    2    1    2    0    0 -0.83770036337E+03  0.40055354152E+03 -0.10298194426E+04  0.16536858932E+04  0.90109040089E+03 0.  0.
        -24    2    4    4    0    0  0.30212130610E+02  0.18512316664E+03  0.86077646805E+02  0.22118585946E+03  0.79564209834E+02 0.  0.
         24    2    4    4    0    0 -0.86791249398E+03  0.21543037488E+03 -0.11158970894E+04  0.14325000337E+04  0.84544005590E+02 0.  0.
         13    1    3    3    0    0  0.50899968511E+03 -0.19880731435E+03  0.78930730228E+02  0.55211872623E+03  0.00000000000E+00 0.  1.
        -13    1    3    3    0    0  0.32870067826E+03 -0.20174622717E+03  0.90529101508E+02  0.39615804206E+03  0.00000000000E+00 0. -1.
          2    1    6    6  502    0 -0.13139028724E+03  0.20057653946E+01 -0.16084505865E+03  0.20769825124E+03  0.00000000000E+00 0. -1.
          1    1    5    5  503    0 -0.79471143432E+01  0.31743421661E+02 -0.12364060740E+02  0.34981015467E+02  0.00000000000E+00 0. -1.
         -2    1    5    5    0  503  0.38159244953E+02  0.15337974498E+03  0.98441707545E+02  0.18620484400E+03  0.00000000000E+00 0.  1.
         -1    1    6    6    0  502 -0.73652220673E+03  0.21342460949E+03 -0.95505203070E+03  0.12248017825E+04  0.00000000000E+00 0.  1.
<mgrwt>
<rscale>  0 0.24556040E+04</rscale>
<asrwt>0</asrwt>
<pdfrwt beam="1">  1        2 0.13396947E+00 0.24556040E+04</pdfrwt>
<pdfrwt beam="2">  1       -2 0.26633248E+00 0.24556040E+04</pdfrwt>
<totfact> 0.14024032E+00</totfact>
</mgrwt>
</event>
<event>
12    1  0.1472088E-007  0.1744631E+04  0.7818608E-02  0.8736311E-01
          2   -1    0    0  501    0  0.00000000000E+00  0.00000000000E+00  0.11058501059E+04  0.11058501059E+04  0.00000000000E+00 0. -1.
         -2   -1    0    0    0  501 -0.00000000000E+00 -0.00000000000E+00 -0.68809911243E+03  0.68809911243E+03  0.00000000000E+00 0.  1.
         23    2    1    2    0    0  0.39197136279E+03  0.49688618229E+03  0.10753078188E+03  0.64848512475E+03  0.91829519033E+02 0.  0.
        254    2    1    2    0    0 -0.39197136279E+03 -0.49688618229E+03  0.31022021154E+03  0.11454640935E+04  0.90294738636E+03 0.  0.
        -24    2    4    4    0    0 -0.61241898045E+03 -0.78496370896E+02  0.17368030492E+03  0.64644210481E+03  0.80646504558E+02 0.  0.
         24    2    4    4    0    0  0.22044761766E+03 -0.41838981139E+03  0.13653990662E+03  0.49902198872E+03  0.82052499775E+02 0.  0.
         11    1    3    3    0    0  0.13974015910E+03  0.24497783016E+03  0.65483918753E+02  0.28953340559E+03  0.00000000000E+00 0. -1.
        -11    1    3    3    0    0  0.25223120369E+03  0.25190835213E+03  0.42046863131E+02  0.35895171916E+03  0.00000000000E+00 0.  1.
          2    1    6    6  502    0  0.10344090029E+03 -0.24368636460E+03  0.40316396474E+02  0.26778438336E+03  0.00000000000E+00 0. -1.
          1    1    5    5  503    0 -0.53869015370E+03 -0.49539994517E+02  0.17038790718E+03  0.56716252668E+03  0.00000000000E+00 0. -1.
         -2    1    5    5    0  503 -0.73728826748E+02 -0.28956376379E+02  0.32923977424E+01  0.79279578137E+02  0.00000000000E+00 0.  1.
         -1    1    6    6    0  502  0.11700671737E+03 -0.17470344679E+03  0.96223510144E+02  0.23123760537E+03  0.00000000000E+00 0.  1.
<mgrwt>
<rscale>  0 0.17446312E+04</rscale>
<asrwt>0</asrwt>
<pdfrwt beam="1">  1        2 0.17013079E+00 0.17446312E+04</pdfrwt>
<pdfrwt beam="2">  1       -2 0.10586140E+00 0.17446312E+04</pdfrwt>
<totfact> 0.14769221E+01</totfact>
</mgrwt>
</event>
<event>
12    1  0.1472088E-007  0.2026943E+04  0.7818608E-02  0.8594126E-01
          2   -1    0    0  501    0  0.00000000000E+00  0.00000000000E+00  0.19533601282E+04  0.19533601282E+04  0.00000000000E+00 0. -1.
         -2   -1    0    0    0  501 -0.00000000000E+00 -0.00000000000E+00 -0.52582453488E+03  0.52582453488E+03  0.00000000000E+00 0.  1.
         23    2    1    2    0    0 -0.10117729494E+03 -0.46439966511E+03 -0.22683481848E+03  0.53469411305E+03  0.92411393711E+02 0.  0.
        254    2    1    2    0    0  0.10117729494E+03  0.46439966511E+03  0.16543704118E+04  0.19444905500E+04  0.90454305907E+03 0.  0.
        -24    2    4    4    0    0  0.71288424118E+02 -0.16774236754E+03  0.10403857245E+04  0.10591614417E+04  0.78746190493E+02 0.  0.
         24    2    4    4    0    0  0.29888870823E+02  0.63214203265E+03  0.61398468730E+03  0.88532910834E+03  0.79583539745E+02 0.  0.
         11    1    3    3    0    0 -0.37068221476E+02 -0.21024375869E+03 -0.52344837095E+02  0.21981008412E+03  0.00000000000E+00 0. -1.
        -11    1    3    3    0    0 -0.64109073464E+02 -0.25415590642E+03 -0.17448998138E+03  0.31488402892E+03  0.00000000000E+00 0.  1.
          4    1    6    6  502    0 -0.23410709263E+02  0.33890252900E+03  0.32011786692E+03  0.46677450037E+03  0.00000000000E+00 0. -1.
          1    1    5    5  503    0  0.41558764841E+02 -0.63186753049E+02  0.63379145643E+03  0.63828779320E+03  0.00000000000E+00 0. -1.
         -2    1    5    5    0  503  0.29729659277E+02 -0.10455561449E+03  0.40659426804E+03  0.42087364845E+03  0.00000000000E+00 0.  1.
         -3    1    6    6    0  502  0.53299580086E+02  0.29323950365E+03  0.29386682037E+03  0.41855460797E+03  0.00000000000E+00 0.  1.
<mgrwt>
<rscale>  0 0.20269432E+04</rscale>
<asrwt>0</asrwt>
<pdfrwt beam="1">  1        2 0.30051694E+00 0.20269432E+04</pdfrwt>
<pdfrwt beam="2">  1       -2 0.80896083E-01 0.20269432E+04</pdfrwt>
<totfact> 0.88624662E+00</totfact>
</mgrwt>
</event>
<event>
12    1  0.1472088E-007  0.1818884E+04  0.7818608E-02  0.8696321E-01
         -2   -1    0    0    0  501 -0.00000000000E+00  0.00000000000E+00  0.89259202520E+03  0.89259202520E+03  0.00000000000E+00 0. -1.
          2   -1    0    0  501    0  0.00000000000E+00 -0.00000000000E+00 -0.92660965539E+03  0.92660965539E+03  0.00000000000E+00 0.  1.
         23    2    1    2    0    0 -0.45528304554E+03 -0.27840789707E+03  0.41758305066E+03  0.68359005490E+03  0.90145162065E+02 0.  0.
        254    2    1    2    0    0  0.45528304554E+03  0.27840789707E+03 -0.45160068086E+03  0.11356116257E+04  0.89491730386E+03 0.  0.
        -24    2    4    4    0    0  0.66726791869E+03  0.11699383744E+02 -0.18835060288E+03  0.69799803251E+03  0.79636379173E+02 0.  0.
         24    2    4    4    0    0 -0.21198487315E+03  0.26670851333E+03 -0.26325007798E+03  0.43761359318E+03  0.78320085919E+02 0.  0.
         11    1    3    3    0    0 -0.39702731784E+03 -0.25060557195E+03  0.32616476137E+03  0.57167936412E+03  0.00000000000E+00 0. -1.
        -11    1    3    3    0    0 -0.58255727706E+02 -0.27802325120E+02  0.91418289299E+02  0.11191069078E+03  0.00000000000E+00 0.  1.
          2    1    6    6  502    0 -0.18445546580E+03  0.20504668500E+03 -0.24171607997E+03  0.36673508860E+03  0.00000000000E+00 0. -1.
          1    1    5    5  503    0  0.25970285692E+03 -0.10878118645E+01 -0.11348054151E+03  0.28341593204E+03  0.00000000000E+00 0. -1.
         -2    1    5    5    0  503  0.40756506177E+03  0.12787195609E+02 -0.74870061366E+02  0.41458210048E+03  0.00000000000E+00 0.  1.
         -1    1    6    6    0  502 -0.27529407351E+02  0.61661828334E+02 -0.21533998004E+02  0.70878504588E+02  0.00000000000E+00 0.  1.
<mgrwt>
<rscale>  0 0.18188836E+04</rscale>
<asrwt>0</asrwt>
<pdfrwt beam="1">  1        2 0.14255533E+00 0.18188836E+04</pdfrwt>
<pdfrwt beam="2">  1       -2 0.13732185E+00 0.18188836E+04</pdfrwt>
<totfact> 0.10014574E+01</totfact>
</mgrwt>
</event>
<event>
12    1  0.1472088E-007  0.2213845E+04  0.7818608E-02  0.8512688E-01
          2   -1    0    0  501    0  0.00000000000E+00  0.00000000000E+00  0.77323238643E+03  0.77323238643E+03  0.00000000000E+00 0.  1.
         -2   -1    0    0    0  501 -0.00000000000E+00 -0.00000000000E+00 -0.15846167177E+04  0.15846167177E+04  0.00000000000E+00 0. -1.
         23    2    1    2    0    0 -0.38270169568E+03  0.14221139630E+02  0.55033070704E+03  0.67687404886E+03  0.92907277536E+02 0.  0.
        254    2    1    2    0    0  0.38270169568E+03 -0.14221139630E+02 -0.13617150384E+04  0.16809750553E+04  0.90815552756E+03 0.  0.
        -24    2    4    4    0    0  0.22667888399E+03 -0.17150760890E+03  0.38469094593E+01  0.29522243283E+03  0.79644897985E+02 0.  0.
         24    2    4    4    0    0  0.15602281169E+03  0.15728646927E+03 -0.13655619478E+04  0.13857526225E+04  0.80428516289E+02 0.  0.
         11    1    3    3    0    0 -0.42533078180E+02  0.26923012714E+02  0.44613339106E+02  0.67262629886E+02  0.00000000000E+00 0. -1.
        -11    1    3    3    0    0 -0.34016861750E+03 -0.12701873084E+02  0.50571736794E+03  0.60961141897E+03  0.00000000000E+00 0.  1.
          4    1    6    6  502    0 -0.56909886853E+01 -0.13020639900E+01 -0.11707128215E+02  0.13082032484E+02  0.00000000000E+00 0. -1.
          3    1    5    5  503    0 -0.45177198811E+01  0.19072051677E+01 -0.36595634035E+01  0.61187930820E+01  0.00000000000E+00 0. -1.
         -4    1    5    5    0  503  0.23119660387E+03 -0.17341481407E+03  0.75064728627E+01  0.28910363975E+03  0.00000000000E+00 0.  1.
         -3    1    6    6    0  502  0.16171380037E+03  0.15858853326E+03 -0.13538548196E+04  0.13726705900E+04  0.00000000000E+00 0.  1.
<mgrwt>
<rscale>  0 0.22138446E+04</rscale>
<asrwt>0</asrwt>
<pdfrwt beam="1">  1        2 0.11895883E+00 0.22138446E+04</pdfrwt>
<pdfrwt beam="2">  1       -2 0.24378719E+00 0.22138446E+04</pdfrwt>
<totfact> 0.23084751E+00</totfact>
</mgrwt>
</event>
<event>
12    1  0.1472088E-007  0.2849856E+04  0.7818608E-02  0.8287955E-01
          2   -1    0    0  501    0  0.00000000000E+00  0.00000000000E+00  0.18780277916E+04  0.18780277916E+04  0.00000000000E+00 0. -1.
         -2   -1    0    0    0  501 -0.00000000000E+00 -0.00000000000E+00 -0.10811447388E+04  0.10811447388E+04  0.00000000000E+00 0.  1.
         23    2    1    2    0    0  0.10464784008E+04 -0.27276116631E+03 -0.35431520477E+03  0.11417974103E+04  0.92985831249E+02 0.  0.
        254    2    1    2    0    0 -0.10464784008E+04  0.27276116631E+03  0.11511982576E+04  0.18173751200E+04  0.89893225641E+03 0.  0.
        -24    2    4    4    0    0 -0.17958086035E+03 -0.29735368536E+03  0.38751903256E+03  0.52659084057E+03  0.80364253101E+02 0.  0.
         24    2    4    4    0    0 -0.86689754040E+03  0.57011485166E+03  0.76367922501E+03  0.12907842795E+04  0.79848655380E+02 0.  0.
         13    1    3    3    0    0  0.33297488416E+03 -0.81029854569E+02 -0.67583822233E+02  0.34929312023E+03  0.00000000000E+00 0. -1.
        -13    1    3    3    0    0  0.71350351660E+03 -0.19173131174E+03 -0.28673138254E+03  0.79250429010E+03  0.00000000000E+00 0.  1.
          2    1    6    6  502    0 -0.10944867547E+03  0.42799841923E+02  0.94161780907E+02  0.15058977393E+03  0.00000000000E+00 0. -1.
          1    1    5    5  503    0 -0.68239780646E+02 -0.12043397530E+03  0.98471375851E+02  0.16987531289E+03  0.00000000000E+00 0. -1.
         -2    1    5    5    0  503 -0.11134107971E+03 -0.17691971006E+03  0.28904765670E+03  0.35671552768E+03  0.00000000000E+00 0.  1.
         -1    1    6    6    0  502 -0.75744886493E+03  0.52731500974E+03  0.66951744410E+03  0.11401945055E+04  0.00000000000E+00 0.  1.
<mgrwt>
<rscale>  0 0.28498560E+04</rscale>
<asrwt>0</asrwt>
<pdfrwt beam="1">  1        2 0.28892735E+00 0.28498560E+04</pdfrwt>
<pdfrwt beam="2">  1       -2 0.16632996E+00 0.28498560E+04</pdfrwt>
<totfact> 0.15327719E+00</totfact>
</mgrwt>
</event>
<event>
12    1  0.1472088E-007  0.2852948E+04  0.7818608E-02  0.8287016E-01
          2   -1    0    0  501    0  0.00000000000E+00  0.00000000000E+00  0.12795009255E+04  0.12795009255E+04  0.00000000000E+00 0.  1.
         -2   -1    0    0    0  501 -0.00000000000E+00 -0.00000000000E+00 -0.15903293052E+04  0.15903293052E+04  0.00000000000E+00 0. -1.
         23    2    1    2    0    0 -0.33497378009E+03  0.61313070322E+02 -0.13810704166E+04  0.14262671133E+04  0.10447802111E+03 0.  0.
        254    2    1    2    0    0  0.33497378009E+03 -0.61313070322E+02  0.10702420369E+04  0.14435631174E+04  0.90691219544E+03 0.  0.
        -24    2    4    4    0    0  0.35832503835E+03 -0.42185971103E+03  0.43670075411E+03  0.70956873842E+03  0.80111154083E+02 0.  0.
         24    2    4    4    0    0 -0.23351258259E+02  0.36054664071E+03  0.63354128283E+03  0.73399437894E+03  0.82668191441E+02 0.  0.
         13    1    3    3    0    0 -0.28387699305E+03  0.39786771071E+02 -0.96983105954E+03  0.10113067875E+04  0.00000000000E+00 0.  1.
        -13    1    3    3    0    0 -0.51096787035E+02  0.21526299251E+02 -0.41123935709E+03  0.41496032585E+03  0.00000000000E+00 0. -1.
          2    1    6    6  502    0 -0.49977355831E+02  0.23732994548E+03  0.45230011230E+03  0.51322376280E+03  0.00000000000E+00 0. -1.
          1    1    5    5  503    0  0.32419260993E+03 -0.40187034334E+03  0.38301627141E+03  0.64288574829E+03  0.00000000000E+00 0. -1.
         -2    1    5    5    0  503  0.34132428416E+02 -0.19989367694E+02  0.53684482702E+02  0.66682990135E+02  0.00000000000E+00 0.  1.
         -1    1    6    6    0  502  0.26626097572E+02  0.12321669523E+03  0.18124117053E+03  0.22077061613E+03  0.00000000000E+00 0.  1.
<mgrwt>
<rscale>  0 0.28529478E+04</rscale>
<asrwt>0</asrwt>
<pdfrwt beam="1">  1        2 0.19684630E+00 0.28529478E+04</pdfrwt>
<pdfrwt beam="2">  1       -2 0.24466605E+00 0.28529478E+04</pdfrwt>
<totfact> 0.10205863E+00</totfact>
</mgrwt>
</event>
<event>
12    1  0.1472088E-007  0.1396612E+04  0.7818608E-02  0.8956275E-01
         -1   -1    0    0    0  501 -0.00000000000E+00  0.00000000000E+00  0.13187272005E+04  0.13187272005E+04  0.00000000000E+00 0.  1.
          1   -1    0    0  501    0  0.00000000000E+00 -0.00000000000E+00 -0.36977415801E+03  0.36977415801E+03  0.00000000000E+00 0. -1.
         23    2    1    2    0    0 -0.14387335142E+03  0.34102535588E+02 -0.16723648354E+03  0.24338364782E+03  0.96979556707E+02 0.  0.
        254    2    1    2    0    0  0.14387335142E+03 -0.34102535588E+02  0.11161895261E+04  0.14451177107E+04  0.90588278245E+03 0.  0.
        -24    2    4    4    0    0 -0.35902997778E+03 -0.68116139193E+02  0.28635627145E+03  0.47101204454E+03  0.79436128619E+02 0.  0.
         24    2    4    4    0    0  0.50290332920E+03  0.34013603605E+02  0.82983325460E+03  0.97410566617E+03  0.78676137879E+02 0.  0.
         13    1    3    3    0    0 -0.13481886622E+03 -0.61981591036E+01 -0.11955971203E+03  0.18030271381E+03  0.00000000000E+00 0. -1.
        -13    1    3    3    0    0 -0.90544851962E+01  0.40300694691E+02 -0.47676771506E+02  0.63080934014E+02  0.00000000000E+00 0.  1.
          4    1    6    6  502    0  0.23660626447E+02 -0.56940783241E+01  0.77345791284E+02  0.81084025561E+02  0.00000000000E+00 0. -1.
          3    1    5    5  503    0 -0.19390732471E+03  0.30970954358E+01  0.14065261684E+03  0.23956794694E+03  0.00000000000E+00 0. -1.
         -4    1    5    5    0  503 -0.16512265308E+03 -0.71213234629E+02  0.14570365462E+03  0.23144409760E+03  0.00000000000E+00 0.  1.
         -3    1    6    6    0  502  0.47924270275E+03  0.39707681929E+02  0.75248746331E+03  0.89302164061E+03  0.00000000000E+00 0.  1.
<mgrwt>
<rscale>  0 0.13966120E+04</rscale>
<asrwt>0</asrwt>
<pdfrwt beam="1">  1        1 0.56888332E-01 0.13966120E+04</pdfrwt>
<pdfrwt beam="2">  1       -1 0.20288111E+00 0.13966120E+04</pdfrwt>
<totfact> 0.93394434E+00</totfact>
</mgrwt>
</event>
<event>
12    1  0.1472088E-007  0.1449602E+04  0.7818608E-02  0.8918677E-01
         -2   -1    0    0    0  501 -0.00000000000E+00  0.00000000000E+00  0.26168029039E+03  0.26168029039E+03  0.00000000000E+00 0.  1.
          2   -1    0    0  501    0  0.00000000000E+00 -0.00000000000E+00 -0.20075496013E+04  0.20075496013E+04  0.00000000000E+00 0. -1.
         23    2    1    2    0    0 -0.23949246868E+03 -0.32873741448E+03 -0.28947600562E+03  0.50753493514E+03  0.91490012180E+02 0.  0.
        254    2    1    2    0    0  0.23949246868E+03  0.32873741448E+03 -0.14563933053E+04  0.17616949566E+04  0.90391522282E+03 0.  0.
        -24    2    4    4    0    0  0.54684660956E+03  0.37262919823E+03 -0.10584479384E+04  0.12507841560E+04  0.79090030049E+02 0.  0.
         24    2    4    4    0    0 -0.30735414088E+03 -0.43891783752E+02 -0.39794536694E+03  0.51091080059E+03  0.79222941748E+02 0.  0.
         13    1    3    3    0    0 -0.95818932316E+02 -0.92751014330E+02 -0.14024154423E+03  0.19352444078E+03  0.00000000000E+00 0. -1.
        -13    1    3    3    0    0 -0.14367353636E+03 -0.23598640015E+03 -0.14923446139E+03  0.31401049436E+03  0.00000000000E+00 0.  1.
          2    1    6    6  502    0 -0.23034795151E+03 -0.48346791772E+02 -0.34388132699E+03  0.41671568016E+03  0.00000000000E+00 0. -1.
          1    1    5    5  503    0  0.43517592621E+03  0.32576800715E+03 -0.82893959034E+03  0.99128387744E+03  0.00000000000E+00 0. -1.
         -4    1    5    5    0  503  0.11167068335E+03  0.46861191085E+02 -0.22950834801E+03  0.25950027853E+03  0.00000000000E+00 0.  1.
         -1    1    6    6    0  502 -0.77006189373E+02  0.44550080205E+01 -0.54064039947E+02  0.94195120434E+02  0.00000000000E+00 0.  1.
<mgrwt>
<rscale>  0 0.14496015E+04</rscale>
<asrwt>0</asrwt>
<pdfrwt beam="1">  1        2 0.30885379E+00 0.14496015E+04</pdfrwt>
<pdfrwt beam="2">  1       -2 0.40258505E-01 0.14496015E+04</pdfrwt>
<totfact> 0.37495051E+01</totfact>
</mgrwt>
</event>
<event>
12    1  0.1472088E-007  0.1299272E+04  0.7818608E-02  0.9030143E-01
         -1   -1    0    0    0  501 -0.00000000000E+00  0.00000000000E+00  0.52833425014E+03  0.52833425014E+03  0.00000000000E+00 0.  1.
          1   -1    0    0  501    0  0.00000000000E+00 -0.00000000000E+00 -0.79878730776E+03  0.79878730776E+03  0.00000000000E+00 0. -1.
         23    2    1    2    0    0 -0.30921627045E+03 -0.10869897052E+03  0.79869880604E+02  0.34895694398E+03  0.89227702083E+02 0.  0.
        254    2    1    2    0    0  0.30921627045E+03  0.10869897052E+03 -0.35032293823E+03  0.97816461393E+03  0.85243749494E+03 0.  0.
        -24    2    4    4    0    0 -0.85699391670E+02  0.27535586367E+03  0.13279178190E+03  0.32731115863E+03  0.79584545185E+02 0.  0.
         24    2    4    4    0    0  0.39491566212E+03 -0.16665689315E+03 -0.48311472014E+03  0.65085345530E+03  0.80482838195E+02 0.  0.
         13    1    3    3    0    0 -0.12159656689E+02 -0.24608284073E+00 -0.14515169852E+02  0.18936947046E+02  0.00000000000E+00 0.  1.
        -13    1    3    3    0    0 -0.29705661376E+03 -0.10845288768E+03  0.94385050457E+02  0.33001999693E+03  0.00000000000E+00 0. -1.
          4    1    6    6  502    0  0.20210033352E+03 -0.10718698054E+03 -0.20448738431E+03  0.30683657531E+03  0.00000000000E+00 0. -1.
          3    1    5    5  503    0 -0.39641967174E+01  0.22619224974E+02 -0.10780293301E+02  0.25368463053E+02  0.00000000000E+00 0. -1.
         -4    1    5    5    0  503 -0.81735194953E+02  0.25273663869E+03  0.14357207521E+03  0.30194269557E+03  0.00000000000E+00 0.  1.
         -3    1    6    6    0  502  0.19281532859E+03 -0.59469912607E+02 -0.27862733583E+03  0.34401687999E+03  0.00000000000E+00 0.  1.
<mgrwt>
<rscale>  0 0.12992716E+04</rscale>
<asrwt>0</asrwt>
<pdfrwt beam="1">  1        1 0.12289035E+00 0.12992716E+04</pdfrwt>
<pdfrwt beam="2">  1       -1 0.81282193E-01 0.12992716E+04</pdfrwt>
<totfact> 0.32848701E+01</totfact>
</mgrwt>
</event>
<event>
12    1  0.1472088E-007  0.1982303E+04  0.7818608E-02  0.8614940E-01
         -2   -1    0    0    0  501 -0.00000000000E+00  0.00000000000E+00  0.15777144700E+04  0.15777144700E+04  0.00000000000E+00 0. -1.
          2   -1    0    0  501    0  0.00000000000E+00 -0.00000000000E+00 -0.62266092898E+03  0.62266092898E+03  0.00000000000E+00 0.  1.
         23    2    1    2    0    0 -0.69654155809E+03  0.35991940430E+03  0.56657897671E+03  0.97104983289E+03  0.84934806548E+02 0.  0.
        254    2    1    2    0    0  0.69654155809E+03 -0.35991940430E+03  0.38847456431E+03  0.12293255661E+04  0.86349101942E+03 0.  0.
        -24    2    4    4    0    0  0.86754400314E+03 -0.40128638074E+03  0.24431229926E+03  0.98966889908E+03  0.78055579498E+02 0.  0.
         24    2    4    4    0    0 -0.17100244505E+03  0.41366976447E+02  0.14416226505E+03  0.23965666702E+03  0.75495009312E+02 0.  0.
         13    1    3    3    0    0 -0.10009894272E+03  0.33164436543E+02  0.10708709844E+03  0.15029080091E+03  0.00000000000E+00 0.  1.
        -13    1    3    3    0    0 -0.59644261537E+03  0.32675496775E+03  0.45949187828E+03  0.82075903198E+03  0.00000000000E+00 0. -1.
          4    1    6    6  502    0 -0.39172850541E+02  0.41088359901E+02  0.63188698472E+02  0.84944553407E+02  0.00000000000E+00 0. -1.
          1    1    5    5  503    0  0.33103528393E+03 -0.14418169558E+03  0.13061281153E+03  0.38396930487E+03  0.00000000000E+00 0. -1.
         -2    1    5    5    0  503  0.53650871920E+03 -0.25710468516E+03  0.11369948773E+03  0.60569959421E+03  0.00000000000E+00 0.  1.
         -3    1    6    6    0  502 -0.13182959450E+03  0.27861654641E+00  0.80973566575E+02  0.15471211361E+03  0.00000000000E+00 0.  1.
<mgrwt>
<rscale>  0 0.19823029E+04</rscale>
<asrwt>0</asrwt>
<pdfrwt beam="1">  1        2 0.95793990E-01 0.19823029E+04</pdfrwt>
<pdfrwt beam="2">  1       -2 0.24272530E+00 0.19823029E+04</pdfrwt>
<totfact> 0.31418060E+00</totfact>
</mgrwt>
</event>
<event>
12    1  0.1472088E-007  0.1901461E+04  0.7818608E-02  0.8654130E-01
         -1   -1    0    0    0  501 -0.00000000000E+00  0.00000000000E+00  0.17660583931E+04  0.17660583931E+04  0.00000000000E+00 0.  1.
          1   -1    0    0  501    0  0.00000000000E+00 -0.00000000000E+00 -0.51181096158E+03  0.51181096158E+03  0.00000000000E+00 0. -1.
         23    2    1    2    0    0  0.12699526781E+03  0.70931275617E+03  0.33159472936E+03  0.79772839960E+03  0.84635399689E+02 0.  0.
        254    2    1    2    0    0 -0.12699526781E+03 -0.70931275617E+03  0.92265270217E+03  0.14801409551E+04  0.90569136798E+03 0.  0.
        -24    2    4    4    0    0 -0.49614578650E+03 -0.51966618223E+03  0.68351772483E+03  0.99463791420E+03  0.76775763123E+02 0.  0.
         24    2    4    4    0    0  0.36915051869E+03 -0.18964657394E+03  0.23913497734E+03  0.48550304090E+03  0.79307861372E+02 0.  0.
         13    1    3    3    0    0  0.59512743247E+02  0.50020715439E+03  0.25831711571E+03  0.56610661203E+03  0.00000000000E+00 0. -1.
        -13    1    3    3    0    0  0.67482524566E+02  0.20910560177E+03  0.73277613649E+02  0.23162178757E+03  0.00000000000E+00 0.  1.
          4    1    6    6  502    0  0.24528011977E+03 -0.15151722053E+03  0.13082799904E+03  0.31660033260E+03  0.00000000000E+00 0. -1.
          3    1    5    5  503    0 -0.80494650790E+02 -0.95618157672E+02  0.82457775745E+02  0.14973812361E+03  0.00000000000E+00 0. -1.
         -4    1    5    5    0  503 -0.41565113571E+03 -0.42404802455E+03  0.60105994909E+03  0.84489979059E+03  0.00000000000E+00 0.  1.
         -3    1    6    6    0  502  0.12387039892E+03 -0.38129353415E+02  0.10830697831E+03  0.16890270830E+03  0.00000000000E+00 0.  1.
<mgrwt>
<rscale>  0 0.19014605E+04</rscale>
<asrwt>0</asrwt>
<pdfrwt beam="1">  1        1 0.78740149E-01 0.19014605E+04</pdfrwt>
<pdfrwt beam="2">  1       -1 0.27170129E+00 0.19014605E+04</pdfrwt>
<totfact> 0.20227528E+00</totfact>
</mgrwt>
</event>
<event>
12    1  0.1472088E-007  0.1363820E+04  0.7818608E-02  0.8980432E-01
          1   -1    0    0  501    0  0.00000000000E+00  0.00000000000E+00  0.87674257411E+03  0.87674257411E+03  0.00000000000E+00 0. -1.
         -1   -1    0    0    0  501 -0.00000000000E+00 -0.00000000000E+00 -0.53037404049E+03  0.53037404049E+03  0.00000000000E+00 0.  1.
         23    2    1    2    0    0  0.33653750455E+03 -0.83429172820E+02 -0.36802186099E+02  0.36055225866E+03  0.91791129609E+02 0.  0.
        254    2    1    2    0    0 -0.33653750455E+03  0.83429172820E+02  0.38317071972E+03  0.10465643559E+04  0.91008748581E+03 0.  0.
        -24    2    4    4    0    0  0.27863991440E+03  0.18611519368E+03  0.13757389795E+03  0.37142588450E+03  0.82167773865E+02 0.  0.
         24    2    4    4    0    0 -0.61517741895E+03 -0.10268602086E+03  0.24559682177E+03  0.67513847145E+03  0.80662761509E+02 0.  0.
         11    1    3    3    0    0  0.31680333482E+03 -0.73956417209E+02 -0.93692072141E+01  0.32545612092E+03  0.00000000000E+00 0.  1.
        -11    1    3    3    0    0  0.19734169734E+02 -0.94727556107E+01 -0.27432978885E+02  0.35096137742E+02  0.00000000000E+00 0. -1.
          4    1    6    6  502    0 -0.54775959773E+03 -0.82316238343E+02  0.19061592454E+03  0.58579089331E+03  0.00000000000E+00 0. -1.
          3    1    5    5  503    0  0.20800593191E+03  0.14217597514E+03  0.13993828311E+03  0.28820686789E+03  0.00000000000E+00 0. -1.
         -4    1    5    5    0  503  0.70633982486E+02  0.43939218542E+02 -0.23643851639E+01  0.83219016607E+02  0.00000000000E+00 0.  1.
         -3    1    6    6    0  502 -0.67417821223E+02 -0.20369782521E+02  0.54980897227E+02  0.89347578133E+02  0.00000000000E+00 0.  1.
<mgrwt>
<rscale>  0 0.13638204E+04</rscale>
<asrwt>0</asrwt>
<pdfrwt beam="1">  1        1 0.13488347E+00 0.13638204E+04</pdfrwt>
<pdfrwt beam="2">  1       -1 0.81596006E-01 0.13638204E+04</pdfrwt>
<totfact> 0.27819861E+01</totfact>
</mgrwt>
</event>
<event>
12    1  0.1472088E-007  0.2107431E+04  0.7818608E-02  0.8557977E-01
         -1   -1    0    0    0  501 -0.00000000000E+00  0.00000000000E+00  0.79129436612E+03  0.79129436612E+03  0.00000000000E+00 0.  1.
          1   -1    0    0  501    0  0.00000000000E+00 -0.00000000000E+00 -0.14031645831E+04  0.14031645831E+04  0.00000000000E+00 0. -1.
         23    2    1    2    0    0 -0.17150707974E+03  0.50224555178E+03 -0.95315134763E+03  0.10944127429E+04  0.87043021591E+02 0.  0.
        254    2    1    2    0    0  0.17150707974E+03 -0.50224555178E+03  0.34128113069E+03  0.11000462063E+04  0.90109021365E+03 0.  0.
        -24    2    4    4    0    0 -0.50698599303E+02 -0.48011641898E+03 -0.18449287312E+03  0.52314020498E+03  0.80968698192E+02 0.  0.
         24    2    4    4    0    0  0.22220567905E+03 -0.22129132804E+02  0.52577400381E+03  0.57690600132E+03  0.80728984622E+02 0.  0.
         13    1    3    3    0    0 -0.32819547835E+02  0.26289571627E+02 -0.76423721481E+02  0.87228719476E+02  0.00000000000E+00 0.  1.
        -13    1    3    3    0    0 -0.13868753191E+03  0.47595598015E+03 -0.87672762615E+03  0.10071840234E+04  0.00000000000E+00 0. -1.
          2    1    6    6  502    0  0.44514578120E+02 -0.13317689943E+02  0.20399153052E+03  0.20921628295E+03  0.00000000000E+00 0. -1.
          3    1    5    5  503    0  0.84844976376E+01 -0.22051538395E+03 -0.56957553969E+02  0.22791047412E+03  0.00000000000E+00 0. -1.
         -4    1    5    5    0  503 -0.59183096941E+02 -0.25960103502E+03 -0.12753531916E+03  0.29522973086E+03  0.00000000000E+00 0.  1.
         -1    1    6    6    0  502  0.17769110092E+03 -0.88114428607E+01  0.32178247330E+03  0.36768971837E+03  0.00000000000E+00 0.  1.
<mgrwt>
<rscale>  0 0.21074309E+04</rscale>
<asrwt>0</asrwt>
<pdfrwt beam="1">  1        1 0.21587147E+00 0.21074309E+04</pdfrwt>
<pdfrwt beam="2">  1       -1 0.12173760E+00 0.21074309E+04</pdfrwt>
<totfact> 0.41980837E+00</totfact>
</mgrwt>
</event>
<event>
12    1  0.1472088E-007  0.2114341E+04  0.7818608E-02  0.8554952E-01
         -1   -1    0    0    0  501 -0.00000000000E+00  0.00000000000E+00  0.77824868075E+03  0.77824868075E+03  0.00000000000E+00 0.  1.
          1   -1    0    0  501    0  0.00000000000E+00 -0.00000000000E+00 -0.14360575486E+04  0.14360575486E+04  0.00000000000E+00 0. -1.
         23    2    1    2    0    0 -0.67328570630E+03  0.21638494987E+03 -0.75456932209E+03  0.10380570254E+04  0.89729801412E+02 0.  0.
        254    2    1    2    0    0  0.67328570630E+03 -0.21638494987E+03  0.96760454255E+02  0.11762492040E+04  0.93491364065E+03 0.  0.
        -24    2    4    4    0    0  0.82380083194E+03  0.23616911520E+02  0.22077524685E+03  0.85689515989E+03  0.79511233215E+02 0.  0.
         24    2    4    4    0    0 -0.15051512565E+03 -0.24000186139E+03 -0.12401479260E+03  0.31935404407E+03  0.79697177888E+02 0.  0.
         11    1    3    3    0    0 -0.48577570848E+02  0.27106309249E+02 -0.95023984845E+02  0.11010944595E+03  0.00000000000E+00 0.  1.
        -11    1    3    3    0    0 -0.62470813545E+03  0.18927864062E+03 -0.65954533725E+03  0.92794757943E+03  0.00000000000E+00 0. -1.
          4    1    6    6  502    0 -0.85280105376E+02 -0.73346653296E+02 -0.26575802012E+02  0.11557984762E+03  0.00000000000E+00 0. -1.
          1    1    5    5  503    0  0.17746153547E+03 -0.26445562475E+02  0.56908715939E+02  0.18823008871E+03  0.00000000000E+00 0. -1.
         -2    1    5    5    0  503  0.64633929647E+03  0.50062473995E+02  0.16386653092E+03  0.66866507118E+03  0.00000000000E+00 0.  1.
         -3    1    6    6    0  502 -0.65235020269E+02 -0.16665520809E+03 -0.97438990587E+02  0.20377419645E+03  0.00000000000E+00 0.  1.
<mgrwt>
<rscale>  0 0.21143414E+04</rscale>
<asrwt>0</asrwt>
<pdfrwt beam="1">  1        1 0.22093193E+00 0.21143414E+04</pdfrwt>
<pdfrwt beam="2">  1       -1 0.11973057E+00 0.21143414E+04</pdfrwt>
<totfact> 0.41445866E+00</totfact>
</mgrwt>
</event>
<event>
12    1  0.1472088E-007  0.2196390E+04  0.7818608E-02  0.8519932E-01
          1   -1    0    0  501    0  0.00000000000E+00  0.00000000000E+00  0.27689312552E+04  0.27689312552E+04  0.00000000000E+00 0. -1.
         -1   -1    0    0    0  501 -0.00000000000E+00 -0.00000000000E+00 -0.43555887267E+03  0.43555887267E+03  0.00000000000E+00 0.  1.
         23    2    1    2    0    0 -0.76962319259E+03  0.44653418760E+03  0.12396558900E+04  0.15287207702E+04  0.92346242247E+02 0.  0.
        254    2    1    2    0    0  0.76962319259E+03 -0.44653418760E+03  0.10937164926E+04  0.16757693577E+04  0.90569008757E+03 0.  0.
        -24    2    4    4    0    0  0.16082639595E+03 -0.41420321370E+03  0.36787477687E+02  0.45273291841E+03  0.78640606698E+02 0.  0.
         24    2    4    4    0    0  0.60879679664E+03 -0.32330973900E+02  0.10569290149E+04  0.12230364393E+04  0.83906839907E+02 0.  0.
         11    1    3    3    0    0 -0.48340237700E+03  0.31980235314E+03  0.75629897775E+03  0.95285861853E+03  0.00000000000E+00 0.  1.
        -11    1    3    3    0    0 -0.28622081558E+03  0.12673183446E+03  0.48335691220E+03  0.57586215166E+03  0.00000000000E+00 0. -1.
          2    1    6    6  502    0  0.15947994219E+03  0.28338494450E+02  0.27298472150E+03  0.31742334571E+03  0.00000000000E+00 0. -1.
          3    1    5    5  503    0  0.16966304404E+03 -0.39157236538E+03  0.31804099453E+02  0.42793219858E+03  0.00000000000E+00 0. -1.
         -4    1    5    5    0  503 -0.88366480914E+01 -0.22630848326E+02  0.49833782341E+01  0.24800719829E+02  0.00000000000E+00 0.  1.
         -1    1    6    6    0  502  0.44931685444E+03 -0.60669468350E+02  0.78394429340E+03  0.90561309356E+03  0.00000000000E+00 0.  1.
<mgrwt>
<rscale>  0 0.21963903E+04</rscale>
<asrwt>0</asrwt>
<pdfrwt beam="1">  1        1 0.42598941E+00 0.21963903E+04</pdfrwt>
<pdfrwt beam="2">  1       -1 0.67009059E-01 0.21963903E+04</pdfrwt>
<totfact> 0.18051583E+00</totfact>
</mgrwt>
</event>
<event>
12    1  0.1472088E-007  0.1270835E+04  0.7818608E-02  0.9053019E-01
         -1   -1    0    0    0  501 -0.00000000000E+00  0.00000000000E+00  0.44628339162E+03  0.44628339162E+03  0.00000000000E+00 0.  1.
          1   -1    0    0  501    0  0.00000000000E+00 -0.00000000000E+00 -0.90470566008E+03  0.90470566008E+03  0.00000000000E+00 0. -1.
         23    2    1    2    0    0  0.40151668098E+02 -0.88279456177E+02  0.19143652323E+03  0.23369702312E+03  0.92525333578E+02 0.  0.
        254    2    1    2    0    0 -0.40151668098E+02  0.88279456177E+02 -0.64985879170E+03  0.11172920286E+04  0.90367007760E+03 0.  0.
        -24    2    4    4    0    0  0.39222437145E+03  0.21079793807E+03 -0.32852367352E+03  0.55901689274E+03  0.79349568677E+02 0.  0.
         24    2    4    4    0    0 -0.43237603955E+03 -0.12251848189E+03 -0.32133511817E+03  0.55827513584E+03  0.80343332932E+02 0.  0.
         13    1    3    3    0    0  0.72597636538E+01  0.19380681622E+02  0.39593381542E+02  0.44676065744E+02  0.00000000000E+00 0. -1.
        -13    1    3    3    0    0  0.32891904444E+02 -0.10766013780E+03  0.15184314169E+03  0.18902095738E+03  0.00000000000E+00 0.  1.
          4    1    6    6  502    0 -0.34516125644E+03 -0.11454004252E+03 -0.22301101128E+03  0.42660242081E+03  0.00000000000E+00 0. -1.
          3    1    5    5  503    0  0.18388040519E+03  0.12783399144E+03 -0.20166409363E+03  0.30136678556E+03  0.00000000000E+00 0. -1.
         -4    1    5    5    0  503  0.20834396626E+03  0.82963946631E+02 -0.12685957989E+03  0.25765010718E+03  0.00000000000E+00 0.  1.
         -1    1    6    6    0  502 -0.87214783103E+02 -0.79784393757E+01 -0.98324106897E+02  0.13167271503E+03  0.00000000000E+00 0.  1.
<mgrwt>
<rscale>  0 0.12708345E+04</rscale>
<asrwt>0</asrwt>
<pdfrwt beam="1">  1        1 0.13918549E+00 0.12708345E+04</pdfrwt>
<pdfrwt beam="2">  1       -1 0.68658983E-01 0.12708345E+04</pdfrwt>
<totfact> 0.38132385E+01</totfact>
</mgrwt>
</event>
<event>
12    1  0.1472088E-007  0.1811803E+04  0.7818608E-02  0.8700048E-01
          2   -1    0    0  501    0  0.00000000000E+00  0.00000000000E+00  0.10872958249E+04  0.10872958249E+04  0.00000000000E+00 0. -1.
         -2   -1    0    0    0  501 -0.00000000000E+00 -0.00000000000E+00 -0.75476918149E+03  0.75476918149E+03  0.00000000000E+00 0.  1.
         23    2    1    2    0    0 -0.29110919192E+03 -0.52157931864E+03 -0.19878465698E+03  0.63541985430E+03  0.86333679038E+02 0.  0.
        254    2    1    2    0    0  0.29110919192E+03  0.52157931864E+03  0.53131130035E+03  0.12066451520E+04  0.90383144325E+03 0.  0.
        -24    2    4    4    0    0  0.32707031434E+03  0.63956229044E+03  0.68361886604E+03  0.99480653637E+03  0.79311896476E+02 0.  0.
         24    2    4    4    0    0 -0.35961122411E+02 -0.11798297180E+03 -0.15230756569E+03  0.21183861567E+03  0.80404107872E+02 0.  0.
         13    1    3    3    0    0 -0.17826553281E+02 -0.39275024563E+02 -0.39890296195E+02  0.58749887548E+02  0.00000000000E+00 0. -1.
        -13    1    3    3    0    0 -0.27328263864E+03 -0.48230429408E+03 -0.15889436078E+03  0.57666996676E+03  0.00000000000E+00 0.  1.
          2    1    6    6  502    0  0.15333014031E+02 -0.66926969911E+02 -0.10472047362E+03  0.12522259467E+03  0.00000000000E+00 0. -1.
          1    1    5    5  503    0  0.16416131105E+03  0.39113348554E+03  0.43270876444E+03  0.60594654416E+03  0.00000000000E+00 0. -1.
         -2    1    5    5    0  503  0.16290900328E+03  0.24842880491E+03  0.25091010160E+03  0.38885999221E+03  0.00000000000E+00 0.  1.
         -1    1    6    6    0  502 -0.51294136442E+02 -0.51056001893E+02 -0.47587092073E+02  0.86616021004E+02  0.00000000000E+00 0.  1.
<mgrwt>
<rscale>  0 0.18118028E+04</rscale>
<asrwt>0</asrwt>
<pdfrwt beam="1">  1        2 0.16727628E+00 0.18118028E+04</pdfrwt>
<pdfrwt beam="2">  1       -2 0.11611834E+00 0.18118028E+04</pdfrwt>
<totfact> 0.12050751E+01</totfact>
</mgrwt>
</event>
<event>
12    1  0.1971673E-007  0.2095708E+04  0.7818608E-02  0.8563136E-01
         -1   -1    0    0    0  501 -0.00000000000E+00  0.00000000000E+00  0.47267380091E+03  0.47267380091E+03  0.00000000000E+00 0.  1.
          1   -1    0    0  501    0  0.00000000000E+00 -0.00000000000E+00 -0.23229503426E+04  0.23229503426E+04  0.00000000000E+00 0. -1.
         23    2    1    2    0    0 -0.61051704616E+03  0.50259251983E+03 -0.11720556981E+04  0.14168200358E+04  0.91291563733E+02 0.  0.
        254    2    1    2    0    0  0.61051704616E+03 -0.50259251983E+03 -0.67822084351E+03  0.13788041077E+04  0.90320925048E+03 0.  0.
        -24    2    4    4    0    0  0.73826032017E+03 -0.50335397879E+03 -0.25925758707E+03  0.93385850658E+03  0.80521336026E+02 0.  0.
         24    2    4    4    0    0 -0.12774327400E+03  0.76145896056E+00 -0.41896325645E+03  0.44494560111E+03  0.78278054518E+02 0.  0.
         13    1    3    3    0    0 -0.28669262207E+02  0.53424522997E+02 -0.78598073422E+02  0.99266124124E+02  0.00000000000E+00 0.  1.
        -13    1    3    3    0    0 -0.58184778396E+03  0.44916799683E+03 -0.10934576247E+04  0.13175539117E+04  0.00000000000E+00 0. -1.
          4    1    6    6  502    0 -0.81398312437E+01 -0.68879205745E+00  0.10467856334E+01  0.82357177791E+01  0.00000000000E+00 0. -1.
          3    1    5    5  503    0  0.69541074129E+02 -0.25861163442E+02 -0.80992862548E+01  0.74634839072E+02  0.00000000000E+00 0. -1.
         -4    1    5    5    0  503  0.66871924604E+03 -0.47749281535E+03 -0.25115830081E+03  0.85922366750E+03  0.00000000000E+00 0.  1.
         -3    1    6    6    0  502 -0.11960344276E+03  0.14502510180E+01 -0.42001004208E+03  0.43670988333E+03  0.00000000000E+00 0.  1.
<mgrwt>
<rscale>  0 0.20957078E+04</rscale>
<asrwt>0</asrwt>
<pdfrwt beam="1">  1        1 0.35737698E+00 0.20957078E+04</pdfrwt>
<pdfrwt beam="2">  1       -1 0.72719046E-01 0.20957078E+04</pdfrwt>
<totfact> 0.31491055E+00</totfact>
</mgrwt>
</event>
<event>
12    1  0.1472088E-007  0.1578350E+04  0.7818608E-02  0.8833960E-01
         -1   -1    0    0    0  501 -0.00000000000E+00  0.00000000000E+00  0.19484084201E+03  0.19484084201E+03  0.00000000000E+00 0.  1.
          1   -1    0    0  501    0  0.00000000000E+00 -0.00000000000E+00 -0.31964419797E+04  0.31964419797E+04  0.00000000000E+00 0. -1.
         23    2    1    2    0    0  0.49478203393E+03  0.12124171959E+03 -0.68658914646E+03  0.85958501641E+03  0.89291257886E+02 0.  0.
        254    2    1    2    0    0 -0.49478203393E+03 -0.12124171959E+03 -0.23150119912E+04  0.25316978053E+04  0.88921563310E+03 0.  0.
        -24    2    4    4    0    0 -0.45007336060E+03 -0.28260005652E+03 -0.22806793414E+04  0.23431181183E+04  0.79217651798E+02 0.  0.
         24    2    4    4    0    0 -0.44708673323E+02  0.16135833693E+03 -0.34332649855E+02  0.18857968698E+03  0.79675524027E+02 0.  0.
         11    1    3    3    0    0  0.20987062273E+03  0.40837043475E+02 -0.21825050332E+03  0.30552679850E+03  0.00000000000E+00 0. -1.
        -11    1    3    3    0    0  0.28491141120E+03  0.80404676114E+02 -0.46833864314E+03  0.55405821791E+03  0.00000000000E+00 0.  1.
          4    1    6    6  502    0 -0.18320522119E+02  0.15361966310E+03 -0.16008420181E+02  0.15553427898E+03  0.00000000000E+00 0. -1.
          1    1    5    5  503    0 -0.32554757170E+03 -0.20547277283E+03 -0.14862341671E+04  0.15352824760E+04  0.00000000000E+00 0. -1.
         -2    1    5    5    0  503 -0.12452578891E+03 -0.77127283687E+02 -0.79444517430E+03  0.80783564229E+03  0.00000000000E+00 0.  1.
         -3    1    6    6    0  502 -0.26388151205E+02  0.77386738273E+01 -0.18324229674E+02  0.33045407998E+02  0.00000000000E+00 0.  1.
<mgrwt>
<rscale>  0 0.15783503E+04</rscale>
<asrwt>0</asrwt>
<pdfrwt beam="1">  1        1 0.49176025E+00 0.15783503E+04</pdfrwt>
<pdfrwt beam="2">  1       -1 0.29975518E-01 0.15783503E+04</pdfrwt>
<totfact> 0.42301346E+00</totfact>
</mgrwt>
</event>
<event>
12    1  0.1472088E-007  0.2654730E+04  0.7818608E-02  0.8349845E-01
          1   -1    0    0  501    0  0.00000000000E+00  0.00000000000E+00  0.78859603315E+03  0.78859603315E+03  0.00000000000E+00 0.  1.
         -1   -1    0    0    0  501 -0.00000000000E+00 -0.00000000000E+00 -0.22342217998E+04  0.22342217998E+04  0.00000000000E+00 0. -1.
         23    2    1    2    0    0 -0.10017338857E+04 -0.18694681486E+02 -0.13475014751E+04  0.16829958761E+04  0.11355450088E+03 0.  0.
        254    2    1    2    0    0  0.10017338857E+04  0.18694681486E+02 -0.98124291513E+02  0.13398219568E+04  0.88412342493E+03 0.  0.
        -24    2    4    4    0    0  0.59189592423E+03 -0.31090350953E+03  0.23381138029E+03  0.71273549769E+03  0.79513211188E+02 0.  0.
         24    2    4    4    0    0  0.40983796147E+03  0.32959819102E+03 -0.33193567180E+03  0.62708645913E+03  0.80336883374E+02 0.  0.
         11    1    3    3    0    0 -0.94355571594E+03 -0.37136452159E+02 -0.12308561623E+04  0.15513488961E+04  0.00000000000E+00 0. -1.
        -11    1    3    3    0    0 -0.58178169768E+02  0.18441770673E+02 -0.11664531282E+03  0.13164698001E+03  0.00000000000E+00 0.  1.
          2    1    6    6  502    0  0.35528595204E+03  0.31548070939E+03 -0.28774181623E+03  0.55547415648E+03  0.00000000000E+00 0. -1.
          1    1    5    5  503    0  0.54676031151E+03 -0.29091309799E+03  0.19307601458E+03  0.64873385624E+03  0.00000000000E+00 0. -1.
         -2    1    5    5    0  503  0.45135612725E+02 -0.19990411546E+02  0.40735365703E+02  0.64001641454E+02  0.00000000000E+00 0.  1.
         -1    1    6    6    0  502  0.54552009436E+02  0.14117481625E+02 -0.44193855564E+02  0.71612302649E+02  0.00000000000E+00 0.  1.
<mgrwt>
<rscale>  0 0.26547305E+04</rscale>
<asrwt>0</asrwt>
<pdfrwt beam="1">  1        1 0.12132247E+00 0.26547305E+04</pdfrwt>
<pdfrwt beam="2">  1       -1 0.34372643E+00 0.26547305E+04</pdfrwt>
<totfact> 0.33908485E-01</totfact>
</mgrwt>
</event>
<event>
12    1  0.1472088E-007  0.1590610E+04  0.7818608E-02  0.8826338E-01
          1   -1    0    0  501    0  0.00000000000E+00  0.00000000000E+00  0.16874430573E+04  0.16874430573E+04  0.00000000000E+00 0. -1.
         -1   -1    0    0    0  501 -0.00000000000E+00 -0.00000000000E+00 -0.37483330895E+03  0.37483330895E+03  0.00000000000E+00 0.  1.
         23    2    1    2    0    0  0.36548066156E+03  0.28332776733E+03  0.92132489493E+02  0.47848421568E+03  0.81289675323E+02 0.  0.
        254    2    1    2    0    0 -0.36548066156E+03 -0.28332776733E+03  0.12204772589E+04  0.15837921506E+04  0.89720794644E+03 0.  0.
        -24    2    4    4    0    0 -0.19760078791E+03  0.27099378232E+03  0.17636287317E+03  0.38708482761E+03  0.79038593699E+02 0.  0.
         24    2    4    4    0    0 -0.16787987366E+03 -0.55432154965E+03  0.10441143857E+04  0.11967073230E+04  0.80483129087E+02 0.  0.
         13    1    3    3    0    0  0.14997646735E+01 -0.35977710929E+01 -0.35090437431E+01  0.52446771973E+01  0.00000000000E+00 0. -1.
        -13    1    3    3    0    0  0.36398089689E+03  0.28692553842E+03  0.95641533236E+02  0.47323953848E+03  0.00000000000E+00 0.  1.
          2    1    6    6  502    0 -0.10071901105E+03 -0.27419691452E+03  0.60036365134E+03  0.66765618470E+03  0.00000000000E+00 0. -1.
          3    1    5    5  503    0 -0.46884800133E+02  0.33758179487E+02  0.58777537526E+02  0.82417219581E+02  0.00000000000E+00 0. -1.
         -4    1    5    5    0  503 -0.15071598777E+03  0.23723560284E+03  0.11758533564E+03  0.30466760803E+03  0.00000000000E+00 0.  1.
         -1    1    6    6    0  502 -0.67160862611E+02 -0.28012463513E+03  0.44375073438E+03  0.52905113830E+03  0.00000000000E+00 0.  1.
<mgrwt>
<rscale>  0 0.15906098E+04</rscale>
<asrwt>0</asrwt>
<pdfrwt beam="1">  1        1 0.25960662E+00 0.15906098E+04</pdfrwt>
<pdfrwt beam="2">  1       -1 0.57666664E-01 0.15906098E+04</pdfrwt>
<totfact> 0.14218225E+01</totfact>
</mgrwt>
</event>
<event>
12    1  0.1472088E-007  0.1556920E+04  0.7818608E-02  0.8847459E-01
         -2   -1    0    0    0  501 -0.00000000000E+00  0.00000000000E+00  0.52433220892E+03  0.52433220892E+03  0.00000000000E+00 0.  1.
          2   -1    0    0  501    0  0.00000000000E+00 -0.00000000000E+00 -0.11557564563E+04  0.11557564563E+04  0.00000000000E+00 0. -1.
         23    2    1    2    0    0 -0.51618505679E+03 -0.18742067769E+01 -0.20669569902E+03  0.56381521049E+03  0.93348562304E+02 0.  0.
        254    2    1    2    0    0  0.51618505679E+03  0.18742067769E+01 -0.42472854834E+03  0.11162734547E+04  0.89399192414E+03 0.  0.
        -24    2    4    4    0    0  0.74356836685E+02 -0.38818579715E+03 -0.33627054956E+02  0.40448498738E+03  0.79121260870E+02 0.  0.
         24    2    4    4    0    0  0.44182822010E+03  0.39006000393E+03 -0.39110149339E+03  0.71178846733E+03  0.79520194644E+02 0.  0.
         13    1    3    3    0    0 -0.30384801496E+03  0.10320513368E+02 -0.16892223069E+03  0.34780001325E+03  0.00000000000E+00 0.  1.
        -13    1    3    3    0    0 -0.21233704182E+03 -0.12194720145E+02 -0.37773468330E+02  0.21601519724E+03  0.00000000000E+00 0. -1.
          4    1    6    6  502    0  0.94553231323E+02  0.12376915156E+03 -0.12409727390E+03  0.19914630255E+03  0.00000000000E+00 0. -1.
          1    1    5    5  503    0 -0.10748711493E+02 -0.59254124341E+02 -0.23280158347E+02  0.64564323143E+02  0.00000000000E+00 0. -1.
         -2    1    5    5    0  503  0.85105548178E+02 -0.32893167281E+03 -0.10346896609E+02  0.33992066424E+03  0.00000000000E+00 0.  1.
         -3    1    6    6    0  502  0.34727498878E+03  0.26629085237E+03 -0.26700421949E+03  0.51264216478E+03  0.00000000000E+00 0.  1.
<mgrwt>
<rscale>  0 0.15569205E+04</rscale>
<asrwt>0</asrwt>
<pdfrwt beam="1">  1        2 0.17780869E+00 0.15569205E+04</pdfrwt>
<pdfrwt beam="2">  1       -2 0.80666493E-01 0.15569205E+04</pdfrwt>
<totfact> 0.26291347E+01</totfact>
</mgrwt>
</event>
<event>
12    1  0.1472088E-007  0.1757391E+04  0.7818608E-02  0.8729292E-01
          2   -1    0    0  501    0  0.00000000000E+00  0.00000000000E+00  0.11425865451E+04  0.11425865451E+04  0.00000000000E+00 0. -1.
         -2   -1    0    0    0  501 -0.00000000000E+00 -0.00000000000E+00 -0.67575286204E+03  0.67575286204E+03  0.00000000000E+00 0.  1.
         23    2    1    2    0    0 -0.13976196153E+03 -0.41422098376E+03 -0.31705101799E+03  0.54749460699E+03  0.90091994105E+02 0.  0.
        254    2    1    2    0    0  0.13976196153E+03  0.41422098376E+03  0.78388470103E+03  0.12708448001E+04  0.89969931212E+03 0.  0.
        -24    2    4    4    0    0  0.69166104559E+02  0.67952133989E+03  0.67427500830E+03  0.96289242841E+03  0.77342358856E+02 0.  0.
         24    2    4    4    0    0  0.70595856971E+02 -0.26530035613E+03  0.10960969273E+03  0.30795237172E+03  0.86326847063E+02 0.  0.
         13    1    3    3    0    0 -0.25247879459E+02 -0.12197576446E+02 -0.15264075796E+02  0.31925355100E+02  0.00000000000E+00 0. -1.
        -13    1    3    3    0    0 -0.11451408207E+03 -0.40202340732E+03 -0.30178694219E+03  0.51556925189E+03  0.00000000000E+00 0.  1.
          4    1    6    6  502    0  0.76110564690E+02 -0.19087209261E+03  0.47618746196E+02  0.21093249817E+03  0.00000000000E+00 0. -1.
          1    1    5    5  503    0  0.37109075314E+02  0.35817939082E+03  0.40932991973E+03  0.54517936742E+03  0.00000000000E+00 0. -1.
         -2    1    5    5    0  503  0.32057029244E+02  0.32134194907E+03  0.26494508858E+03  0.41771306098E+03  0.00000000000E+00 0.  1.
         -3    1    6    6    0  502 -0.55147077187E+01 -0.74428263520E+02  0.61990946532E+02  0.97019873551E+02  0.00000000000E+00 0.  1.
<mgrwt>
<rscale>  0 0.17573914E+04</rscale>
<asrwt>0</asrwt>
<pdfrwt beam="1">  1        2 0.17578255E+00 0.17573914E+04</pdfrwt>
<pdfrwt beam="2">  1       -2 0.10396198E+00 0.17573914E+04</pdfrwt>
<totfact> 0.14631851E+01</totfact>
</mgrwt>
</event>
<event>
12    1  0.1472088E-007  0.1317360E+04  0.7818608E-02  0.9015911E-01
          1   -1    0    0  501    0  0.00000000000E+00  0.00000000000E+00  0.48916087101E+03  0.48916087101E+03  0.00000000000E+00 0. -1.
         -1   -1    0    0    0  501 -0.00000000000E+00 -0.00000000000E+00 -0.88694623140E+03  0.88694623140E+03  0.00000000000E+00 0.  1.
         23    2    1    2    0    0  0.26553185606E+03  0.10539115061E+03  0.19536405104E+02  0.30148789548E+03  0.94333550695E+02 0.  0.
        254    2    1    2    0    0 -0.26553185606E+03 -0.10539115061E+03 -0.41732176550E+03  0.10746192069E+04  0.94817431031E+03 0.  0.
        -24    2    4    4    0    0 -0.25355846364E+03  0.29471878476E+03 -0.52001990155E+03  0.65370181220E+03  0.75857133384E+02 0.  0.
         24    2    4    4    0    0 -0.11973392412E+02 -0.40010993537E+03  0.10269813606E+03  0.42091739473E+03  0.79957635859E+02 0.  0.
         11    1    3    3    0    0  0.88798120732E+02  0.61529540671E+02 -0.31216716063E+02  0.11245209639E+03  0.00000000000E+00 0.  1.
        -11    1    3    3    0    0  0.17673373532E+03  0.43861609941E+02  0.50753121167E+02  0.18903579909E+03  0.00000000000E+00 0. -1.
          4    1    6    6  502    0 -0.33268462995E+01 -0.14864241553E+03  0.78526408872E+02  0.16814289307E+03  0.00000000000E+00 0. -1.
          1    1    5    5  503    0 -0.17417891442E+03  0.21350366085E+03 -0.42030900961E+03  0.50257513964E+03  0.00000000000E+00 0. -1.
         -2    1    5    5    0  503 -0.79379549225E+02  0.81215123903E+02 -0.99710891941E+02  0.15112667255E+03  0.00000000000E+00 0.  1.
         -3    1    6    6    0  502 -0.86465461129E+01 -0.25146751984E+03  0.24171727184E+02  0.25277450166E+03  0.00000000000E+00 0.  1.
<mgrwt>
<rscale>  0 0.13173601E+04</rscale>
<asrwt>0</asrwt>
<pdfrwt beam="1">  1        1 0.75255520E-01 0.13173601E+04</pdfrwt>
<pdfrwt beam="2">  1       -1 0.13645326E+00 0.13173601E+04</pdfrwt>
<totfact> 0.20092363E+01</totfact>
</mgrwt>
</event>
<event>
12    1  0.1472088E-007  0.3774185E+04  0.7818608E-02  0.8051717E-01
          2   -1    0    0  501    0  0.00000000000E+00  0.00000000000E+00  0.27759614518E+04  0.27759614518E+04  0.00000000000E+00 0. -1.
         -2   -1    0    0    0  501 -0.00000000000E+00 -0.00000000000E+00 -0.12828416468E+04  0.12828416468E+04  0.00000000000E+00 0.  1.
         23    2    1    2    0    0 -0.48785609972E+03 -0.15077227491E+04  0.15746933661E+04  0.22358739648E+04  0.90783958545E+02 0.  0.
        254    2    1    2    0    0  0.48785609972E+03  0.15077227491E+04 -0.81573561026E+02  0.18229291338E+04  0.89732096765E+03 0.  0.
        -24    2    4    4    0    0  0.10453293219E+03  0.34211352396E+03 -0.41019845760E+03  0.55009899707E+03  0.79858216726E+02 0.  0.
         24    2    4    4    0    0  0.38332316753E+03  0.11656092251E+04  0.32862489657E+03  0.12728301367E+04  0.80750962457E+02 0.  0.
         13    1    3    3    0    0 -0.39266972063E+03 -0.12954080902E+04  0.13150013277E+04  0.18871937160E+04  0.00000000000E+00 0. -1.
        -13    1    3    3    0    0 -0.95186379084E+02 -0.21231465889E+03  0.25969203831E+03  0.34868024880E+03  0.00000000000E+00 0.  1.
          4    1    6    6  502    0  0.38550327390E+03  0.11356856825E+04  0.31587461220E+03  0.12402304279E+04  0.00000000000E+00 0. -1.
          1    1    5    5  503    0  0.11205160757E+01  0.13263810775E+03 -0.15895449277E+03  0.20702814774E+03  0.00000000000E+00 0. -1.
         -2    1    5    5    0  503  0.10341241611E+03  0.20947541621E+03 -0.25124396482E+03  0.34307084933E+03  0.00000000000E+00 0.  1.
         -3    1    6    6    0  502 -0.21801063741E+01  0.29923542566E+02  0.12750284373E+02  0.32599708820E+02  0.00000000000E+00 0.  1.
<mgrwt>
<rscale>  0 0.37741855E+04</rscale>
<asrwt>0</asrwt>
<pdfrwt beam="1">  1        2 0.42707099E+00 0.37741855E+04</pdfrwt>
<pdfrwt beam="2">  1       -2 0.19736025E+00 0.37741855E+04</pdfrwt>
<totfact> 0.26589187E-01</totfact>
</mgrwt>
</event>
<event>
12    1  0.2316364E-007  0.1692537E+04  0.7818608E-02  0.8765632E-01
          2   -1    0    0  501    0  0.00000000000E+00  0.00000000000E+00  0.19681313077E+04  0.19681313077E+04  0.00000000000E+00 0. -1.
         -2   -1    0    0    0  501 -0.00000000000E+00 -0.00000000000E+00 -0.36388356584E+03  0.36388356584E+03  0.00000000000E+00 0.  1.
         23    2    1    2    0    0  0.28760509760E+03  0.35556351225E+03  0.85917345342E+03  0.97757381417E+03  0.91265742120E+02 0.  0.
        254    2    1    2    0    0 -0.28760509760E+03 -0.35556351225E+03  0.74507428847E+03  0.13544410594E+04  0.10345205578E+04 0.  0.
        -24    2    4    4    0    0  0.26419456865E+03 -0.32212543998E+03  0.13764661715E+01  0.42425916013E+03  0.80189594770E+02 0.  0.
         24    2    4    4    0    0 -0.55179966625E+03 -0.33438072273E+02  0.74369782229E+03  0.93018189926E+03  0.80937867987E+02 0.  0.
         13    1    3    3    0    0  0.30005705975E+02  0.93136639450E+02  0.20409466322E+03  0.22633914277E+03  0.00000000000E+00 0.  1.
        -13    1    3    3    0    0  0.25759939163E+03  0.26242687280E+03  0.65507879020E+03  0.75123467140E+03  0.00000000000E+00 0. -1.
          4    1    6    6  502    0 -0.50688818154E+03 -0.17783785964E+02  0.70696489620E+03  0.87008692444E+03  0.00000000000E+00 0. -1.
          3    1    5    5  503    0  0.20173938804E+03 -0.27497661724E+03 -0.24279249659E+02  0.34190700882E+03  0.00000000000E+00 0. -1.
         -4    1    5    5    0  503  0.62455180610E+02 -0.47148822738E+02  0.25655715831E+02  0.82352151310E+02  0.00000000000E+00 0.  1.
         -3    1    6    6    0  502 -0.44911484714E+02 -0.15654286309E+02  0.36732926096E+02  0.60094974820E+02  0.00000000000E+00 0.  1.
<mgrwt>
<rscale>  0 0.16925373E+04</rscale>
<asrwt>0</asrwt>
<pdfrwt beam="1">  1        2 0.30278943E+00 0.16925373E+04</pdfrwt>
<pdfrwt beam="2">  1       -2 0.55982088E-01 0.16925373E+04</pdfrwt>
<totfact> 0.19855799E+01</totfact>
</mgrwt>
</event>
<event>
12    1  0.1479512E-007  0.2485183E+04  0.7818608E-02  0.8408283E-01
          1   -1    0    0  501    0  0.00000000000E+00  0.00000000000E+00  0.27361300447E+04  0.27361300447E+04  0.00000000000E+00 0. -1.
         -1   -1    0    0    0  501 -0.00000000000E+00 -0.00000000000E+00 -0.56431297650E+03  0.56431297650E+03  0.00000000000E+00 0.  1.
         23    2    1    2    0    0  0.10654043398E+03 -0.93604907807E+03  0.16455406634E+04  0.18985924760E+04  0.96491318073E+02 0.  0.
        254    2    1    2    0    0 -0.10654043398E+03  0.93604907807E+03  0.52627640476E+03  0.14018505451E+04  0.89480688199E+03 0.  0.
        -24    2    4    4    0    0 -0.42646023251E+02 -0.44374521785E+02  0.39612105987E+03  0.40758512302E+03  0.73661095245E+02 0.  0.
         24    2    4    4    0    0 -0.63894410729E+02  0.98042359985E+03  0.13015534489E+03  0.99426542212E+03  0.79437931364E+02 0.  0.
         13    1    3    3    0    0  0.52507721254E+02 -0.61577667818E+03  0.99134533871E+03  0.11682052725E+04  0.00000000000E+00 0. -1.
        -13    1    3    3    0    0  0.54032712726E+02 -0.32027239989E+03  0.65419532469E+03  0.73038720349E+03  0.00000000000E+00 0.  1.
          4    1    6    6  502    0 -0.71247951061E+02  0.91159309136E+03  0.10400789548E+03  0.92026945894E+03  0.00000000000E+00 0. -1.
          3    1    5    5  503    0 -0.20244535131E+02 -0.46318959321E+02  0.36858207094E+03  0.37203229728E+03  0.00000000000E+00 0. -1.
         -4    1    5    5    0  503 -0.22401488120E+02  0.19444375361E+01  0.27538988924E+02  0.35552825742E+02  0.00000000000E+00 0.  1.
         -3    1    6    6    0  502  0.73535403320E+01  0.68830508497E+02  0.26147449410E+02  0.73995963174E+02  0.00000000000E+00 0.  1.
<mgrwt>
<rscale>  0 0.24851830E+04</rscale>
<asrwt>0</asrwt>
<pdfrwt beam="1">  1        1 0.42094307E+00 0.24851830E+04</pdfrwt>
<pdfrwt beam="2">  1       -1 0.86817383E-01 0.24851830E+04</pdfrwt>
<totfact> 0.10758648E+00</totfact>
</mgrwt>
</event>
<event>
12    1  0.1472088E-007  0.1440446E+04  0.7818608E-02  0.8925051E-01
         -2   -1    0    0    0  501 -0.00000000000E+00  0.00000000000E+00  0.46491046858E+03  0.46491046858E+03  0.00000000000E+00 0.  1.
          2   -1    0    0  501    0  0.00000000000E+00 -0.00000000000E+00 -0.11157448145E+04  0.11157448145E+04  0.00000000000E+00 0. -1.
         23    2    1    2    0    0  0.18373526494E+03 -0.21781312119E+03 -0.56089838459E+03  0.63572131629E+03  0.91287407635E+02 0.  0.
        254    2    1    2    0    0 -0.18373526494E+03  0.21781312119E+03 -0.89935961347E+02  0.94493396682E+03  0.89644326154E+03 0.  0.
        -24    2    4    4    0    0  0.31745051613E+03 -0.97034787735E+02 -0.67493353672E+02  0.34738342058E+03  0.77001999211E+02 0.  0.
         24    2    4    4    0    0 -0.50118578108E+03  0.31484790892E+03 -0.22442607675E+02  0.59755054623E+03  0.79035382947E+02 0.  0.
         11    1    3    3    0    0  0.37010656862E+02 -0.67137467226E+02 -0.79779460018E+02  0.11064352881E+03  0.00000000000E+00 0.  1.
        -11    1    3    3    0    0  0.14672460808E+03 -0.15067565396E+03 -0.48111892458E+03  0.52507778747E+03  0.00000000000E+00 0. -1.
          2    1    6    6  502    0 -0.26459897961E+03  0.12006897881E+03 -0.51625693986E+01  0.29061285554E+03  0.00000000000E+00 0. -1.
          1    1    5    5  503    0  0.17480479128E+03 -0.26710750675E+02 -0.62001158651E+01  0.17694242197E+03  0.00000000000E+00 0. -1.
         -2    1    5    5    0  503  0.14264572485E+03 -0.70324037059E+02 -0.61293237807E+02  0.17044099861E+03  0.00000000000E+00 0.  1.
         -1    1    6    6    0  502 -0.23658680146E+03  0.19477893011E+03 -0.17280038277E+02  0.30693769069E+03  0.00000000000E+00 0.  1.
<mgrwt>
<rscale>  0 0.14404464E+04</rscale>
<asrwt>0</asrwt>
<pdfrwt beam="1">  1        2 0.17165304E+00 0.14404464E+04</pdfrwt>
<pdfrwt beam="2">  1       -2 0.71524689E-01 0.14404464E+04</pdfrwt>
<totfact> 0.36666705E+01</totfact>
</mgrwt>
</event>
<event>
12    1  0.1472088E-007  0.1082250E+04  0.7818608E-02  0.9222667E-01
          2   -1    0    0  501    0  0.00000000000E+00  0.00000000000E+00  0.59263131158E+03  0.59263131158E+03  0.00000000000E+00 0. -1.
         -2   -1    0    0    0  501 -0.00000000000E+00 -0.00000000000E+00 -0.49409480214E+03  0.49409480214E+03  0.00000000000E+00 0.  1.
         23    2    1    2    0    0  0.13381987719E+03  0.12678083186E+01 -0.30941064548E+01  0.16582770733E+03  0.97876903067E+02 0.  0.
        254    2    1    2    0    0 -0.13381987719E+03 -0.12678083186E+01  0.10163061589E+03  0.92089840639E+03  0.90543675977E+03 0.  0.
        -24    2    4    4    0    0 -0.28254319750E+03  0.91753085435E+02 -0.32822651507E+03  0.44983946524E+03  0.79834905594E+02 0.  0.
         24    2    4    4    0    0  0.14872332031E+03 -0.93020893754E+02  0.42985713096E+03  0.47105894116E+03  0.79673460646E+02 0.  0.
         13    1    3    3    0    0  0.11564021637E+03  0.75667410365E+01 -0.41319460384E+02  0.12303338172E+03  0.00000000000E+00 0.  1.
        -13    1    3    3    0    0  0.18179660820E+02 -0.62989327179E+01  0.38225353929E+02  0.42794325604E+02  0.00000000000E+00 0. -1.
          2    1    6    6  502    0  0.15419360904E+03 -0.80898901988E+02  0.35943213727E+03  0.39938923710E+03  0.00000000000E+00 0. -1.
          3    1    5    5  503    0 -0.17667308845E+03  0.27658920467E+02 -0.15318376527E+03  0.23546477869E+03  0.00000000000E+00 0. -1.
         -4    1    5    5    0  503 -0.10587010905E+03  0.64094164969E+02 -0.17504274980E+03  0.21437468654E+03  0.00000000000E+00 0.  1.
         -3    1    6    6    0  502 -0.54702887333E+01 -0.12121991766E+02  0.70424993693E+02  0.71669704058E+02  0.00000000000E+00 0.  1.
<mgrwt>
<rscale>  0 0.10822496E+04</rscale>
<asrwt>0</asrwt>
<pdfrwt beam="1">  1        2 0.91174048E-01 0.10822496E+04</pdfrwt>
<pdfrwt beam="2">  1       -2 0.76014585E-01 0.10822496E+04</pdfrwt>
<totfact> 0.77599227E+01</totfact>
</mgrwt>
</event>
<event>
12    1  0.1472088E-007  0.1718775E+04  0.7818608E-02  0.8750728E-01
          1   -1    0    0  501    0  0.00000000000E+00  0.00000000000E+00  0.95996630465E+03  0.95996630465E+03  0.00000000000E+00 0. -1.
         -1   -1    0    0    0  501 -0.00000000000E+00 -0.00000000000E+00 -0.76934677382E+03  0.76934677382E+03  0.00000000000E+00 0.  1.
         23    2    1    2    0    0 -0.90873383313E+01 -0.52354512385E+03 -0.26957488118E+03  0.59652681063E+03  0.94823746075E+02 0.  0.
        254    2    1    2    0    0  0.90873383313E+01  0.52354512385E+03  0.46019441202E+03  0.11327862678E+04  0.89288507398E+03 0.  0.
        -24    2    4    4    0    0 -0.30225516390E+03  0.49446680396E+03  0.54453493238E+03  0.79889991335E+03  0.76597484600E+02 0.  0.
         24    2    4    4    0    0  0.31134250223E+03  0.29078319888E+02 -0.84340520356E+02  0.33388635449E+03  0.81160778454E+02 0.  0.
         13    1    3    3    0    0 -0.99005362049E+01 -0.48822096072E+02 -0.58938904103E+02  0.77171316555E+02  0.00000000000E+00 0. -1.
        -13    1    3    3    0    0  0.81319787362E+00 -0.47472302777E+03 -0.21063597708E+03  0.51935549408E+03  0.00000000000E+00 0.  1.
          2    1    6    6  502    0  0.28394519905E+02 -0.21451849373E+02 -0.11085101227E+02  0.37273449952E+02  0.00000000000E+00 0. -1.
          1    1    5    5  503    0 -0.14602314352E+03  0.17860886308E+03  0.24355234656E+03  0.33547224912E+03  0.00000000000E+00 0. -1.
         -2    1    5    5    0  503 -0.15623202038E+03  0.31585794087E+03  0.30098258582E+03  0.46342766423E+03  0.00000000000E+00 0.  1.
         -1    1    6    6    0  502  0.28294798233E+03  0.50530169260E+02 -0.73255419129E+02  0.29661290454E+03  0.00000000000E+00 0.  1.
<mgrwt>
<rscale>  0 0.17187751E+04</rscale>
<asrwt>0</asrwt>
<pdfrwt beam="1">  1        1 0.14768712E+00 0.17187751E+04</pdfrwt>
<pdfrwt beam="2">  1       -1 0.11836104E+00 0.17187751E+04</pdfrwt>
<totfact> 0.99018543E+00</totfact>
</mgrwt>
</event>
<event>
12    1  0.1472088E-007  0.2024404E+04  0.7818608E-02  0.8595295E-01
          1   -1    0    0  501    0  0.00000000000E+00  0.00000000000E+00  0.15546335267E+04  0.15546335267E+04  0.00000000000E+00 0. -1.
         -1   -1    0    0    0  501 -0.00000000000E+00 -0.00000000000E+00 -0.65903191250E+03  0.65903191250E+03  0.00000000000E+00 0.  1.
         23    2    1    2    0    0 -0.16579167257E+03  0.40076034176E+03  0.11066437584E+04  0.11921083159E+04  0.91466380142E+02 0.  0.
        254    2    1    2    0    0  0.16579167257E+03 -0.40076034176E+03 -0.21104214422E+03  0.10215571232E+04  0.90052453559E+03 0.  0.
        -24    2    4    4    0    0  0.19246975741E+03  0.25417771704E+03 -0.19090694899E+01  0.32879942170E+03  0.80339876772E+02 0.  0.
         24    2    4    4    0    0 -0.26678084842E+02 -0.65493805880E+03 -0.20913307473E+03  0.69275770155E+03  0.80752764851E+02 0.  0.
         11    1    3    3    0    0 -0.16460084983E+03  0.31848998185E+03  0.94520687353E+03  0.10109131229E+04  0.00000000000E+00 0. -1.
        -11    1    3    3    0    0 -0.11908227408E+01  0.82270359912E+02  0.16143688484E+03  0.18119519300E+03  0.00000000000E+00 0.  1.
          4    1    6    6  502    0 -0.95151010803E+00 -0.25530361437E+02  0.74819046527E+01  0.26621112370E+02  0.00000000000E+00 0. -1.
          1    1    5    5  503    0  0.12315026490E+03  0.14799250610E+03 -0.39491842953E+02  0.19653848291E+03  0.00000000000E+00 0. -1.
         -2    1    5    5    0  503  0.69319492513E+02  0.10618521095E+03  0.37582773463E+02  0.13226093878E+03  0.00000000000E+00 0.  1.
         -3    1    6    6    0  502 -0.25726574734E+02 -0.62940769737E+03 -0.21661497938E+03  0.66613658918E+03  0.00000000000E+00 0.  1.
<mgrwt>
<rscale>  0 0.20244042E+04</rscale>
<asrwt>0</asrwt>
<pdfrwt beam="1">  1        1 0.23917439E+00 0.20244042E+04</pdfrwt>
<pdfrwt beam="2">  1       -1 0.10138953E+00 0.20244042E+04</pdfrwt>
<totfact> 0.51250288E+00</totfact>
</mgrwt>
</event>
<event>
12    1  0.1472088E-007  0.1815787E+04  0.7818608E-02  0.8697949E-01
         -2   -1    0    0    0  501 -0.00000000000E+00  0.00000000000E+00  0.55890329085E+03  0.55890329085E+03  0.00000000000E+00 0.  1.
          2   -1    0    0  501    0  0.00000000000E+00 -0.00000000000E+00 -0.14747999838E+04  0.14747999838E+04  0.00000000000E+00 0. -1.
         23    2    1    2    0    0  0.24219676149E+03  0.32133886281E+03 -0.95424313694E+03  0.10398909398E+04  0.94208631357E+02 0.  0.
        254    2    1    2    0    0 -0.24219676149E+03 -0.32133886281E+03  0.38346444010E+02  0.99381233484E+03  0.90789568293E+03 0.  0.
        -24    2    4    4    0    0 -0.42674400427E+03 -0.60794520469E+02 -0.29276903064E+03  0.52718132162E+03  0.80000135401E+02 0.  0.
         24    2    4    4    0    0  0.18454724278E+03 -0.26054434234E+03  0.33111547465E+03  0.46663101321E+03  0.78523918600E+02 0.  0.
         11    1    3    3    0    0  0.25092592029E+03  0.31326284332E+03 -0.92556021655E+03  0.10088404933E+04  0.00000000000E+00 0. -1.
        -11    1    3    3    0    0 -0.87291588058E+01  0.80760194976E+01 -0.28682920388E+02  0.31050446476E+02  0.00000000000E+00 0.  1.
          2    1    6    6  502    0  0.54645291032E+01 -0.22877979032E+02  0.58505750691E+02  0.63057004899E+02  0.00000000000E+00 0. -1.
          3    1    5    5  503    0 -0.21489381697E+01 -0.21927690947E+01 -0.17531994115E+02  0.17798791790E+02  0.00000000000E+00 0. -1.
         -4    1    5    5    0  503 -0.42459506610E+03 -0.58601751374E+02 -0.27523703653E+03  0.50938252983E+03  0.00000000000E+00 0.  1.
         -1    1    6    6    0  502  0.17908271368E+03 -0.23766636331E+03  0.27260972396E+03  0.40357400831E+03  0.00000000000E+00 0.  1.
<mgrwt>
<rscale>  0 0.18157870E+04</rscale>
<asrwt>0</asrwt>
<pdfrwt beam="1">  1        2 0.22689230E+00 0.18157870E+04</pdfrwt>
<pdfrwt beam="2">  1       -2 0.85985124E-01 0.18157870E+04</pdfrwt>
<totfact> 0.14516488E+01</totfact>
</mgrwt>
</event>
<event>
12    1  0.1472088E-007  0.1872102E+04  0.7818608E-02  0.8668869E-01
         -2   -1    0    0    0  501 -0.00000000000E+00  0.00000000000E+00  0.46862194927E+03  0.46862194927E+03  0.00000000000E+00 0.  1.
          2   -1    0    0  501    0  0.00000000000E+00 -0.00000000000E+00 -0.18697190607E+04  0.18697190607E+04  0.00000000000E+00 0. -1.
         23    2    1    2    0    0  0.40736524183E+03 -0.45238299571E+03 -0.67113897399E+02  0.61914216813E+03  0.90752047223E+02 0.  0.
        254    2    1    2    0    0 -0.40736524183E+03  0.45238299571E+03 -0.13339832140E+04  0.17191988418E+04  0.89751692316E+03 0.  0.
        -24    2    4    4    0    0 -0.48805262748E+02  0.35632546778E+03 -0.40059495080E+02  0.37069836027E+03  0.80391034953E+02 0.  0.
         24    2    4    4    0    0 -0.35855997908E+03  0.96057527929E+02 -0.12939237189E+04  0.13485004815E+04  0.80141444013E+02 0.  0.
         11    1    3    3    0    0  0.84324671570E+02 -0.97064820379E+02 -0.51985120504E+02  0.13868915727E+03  0.00000000000E+00 0. -1.
        -11    1    3    3    0    0  0.32304057026E+03 -0.35531817533E+03 -0.15128776895E+02  0.48045301086E+03  0.00000000000E+00 0.  1.
          4    1    6    6  502    0 -0.50058994342E+02  0.25732398130E+02 -0.30628570623E+03  0.31141450363E+03  0.00000000000E+00 0. -1.
          1    1    5    5  503    0  0.78153201676E+01  0.14136560015E+02  0.11796059291E+02  0.20001714256E+02  0.00000000000E+00 0. -1.
         -2    1    5    5    0  503 -0.56620582916E+02  0.34218890776E+03 -0.51855554371E+02  0.35069664601E+03  0.00000000000E+00 0.  1.
         -3    1    6    6    0  502 -0.30850098474E+03  0.70325129799E+02 -0.98763801267E+03  0.10370859779E+04  0.00000000000E+00 0.  1.
<mgrwt>
<rscale>  0 0.18721019E+04</rscale>
<asrwt>0</asrwt>
<pdfrwt beam="1">  1        2 0.28764908E+00 0.18721019E+04</pdfrwt>
<pdfrwt beam="2">  1       -2 0.72095687E-01 0.18721019E+04</pdfrwt>
<totfact> 0.12908316E+01</totfact>
</mgrwt>
</event>
<event>
12    1  0.1472088E-007  0.2180379E+04  0.7818608E-02  0.8526639E-01
          1   -1    0    0  501    0  0.00000000000E+00  0.00000000000E+00  0.78781184935E+03  0.78781184935E+03  0.00000000000E+00 0. -1.
         -1   -1    0    0    0  501 -0.00000000000E+00 -0.00000000000E+00 -0.15086257553E+04  0.15086257553E+04  0.00000000000E+00 0.  1.
         23    2    1    2    0    0 -0.48334175080E+03  0.22658103294E+03 -0.10602427715E+04  0.11906216915E+04  0.92233753188E+02 0.  0.
        254    2    1    2    0    0  0.48334175080E+03 -0.22658103294E+03  0.33942886562E+03  0.11058159131E+04  0.90700532866E+03 0.  0.
        -24    2    4    4    0    0  0.87356919538E+02  0.29851449885E+03 -0.67954846413E+02  0.32835041673E+03  0.80336776145E+02 0.  0.
         24    2    4    4    0    0  0.39598483126E+03 -0.52509553179E+03  0.40738371203E+03  0.77746549634E+03  0.77212726141E+02 0.  0.
         13    1    3    3    0    0 -0.17248883547E+03  0.11253327121E+03 -0.48449031530E+03  0.52644752930E+03  0.00000000000E+00 0.  1.
        -13    1    3    3    0    0 -0.31085291534E+03  0.11404776173E+03 -0.57575245623E+03  0.66417416224E+03  0.00000000000E+00 0. -1.
          2    1    6    6  502    0 -0.51205299476E+00 -0.20158459903E+02  0.11485756883E+02  0.23206643771E+02  0.00000000000E+00 0. -1.
          3    1    5    5  503    0  0.31742925738E+02  0.25994677172E+02 -0.21634774637E+02  0.46383187140E+02  0.00000000000E+00 0. -1.
         -4    1    5    5    0  503  0.55613993800E+02  0.27251982167E+03 -0.46320071776E+02  0.28196722959E+03  0.00000000000E+00 0.  1.
         -1    1    6    6    0  502  0.39649688426E+03 -0.50493707188E+03  0.39589795515E+03  0.75425885257E+03  0.00000000000E+00 0.  1.
<mgrwt>
<rscale>  0 0.21803791E+04</rscale>
<asrwt>0</asrwt>
<pdfrwt beam="1">  1        1 0.12120182E+00 0.21803791E+04</pdfrwt>
<pdfrwt beam="2">  1       -1 0.23209627E+00 0.21803791E+04</pdfrwt>
<totfact> 0.18917845E+00</totfact>
</mgrwt>
</event>
<event>
12    1  0.1472088E-007  0.1255837E+04  0.7818608E-02  0.9065339E-01
          1   -1    0    0  501    0  0.00000000000E+00  0.00000000000E+00  0.16919464157E+04  0.16919464157E+04  0.00000000000E+00 0. -1.
         -1   -1    0    0    0  501 -0.00000000000E+00 -0.00000000000E+00 -0.23303447321E+03  0.23303447321E+03  0.00000000000E+00 0.  1.
         23    2    1    2    0    0 -0.13690554941E+03 -0.39022092502E+02 -0.41241443496E+02  0.17425344512E+03  0.91638165144E+02 0.  0.
        254    2    1    2    0    0  0.13690554941E+03  0.39022092502E+02  0.15001533859E+04  0.17507274437E+04  0.89124662567E+03 0.  0.
        -24    2    4    4    0    0 -0.20238572673E+03 -0.12064460857E+03  0.12893548308E+04  0.13131673848E+04  0.80359173898E+02 0.  0.
         24    2    4    4    0    0  0.33929127614E+03  0.15966670107E+03  0.21079855515E+03  0.43756005895E+03  0.80067152081E+02 0.  0.
         11    1    3    3    0    0 -0.91401834608E+02 -0.41866380097E+02 -0.68015788614E+02  0.12138054479E+03  0.00000000000E+00 0.  1.
        -11    1    3    3    0    0 -0.45503714802E+02  0.28442875952E+01  0.26774345118E+02  0.52872900329E+02  0.00000000000E+00 0. -1.
          4    1    6    6  502    0  0.30989820396E+03  0.16751910994E+03  0.18634766284E+03  0.39852854410E+03  0.00000000000E+00 0. -1.
          3    1    5    5  503    0 -0.13604199006E+03 -0.12151137093E+03  0.96747865489E+03  0.98452393774E+03  0.00000000000E+00 0. -1.
         -4    1    5    5    0  503 -0.66343736673E+02  0.86676236443E+00  0.32187617591E+03  0.32864344705E+03  0.00000000000E+00 0.  1.
         -3    1    6    6    0  502  0.29393072178E+02 -0.78524088730E+01  0.24450892306E+02  0.39031514853E+02  0.00000000000E+00 0.  1.
<mgrwt>
<rscale>  0 0.12558373E+04</rscale>
<asrwt>0</asrwt>
<pdfrwt beam="1">  1        1 0.26029944E+00 0.12558373E+04</pdfrwt>
<pdfrwt beam="2">  1       -1 0.35851458E-01 0.12558373E+04</pdfrwt>
<totfact> 0.35365779E+01</totfact>
</mgrwt>
</event>
<event>
12    1  0.1472088E-007  0.1763196E+04  0.7818608E-02  0.8726120E-01
         -1   -1    0    0    0  501 -0.00000000000E+00  0.00000000000E+00  0.74883944094E+03  0.74883944094E+03  0.00000000000E+00 0.  1.
          1   -1    0    0  501    0  0.00000000000E+00 -0.00000000000E+00 -0.10378932800E+04  0.10378932800E+04  0.00000000000E+00 0. -1.
         23    2    1    2    0    0 -0.14811931829E+02  0.64269710363E+03 -0.40115436670E+02  0.65079338200E+03  0.92972132690E+02 0.  0.
        254    2    1    2    0    0  0.14811931829E+02 -0.64269710363E+03 -0.24893840241E+03  0.11359393390E+04  0.90283381264E+03 0.  0.
        -24    2    4    4    0    0 -0.23606027186E+03  0.32909320843E+01  0.18857466338E+03  0.31273147997E+03  0.80655394822E+02 0.  0.
         24    2    4    4    0    0  0.25087220369E+03 -0.64598803572E+03 -0.43751306579E+03  0.82320785898E+03  0.77563467433E+02 0.  0.
         11    1    3    3    0    0  0.24160717807E+02  0.54845687563E+02 -0.10998716353E+02  0.60932433816E+02  0.00000000000E+00 0. -1.
        -11    1    3    3    0    0 -0.38972649636E+02  0.58785141607E+03 -0.29116720317E+02  0.58986094819E+03  0.00000000000E+00 0.  1.
          4    1    6    6  502    0  0.27297267078E+02 -0.26195467963E+02 -0.31865489146E+02  0.49464661428E+02  0.00000000000E+00 0. -1.
          3    1    5    5  503    0 -0.16587482617E+03 -0.34162952858E+02  0.11828827676E+03  0.20657609185E+03  0.00000000000E+00 0. -1.
         -4    1    5    5    0  503 -0.70185445687E+02  0.37453884943E+02  0.70286386617E+02  0.10615538812E+03  0.00000000000E+00 0.  1.
         -3    1    6    6    0  502  0.22357493661E+03 -0.61979256775E+03 -0.40564757664E+03  0.77374319755E+03  0.00000000000E+00 0.  1.
<mgrwt>
<rscale>  0 0.17631964E+04</rscale>
<asrwt>0</asrwt>
<pdfrwt beam="1">  1        1 0.15967589E+00 0.17631964E+04</pdfrwt>
<pdfrwt beam="2">  1       -1 0.11520607E+00 0.17631964E+04</pdfrwt>
<totfact> 0.91487607E+00</totfact>
</mgrwt>
</event>
<event>
12    1  0.1472088E-007  0.1713576E+04  0.7818608E-02  0.8753659E-01
         -2   -1    0    0    0  501 -0.00000000000E+00  0.00000000000E+00  0.30697945614E+03  0.30697945614E+03  0.00000000000E+00 0. -1.
          2   -1    0    0  501    0  0.00000000000E+00 -0.00000000000E+00 -0.23913172283E+04  0.23913172283E+04  0.00000000000E+00 0.  1.
         23    2    1    2    0    0  0.31119303759E+03 -0.53157183377E+03 -0.77399904483E+03  0.99331715135E+03  0.90524696416E+02 0.  0.
        254    2    1    2    0    0 -0.31119303759E+03  0.53157183377E+03 -0.13103387273E+04  0.17049795331E+04  0.90030989487E+03 0.  0.
        -24    2    4    4    0    0 -0.80034569994E+02  0.79920816809E+02 -0.11623428089E+04  0.11705887886E+04  0.80277253259E+02 0.  0.
         24    2    4    4    0    0 -0.23115846759E+03  0.45165101697E+03 -0.14799591849E+03  0.53439074447E+03  0.79043011242E+02 0.  0.
         13    1    3    3    0    0  0.19606766780E+03 -0.36265491479E+03 -0.45068844367E+03  0.61080372529E+03  0.00000000000E+00 0. -1.
        -13    1    3    3    0    0  0.11512536979E+03 -0.16891691898E+03 -0.32331060116E+03  0.38251342605E+03  0.00000000000E+00 0.  1.
          2    1    6    6  502    0  0.81628267243E+00  0.37781884313E+02 -0.14173727986E+01  0.37817271785E+02  0.00000000000E+00 0. -1.
          3    1    5    5  503    0  0.14019697430E+01  0.51774850653E+02 -0.49648451022E+03  0.49917879519E+03  0.00000000000E+00 0. -1.
         -4    1    5    5    0  503 -0.81436539737E+02  0.28145966156E+02 -0.66585829863E+03  0.67140999343E+03  0.00000000000E+00 0.  1.
         -1    1    6    6    0  502 -0.23197475027E+03  0.41386913265E+03 -0.14657854569E+03  0.49657347269E+03  0.00000000000E+00 0.  1.
<mgrwt>
<rscale>  0 0.17135755E+04</rscale>
<asrwt>0</asrwt>
<pdfrwt beam="1">  1        2 0.36789495E+00 0.17135755E+04</pdfrwt>
<pdfrwt beam="2">  1       -2 0.47227610E-01 0.17135755E+04</pdfrwt>
<totfact> 0.16260823E+01</totfact>
</mgrwt>
</event>
<event>
12    1  0.1752643E-007  0.2057279E+04  0.7818608E-02  0.8580299E-01
          1   -1    0    0  501    0  0.00000000000E+00  0.00000000000E+00  0.20617005405E+04  0.20617005405E+04  0.00000000000E+00 0. -1.
         -1   -1    0    0    0  501 -0.00000000000E+00 -0.00000000000E+00 -0.51321666830E+03  0.51321666830E+03  0.00000000000E+00 0.  1.
         23    2    1    2    0    0 -0.44978524606E+03 -0.47181958986E+03 -0.14106861182E+02  0.65873266340E+03  0.93857473537E+02 0.  0.
        254    2    1    2    0    0  0.44978524606E+03  0.47181958986E+03  0.15625907334E+04  0.19161845454E+04  0.89730313666E+03 0.  0.
        -24    2    4    4    0    0  0.61393671662E+03  0.61822679369E+03  0.12439746629E+04  0.15208698866E+04  0.80309335870E+02 0.  0.
         24    2    4    4    0    0 -0.16415147056E+03 -0.14640720383E+03  0.31861607051E+03  0.39531465888E+03  0.79854270529E+02 0.  0.
         11    1    3    3    0    0 -0.23000098600E+02 -0.22165969509E+02 -0.21913558402E+02  0.38736788480E+02  0.00000000000E+00 0. -1.
        -11    1    3    3    0    0 -0.42678514746E+03 -0.44965362035E+03  0.78066972204E+01  0.61999587492E+03  0.00000000000E+00 0.  1.
          2    1    6    6  502    0 -0.29658926239E+01  0.59162093182E+01 -0.57436423106E+00  0.66428868742E+01  0.00000000000E+00 0. -1.
          1    1    5    5  503    0  0.16733704432E+03  0.19438241712E+03  0.42261513770E+03  0.49435793217E+03  0.00000000000E+00 0. -1.
         -2    1    5    5    0  503  0.44659967230E+03  0.42384437657E+03  0.82135952522E+03  0.10265119544E+04  0.00000000000E+00 0.  1.
         -1    1    6    6    0  502 -0.16118557793E+03 -0.15232341314E+03  0.31919043474E+03  0.38867177201E+03  0.00000000000E+00 0.  1.
<mgrwt>
<rscale>  0 0.20572789E+04</rscale>
<asrwt>0</asrwt>
<pdfrwt beam="1">  1        1 0.31718469E+00 0.20572789E+04</pdfrwt>
<pdfrwt beam="2">  1       -1 0.78956411E-01 0.20572789E+04</pdfrwt>
<totfact> 0.40063908E+00</totfact>
</mgrwt>
</event>
<event>
12    1  0.1472088E-007  0.2257137E+04  0.7818608E-02  0.8495016E-01
         -1   -1    0    0    0  501 -0.00000000000E+00  0.00000000000E+00  0.42087946680E+03  0.42087946680E+03  0.00000000000E+00 0.  1.
          1   -1    0    0  501    0  0.00000000000E+00 -0.00000000000E+00 -0.30262040867E+04  0.30262040867E+04  0.00000000000E+00 0. -1.
         23    2    1    2    0    0 -0.43747900771E+03 -0.54031619325E+02 -0.23825736711E+04  0.24246979625E+04  0.90529624284E+02 0.  0.
        254    2    1    2    0    0  0.43747900771E+03  0.54031619325E+02 -0.22275094874E+03  0.10223855910E+04  0.89517987768E+03 0.  0.
        -24    2    4    4    0    0  0.19138696529E+03  0.46275695900E+03 -0.17535449048E+03  0.53581168035E+03  0.74645735855E+02 0.  0.
         24    2    4    4    0    0  0.24609204242E+03 -0.40872533967E+03 -0.47396458252E+02  0.48657391063E+03  0.83006322793E+02 0.  0.
         13    1    3    3    0    0 -0.55984048277E+02  0.56874524177E+01 -0.48357691423E+03  0.48684000734E+03  0.00000000000E+00 0.  1.
        -13    1    3    3    0    0 -0.38149495943E+03 -0.59719071743E+02 -0.18989967569E+04  0.19378579551E+04  0.00000000000E+00 0. -1.
          2    1    6    6  502    0  0.72234240775E+02 -0.14665130687E+03 -0.53525618872E+02  0.17201564819E+03  0.00000000000E+00 0. -1.
          1    1    5    5  503    0  0.11180830779E+03  0.17631088933E+03 -0.64294782005E+02  0.21845010044E+03  0.00000000000E+00 0. -1.
         -2    1    5    5    0  503  0.79578657496E+02  0.28644606966E+03 -0.11105970848E+03  0.31736157991E+03  0.00000000000E+00 0.  1.
         -1    1    6    6    0  502  0.17385780165E+03 -0.26207403280E+03  0.61291606199E+01  0.31455826244E+03  0.00000000000E+00 0.  1.
<mgrwt>
<rscale>  0 0.22571373E+04</rscale>
<asrwt>0</asrwt>
<pdfrwt beam="1">  1        1 0.46556985E+00 0.22571373E+04</pdfrwt>
<pdfrwt beam="2">  1       -1 0.64750688E-01 0.22571373E+04</pdfrwt>
<totfact> 0.12557844E+00</totfact>
</mgrwt>
</event>
<event>
12    1  0.1472088E-007  0.2694512E+04  0.7818608E-02  0.8336788E-01
          2   -1    0    0  501    0  0.00000000000E+00  0.00000000000E+00  0.63601212176E+03  0.63601212176E+03  0.00000000000E+00 0. -1.
         -2   -1    0    0    0  501 -0.00000000000E+00 -0.00000000000E+00 -0.28538746083E+04  0.28538746083E+04  0.00000000000E+00 0.  1.
         23    2    1    2    0    0  0.49950340287E+03  0.10285011237E+04 -0.54195521913E+03  0.12687147447E+04  0.92754691683E+02 0.  0.
        254    2    1    2    0    0 -0.49950340287E+03 -0.10285011237E+04 -0.16759072674E+04  0.22211719854E+04  0.90422431327E+03 0.  0.
        -24    2    4    4    0    0 -0.57420121204E+03 -0.11117563366E+04 -0.16620688832E+04  0.20819874161E+04  0.80557086087E+02 0.  0.
         24    2    4    4    0    0  0.74697809164E+02  0.83255212880E+02 -0.13838384219E+02  0.13918456936E+03  0.81667927021E+02 0.  0.
         13    1    3    3    0    0  0.40228172431E+03  0.74255799509E+03 -0.41701590862E+03  0.94187325572E+03  0.00000000000E+00 0. -1.
        -13    1    3    3    0    0  0.97221678566E+02  0.28594312864E+03 -0.12493931051E+03  0.32684148897E+03  0.00000000000E+00 0.  1.
          2    1    6    6  502    0  0.40862634493E+02  0.51615137038E+02  0.32712593717E+02  0.73511842970E+02  0.00000000000E+00 0. -1.
          3    1    5    5  503    0 -0.21794704478E+03 -0.47213034238E+03 -0.74433769348E+03  0.90799040549E+03  0.00000000000E+00 0. -1.
         -4    1    5    5    0  503 -0.35625416726E+03 -0.63962599424E+03 -0.91773118975E+03  0.11739970106E+04  0.00000000000E+00 0.  1.
         -1    1    6    6    0  502  0.33835174671E+02  0.31640075842E+02 -0.46550977937E+02  0.65672726388E+02  0.00000000000E+00 0.  1.
<mgrwt>
<rscale>  0 0.26945121E+04</rscale>
<asrwt>0</asrwt>
<pdfrwt beam="1">  1        2 0.97848018E-01 0.26945121E+04</pdfrwt>
<pdfrwt beam="2">  1       -2 0.43905764E+00 0.26945121E+04</pdfrwt>
<totfact> 0.16607622E-01</totfact>
</mgrwt>
</event>
<event>
12    1  0.1472088E-007  0.3395521E+04  0.7818608E-02  0.8139007E-01
          2   -1    0    0  501    0  0.00000000000E+00  0.00000000000E+00  0.10634551602E+04  0.10634551602E+04  0.00000000000E+00 0. -1.
         -2   -1    0    0    0  501 -0.00000000000E+00 -0.00000000000E+00 -0.27104014606E+04  0.27104014606E+04  0.00000000000E+00 0.  1.
         23    2    1    2    0    0  0.10900425106E+04  0.10702444173E+04 -0.12022968208E+04  0.19461075534E+04  0.90560347103E+02 0.  0.
        254    2    1    2    0    0 -0.10900425106E+04 -0.10702444173E+04 -0.44464947958E+03  0.18277490673E+04  0.89963198344E+03 0.  0.
        -24    2    4    4    0    0 -0.96216893490E+02 -0.34373593047E+02 -0.36582280286E+03  0.38791659250E+03  0.78827185346E+02 0.  0.
         24    2    4    4    0    0 -0.99382561712E+03 -0.10358708243E+04 -0.78826676713E+02  0.14398324748E+04  0.78652328239E+02 0.  0.
         13    1    3    3    0    0  0.27701021661E+00  0.35799761752E+00 -0.63921291711E+01  0.64081364136E+01  0.00000000000E+00 0.  1.
        -13    1    3    3    0    0  0.10897655004E+04  0.10698864197E+04 -0.11959046916E+04  0.19396994170E+04  0.00000000000E+00 0. -1.
          2    1    6    6  502    0 -0.25453019123E+03 -0.29830850828E+03 -0.48153768708E+02  0.39508526902E+03  0.00000000000E+00 0. -1.
          1    1    5    5  503    0 -0.48950554847E+02  0.60397285226E+01 -0.70018254234E+02  0.85645729995E+02  0.00000000000E+00 0. -1.
         -2    1    5    5    0  503 -0.47266338643E+02 -0.40413321569E+02 -0.29580454863E+03  0.30227086250E+03  0.00000000000E+00 0.  1.
         -1    1    6    6    0  502 -0.73929542588E+03 -0.73756231600E+03 -0.30672908005E+02  0.10447472058E+04  0.00000000000E+00 0.  1.
<mgrwt>
<rscale>  0 0.33955208E+04</rscale>
<asrwt>0</asrwt>
<pdfrwt beam="1">  1        2 0.16360849E+00 0.33955208E+04</pdfrwt>
<pdfrwt beam="2">  1       -2 0.41698484E+00 0.33955208E+04</pdfrwt>
<totfact> 0.10909620E-01</totfact>
</mgrwt>
</event>
<event>
12    1  0.1472088E-007  0.2015007E+04  0.7818608E-02  0.8599637E-01
          1   -1    0    0  501    0  0.00000000000E+00  0.00000000000E+00  0.19994798333E+04  0.19994798333E+04  0.00000000000E+00 0. -1.
         -1   -1    0    0    0  501 -0.00000000000E+00 -0.00000000000E+00 -0.50766345121E+03  0.50766345121E+03  0.00000000000E+00 0.  1.
         23    2    1    2    0    0  0.46751270790E+03  0.64846363613E+03  0.49203765655E+03  0.94307099607E+03  0.90601483083E+02 0.  0.
        254    2    1    2    0    0 -0.46751270790E+03 -0.64846363613E+03  0.99977872556E+03  0.15640722885E+04  0.89871653152E+03 0.  0.
        -24    2    4    4    0    0 -0.67787566786E+03 -0.59484740412E+03  0.97762464832E+03  0.13320242307E+04  0.71970431042E+02 0.  0.
         24    2    4    4    0    0  0.21036295996E+03 -0.53616232010E+02  0.22154077239E+02  0.23204805775E+03  0.78919089619E+02 0.  0.
         13    1    3    3    0    0  0.10882949439E+03  0.12052801524E+03  0.63855641153E+02  0.17449471113E+03  0.00000000000E+00 0.  1.
        -13    1    3    3    0    0  0.35868321351E+03  0.52793562089E+03  0.42818201540E+03  0.76857628494E+03  0.00000000000E+00 0. -1.
          4    1    6    6  502    0  0.49944856946E+02  0.14621219454E+02  0.24915657672E+02  0.57697996420E+02  0.00000000000E+00 0. -1.
          1    1    5    5  503    0 -0.26032847360E+03 -0.24338840680E+03  0.33768364152E+03  0.49095730210E+03  0.00000000000E+00 0. -1.
         -2    1    5    5    0  503 -0.41754719427E+03 -0.35145899731E+03  0.63994100680E+03  0.84106692862E+03  0.00000000000E+00 0.  1.
         -3    1    6    6    0  502  0.16041810302E+03 -0.68237451464E+02 -0.27615804331E+01  0.17435006133E+03  0.00000000000E+00 0.  1.
<mgrwt>
<rscale>  0 0.20150065E+04</rscale>
<asrwt>0</asrwt>
<pdfrwt beam="1">  1        1 0.30761228E+00 0.20150065E+04</pdfrwt>
<pdfrwt beam="2">  1       -1 0.78102070E-01 0.20150065E+04</pdfrwt>
<totfact> 0.45354509E+00</totfact>
</mgrwt>
</event>
<event>
12    1  0.1472088E-007  0.1173068E+04  0.7818608E-02  0.9136762E-01
         -2   -1    0    0    0  501 -0.00000000000E+00  0.00000000000E+00  0.68855751176E+03  0.68855751176E+03  0.00000000000E+00 0.  1.
          2   -1    0    0  501    0  0.00000000000E+00 -0.00000000000E+00 -0.49962750437E+03  0.49962750437E+03  0.00000000000E+00 0. -1.
         23    2    1    2    0    0 -0.11584102612E+03 -0.53615026003E+02 -0.14488516589E+03  0.22031417674E+03  0.10607973809E+03 0.  0.
        254    2    1    2    0    0  0.11584102612E+03  0.53615026003E+02  0.33381517328E+03  0.96787083939E+03  0.89947077634E+03 0.  0.
        -24    2    4    4    0    0  0.88540579017E+02  0.36688637137E+03  0.47667537565E+03  0.61318441652E+03  0.79565515714E+02 0.  0.
         24    2    4    4    0    0  0.27300447102E+02 -0.31327134536E+03 -0.14286020237E+03  0.35468642287E+03  0.80679432983E+02 0.  0.
         11    1    3    3    0    0 -0.10984679951E+03 -0.43412769975E+00 -0.78351649158E+02  0.13492771678E+03  0.00000000000E+00 0. -1.
        -11    1    3    3    0    0 -0.59942266130E+01 -0.53180898303E+02 -0.66533516729E+02  0.85386459965E+02  0.00000000000E+00 0.  1.
          2    1    6    6  502    0  0.16651865085E+02 -0.27793999348E+03 -0.15121685737E+03  0.31685085220E+03  0.00000000000E+00 0. -1.
          3    1    5    5  503    0  0.64169420912E+02  0.15730047354E+03  0.26134750754E+03  0.31171088087E+03  0.00000000000E+00 0. -1.
         -4    1    5    5    0  503  0.24371158105E+02  0.20958589782E+03  0.21532786811E+03  0.30147353565E+03  0.00000000000E+00 0.  1.
         -1    1    6    6    0  502  0.10648582017E+02 -0.35331351879E+02  0.83566550001E+01  0.37835570663E+02  0.00000000000E+00 0.  1.
<mgrwt>
<rscale>  0 0.11730682E+04</rscale>
<asrwt>0</asrwt>
<pdfrwt beam="1">  1        2 0.76865770E-01 0.11730682E+04</pdfrwt>
<pdfrwt beam="2">  1       -2 0.10593193E+00 0.11730682E+04</pdfrwt>
<totfact> 0.43844333E+01</totfact>
</mgrwt>
</event>
<event>
12    1  0.1472088E-007  0.2421778E+04  0.7818608E-02  0.8431395E-01
         -1   -1    0    0    0  501 -0.00000000000E+00  0.00000000000E+00  0.10709039997E+04  0.10709039997E+04  0.00000000000E+00 0.  1.
          1   -1    0    0  501    0  0.00000000000E+00 -0.00000000000E+00 -0.13691725309E+04  0.13691725309E+04  0.00000000000E+00 0. -1.
         23    2    1    2    0    0 -0.97253656601E+03 -0.28009735542E+03  0.12100428175E+03  0.10232734644E+04  0.90358430552E+02 0.  0.
        254    2    1    2    0    0  0.97253656601E+03  0.28009735542E+03 -0.41927281298E+03  0.14168030662E+04  0.89847611881E+03 0.  0.
        -24    2    4    4    0    0  0.76361590101E+03  0.46506091727E+03  0.11029750201E+02  0.89775703843E+03  0.80343908379E+02 0.  0.
         24    2    4    4    0    0  0.20892066500E+03 -0.18496356185E+03 -0.43030256318E+03  0.51904602781E+03  0.79931968764E+02 0.  0.
         13    1    3    3    0    0 -0.74994787544E+03 -0.21232847381E+03  0.54744381800E+02  0.78134636622E+03  0.00000000000E+00 0.  1.
        -13    1    3    3    0    0 -0.22258869058E+03 -0.67768881610E+02  0.66259899955E+02  0.24192709817E+03  0.00000000000E+00 0. -1.
          4    1    6    6  502    0  0.57338940614E+02 -0.74919688723E+02 -0.88883199624E+02  0.12961842865E+03  0.00000000000E+00 0. -1.
          1    1    5    5  503    0  0.23309987121E+03  0.13756888288E+03  0.40107162642E+02  0.27362260869E+03  0.00000000000E+00 0. -1.
         -2    1    5    5    0  503  0.53051602980E+03  0.32749203440E+03 -0.29077412441E+02  0.62413442974E+03  0.00000000000E+00 0.  1.
         -3    1    6    6    0  502  0.15158172439E+03 -0.11004387313E+03 -0.34141936356E+03  0.38942759917E+03  0.00000000000E+00 0.  1.
<mgrwt>
<rscale>  0 0.24217781E+04</rscale>
<asrwt>0</asrwt>
<pdfrwt beam="1">  1        1 0.21064193E+00 0.24217781E+04</pdfrwt>
<pdfrwt beam="2">  1       -1 0.16475446E+00 0.24217781E+04</pdfrwt>
<totfact> 0.19443630E+00</totfact>
</mgrwt>
</event>
<event>
12    1  0.1472088E-007  0.1417615E+04  0.7818608E-02  0.8941166E-01
         -2   -1    0    0    0  501 -0.00000000000E+00  0.00000000000E+00  0.77726145102E+03  0.77726145102E+03  0.00000000000E+00 0.  1.
          2   -1    0    0  501    0  0.00000000000E+00 -0.00000000000E+00 -0.64638194459E+03  0.64638194459E+03  0.00000000000E+00 0. -1.
         23    2    1    2    0    0 -0.89337200725E+02 -0.20661722950E+03  0.38895376384E+03  0.45838127594E+03  0.90313613397E+02 0.  0.
        254    2    1    2    0    0  0.89337200725E+02  0.20661722950E+03 -0.25807425741E+03  0.96526211967E+03  0.90247261586E+03 0.  0.
        -24    2    4    4    0    0  0.18388917475E+03 -0.31504370794E+03 -0.80185525179E+01  0.37369357101E+03  0.80714443138E+02 0.  0.
         24    2    4    4    0    0 -0.94551974021E+02  0.52166093744E+03 -0.25005570489E+03  0.59156854865E+03  0.79720027372E+02 0.  0.
         13    1    3    3    0    0 -0.60825973920E+02 -0.40688063246E+02  0.13764317239E+03  0.15588765345E+03  0.00000000000E+00 0. -1.
        -13    1    3    3    0    0 -0.28511226805E+02 -0.16592916625E+03  0.25131059145E+03  0.30249362249E+03  0.00000000000E+00 0.  1.
          4    1    6    6  502    0 -0.35296132025E+02  0.27159366726E+03 -0.17020388053E+03  0.32245666062E+03  0.00000000000E+00 0. -1.
          1    1    5    5  503    0  0.30048042302E+02 -0.10607557193E+03  0.22162557052E+02  0.11245483867E+03  0.00000000000E+00 0. -1.
         -2    1    5    5    0  503  0.15384113244E+03 -0.20896813602E+03 -0.30181109570E+02  0.26123873234E+03  0.00000000000E+00 0.  1.
         -3    1    6    6    0  502 -0.59255841996E+02  0.25006727018E+03 -0.79851824359E+02  0.26911188803E+03  0.00000000000E+00 0.  1.
<mgrwt>
<rscale>  0 0.14176146E+04</rscale>
<asrwt>0</asrwt>
<pdfrwt beam="1">  1        2 0.99443377E-01 0.14176146E+04</pdfrwt>
<pdfrwt beam="2">  1       -2 0.11957868E+00 0.14176146E+04</pdfrwt>
<totfact> 0.23570725E+01</totfact>
</mgrwt>
</event>
<event>
12    1  0.1472088E-007  0.2131984E+04  0.7818608E-02  0.8547284E-01
         -1   -1    0    0    0  501 -0.00000000000E+00  0.00000000000E+00  0.53901694345E+03  0.53901694345E+03  0.00000000000E+00 0.  1.
          1   -1    0    0  501    0  0.00000000000E+00 -0.00000000000E+00 -0.21081689425E+04  0.21081689425E+04  0.00000000000E+00 0. -1.
         23    2    1    2    0    0  0.33931919758E+03 -0.41878828128E+03  0.20351567803E+03  0.58336681002E+03  0.91526288328E+02 0.  0.
        254    2    1    2    0    0 -0.33931919758E+03  0.41878828128E+03 -0.17726676771E+04  0.20638190759E+04  0.90910799271E+03 0.  0.
        -24    2    4    4    0    0  0.18382092042E+03 -0.13263118202E+03 -0.18981791490E+03  0.30616195388E+03  0.79518173739E+02 0.  0.
         24    2    4    4    0    0 -0.52314011800E+03  0.55141946330E+03 -0.15828497622E+04  0.17576571220E+04  0.78779321458E+02 0.  0.
         11    1    3    3    0    0  0.42489208208E+02 -0.55077058701E+02 -0.48748642598E+01  0.69732198523E+02  0.00000000000E+00 0. -1.
        -11    1    3    3    0    0  0.29682998937E+03 -0.36371122258E+03  0.20839054229E+03  0.51363461150E+03  0.00000000000E+00 0.  1.
          4    1    6    6  502    0 -0.30591610705E+03  0.36747926878E+03 -0.10424414683E+04  0.11468696056E+04  0.00000000000E+00 0. -1.
          3    1    5    5  503    0  0.18577903214E+03 -0.11483205401E+03 -0.18798077009E+03  0.28816144664E+03  0.00000000000E+00 0. -1.
         -4    1    5    5    0  503 -0.19581117139E+01 -0.17799128015E+02 -0.18371448131E+01  0.18000507233E+02  0.00000000000E+00 0.  1.
         -3    1    6    6    0  502 -0.21722401095E+03  0.18394019452E+03 -0.54040829389E+03  0.61078751641E+03  0.00000000000E+00 0.  1.
<mgrwt>
<rscale>  0 0.21319838E+04</rscale>
<asrwt>0</asrwt>
<pdfrwt beam="1">  1        1 0.32433368E+00 0.21319838E+04</pdfrwt>
<pdfrwt beam="2">  1       -1 0.82925684E-01 0.21319838E+04</pdfrwt>
<totfact> 0.33323289E+00</totfact>
</mgrwt>
</event>
<event>
12    1  0.1543051E-007  0.2568883E+04  0.7818608E-02  0.8378848E-01
          2   -1    0    0  501    0  0.00000000000E+00  0.00000000000E+00  0.14229970338E+04  0.14229970338E+04  0.00000000000E+00 0. -1.
         -2   -1    0    0    0  501 -0.00000000000E+00 -0.00000000000E+00 -0.11593770899E+04  0.11593770899E+04  0.00000000000E+00 0.  1.
         23    2    1    2    0    0  0.84673014635E+02 -0.37519475262E+03  0.11734449533E+04  0.12382441031E+04  0.91295009343E+02 0.  0.
        254    2    1    2    0    0 -0.84673014635E+02  0.37519475262E+03 -0.90982500936E+03  0.13441300206E+04  0.91157190764E+03 0.  0.
        -24    2    4    4    0    0 -0.40132464487E+03  0.29873292101E+03 -0.86939302200E+03  0.10062463304E+04  0.79903830764E+02 0.  0.
         24    2    4    4    0    0  0.31665163023E+03  0.76461831607E+02 -0.40431987369E+02  0.33788369015E+03  0.80099786782E+02 0.  0.
         11    1    3    3    0    0  0.81142972746E+02 -0.37839898257E+03  0.11700517767E+04  0.12323924425E+04  0.00000000000E+00 0. -1.
        -11    1    3    3    0    0  0.35300418889E+01  0.32042299462E+01  0.33931765620E+01  0.58516606589E+01  0.00000000000E+00 0.  1.
          2    1    6    6  502    0  0.25378974666E+03  0.92418605612E+02 -0.39910090733E+02  0.27302609677E+03  0.00000000000E+00 0. -1.
          1    1    5    5  503    0 -0.39946504302E+03  0.30326469704E+03 -0.86347076572E+03  0.99856074443E+03  0.00000000000E+00 0. -1.
         -2    1    5    5    0  503 -0.18596018486E+01 -0.45317760305E+01 -0.59222562789E+01  0.76855860192E+01  0.00000000000E+00 0.  1.
         -1    1    6    6    0  502  0.62861883570E+02 -0.15956774005E+02 -0.52189663587E+00  0.64857593377E+02  0.00000000000E+00 0.  1.
<mgrwt>
<rscale>  0 0.25688832E+04</rscale>
<asrwt>0</asrwt>
<pdfrwt beam="1">  1        2 0.21892262E+00 0.25688832E+04</pdfrwt>
<pdfrwt beam="2">  1       -2 0.17836571E+00 0.25688832E+04</pdfrwt>
<totfact> 0.23175170E+00</totfact>
</mgrwt>
</event>
<event>
12    1  0.1472088E-007  0.2810197E+04  0.7818608E-02  0.8300110E-01
         -2   -1    0    0    0  501 -0.00000000000E+00  0.00000000000E+00  0.73906302990E+03  0.73906302990E+03  0.00000000000E+00 0.  1.
          2   -1    0    0  501    0  0.00000000000E+00 -0.00000000000E+00 -0.26713571388E+04  0.26713571388E+04  0.00000000000E+00 0. -1.
         23    2    1    2    0    0 -0.17195092963E+03  0.82273628921E+03 -0.20061387796E+04  0.21769419743E+04  0.89562452140E+02 0.  0.
        254    2    1    2    0    0  0.17195092963E+03 -0.82273628921E+03  0.73844670691E+02  0.12334781944E+04  0.89975179734E+03 0.  0.
        -24    2    4    4    0    0  0.15240635185E+03  0.85431118049E-01 -0.28385997694E+03  0.33263442939E+03  0.82713201655E+02 0.  0.
         24    2    4    4    0    0  0.19544577780E+02 -0.82282172032E+03  0.35770464763E+03  0.90084376498E+03  0.78417472615E+02 0.  0.
         13    1    3    3    0    0 -0.17263011402E+03  0.76950780877E+03 -0.19203589683E+04  0.20759869921E+04  0.00000000000E+00 0. -1.
        -13    1    3    3    0    0  0.67918439610E+00  0.53228480437E+02 -0.85779811242E+02  0.10095498223E+03  0.00000000000E+00 0.  1.
          2    1    6    6  502    0 -0.93668048208E+01 -0.68539098347E+02  0.51603643223E+02  0.86303424200E+02  0.00000000000E+00 0. -1.
          1    1    5    5  503    0 -0.57563236980E+01  0.78975457229E+01 -0.45008289360E+02  0.46057058113E+02  0.00000000000E+00 0. -1.
         -2    1    5    5    0  503  0.15816267554E+03 -0.78121146049E+01 -0.23885168758E+03  0.28657737128E+03  0.00000000000E+00 0.  1.
         -1    1    6    6    0  502  0.28911382601E+02 -0.75428262198E+03  0.30610100441E+03  0.81454034078E+03  0.00000000000E+00 0.  1.
<mgrwt>
<rscale>  0 0.28101966E+04</rscale>
<asrwt>0</asrwt>
<pdfrwt beam="1">  1        2 0.41097803E+00 0.28101966E+04</pdfrwt>
<pdfrwt beam="2">  1       -2 0.11370200E+00 0.28101966E+04</pdfrwt>
<totfact> 0.14551558E+00</totfact>
</mgrwt>
</event>
<event>
12    1  0.1472088E-007  0.2541783E+04  0.7818608E-02  0.8388249E-01
          2   -1    0    0  501    0  0.00000000000E+00  0.00000000000E+00  0.22168943153E+04  0.22168943153E+04  0.00000000000E+00 0. -1.
         -2   -1    0    0    0  501 -0.00000000000E+00 -0.00000000000E+00 -0.72857119584E+03  0.72857119584E+03  0.00000000000E+00 0.  1.
         23    2    1    2    0    0 -0.16384014471E+03  0.38921035654E+03  0.18447313502E+04  0.18947772814E+04  0.93908980925E+02 0.  0.
        254    2    1    2    0    0  0.16384014471E+03 -0.38921035654E+03 -0.35640823074E+03  0.10506882298E+04  0.89363898454E+03 0.  0.
        -24    2    4    4    0    0  0.25278250395E+03 -0.60280666063E+03 -0.53334205323E+02  0.66091588161E+03  0.81794869721E+02 0.  0.
         24    2    4    4    0    0 -0.88942359240E+02  0.21359630409E+03 -0.30307402542E+03  0.38977234821E+03  0.80836218123E+02 0.  0.
         11    1    3    3    0    0 -0.84301494033E+02  0.91412380272E+02  0.52249571311E+03  0.53708913169E+03  0.00000000000E+00 0.  1.
        -11    1    3    3    0    0 -0.79538650679E+02  0.29779797627E+03  0.13222356371E+04  0.13576881497E+04  0.00000000000E+00 0. -1.
          2    1    6    6  502    0 -0.62389767703E+02  0.20653832509E+03 -0.25173139146E+03  0.33154073097E+03  0.00000000000E+00 0. -1.
          3    1    5    5  503    0  0.24039432422E+03 -0.59489374268E+03 -0.60663049984E+02  0.64449049785E+03  0.00000000000E+00 0. -1.
         -4    1    5    5    0  503  0.12388179733E+02 -0.79129179514E+01  0.73288446612E+01  0.16425383760E+02  0.00000000000E+00 0.  1.
         -1    1    6    6    0  502 -0.26552591537E+02  0.70579789953E+01 -0.51342633958E+02  0.58231617242E+02  0.00000000000E+00 0.  1.
<mgrwt>
<rscale>  0 0.25417831E+04</rscale>
<asrwt>0</asrwt>
<pdfrwt beam="1">  1        2 0.34106066E+00 0.25417831E+04</pdfrwt>
<pdfrwt beam="2">  1       -2 0.11208788E+00 0.25417831E+04</pdfrwt>
<totfact> 0.28181507E+00</totfact>
</mgrwt>
</event>
<event>
12    1  0.1472088E-007  0.2343964E+04  0.7818608E-02  0.8460786E-01
         -2   -1    0    0    0  501 -0.00000000000E+00  0.00000000000E+00  0.62298995258E+03  0.62298995258E+03  0.00000000000E+00 0.  1.
          2   -1    0    0  501    0  0.00000000000E+00 -0.00000000000E+00 -0.22047567870E+04  0.22047567870E+04  0.00000000000E+00 0. -1.
         23    2    1    2    0    0 -0.85436057442E+03  0.25757576813E+03 -0.14477499246E+03  0.90873092235E+03  0.92492288048E+02 0.  0.
        254    2    1    2    0    0  0.85436057442E+03 -0.25757576813E+03 -0.14369918419E+04  0.19190158172E+04  0.90631058993E+03 0.  0.
        -24    2    4    4    0    0  0.12807730849E+03 -0.84263293478E+02  0.10639475401E+03  0.20248533517E+03  0.78589870204E+02 0.  0.
         24    2    4    4    0    0  0.72628326592E+03 -0.17331247465E+03 -0.15433865959E+04  0.17165304820E+04  0.83127101240E+02 0.  0.
         13    1    3    3    0    0 -0.48827234262E+03  0.11985253782E+03 -0.11952738777E+03  0.51677974788E+03  0.00000000000E+00 0. -1.
        -13    1    3    3    0    0 -0.36608823179E+03  0.13772323031E+03 -0.25247604682E+02  0.39195117447E+03  0.00000000000E+00 0.  1.
          4    1    6    6  502    0  0.36720105021E+03 -0.66595778728E+02 -0.68758082847E+03  0.78232921759E+03  0.00000000000E+00 0. -1.
          1    1    5    5  503    0  0.97650658391E+01 -0.46194855060E+02  0.20908172412E+02  0.51637900988E+02  0.00000000000E+00 0. -1.
         -2    1    5    5    0  503  0.11831224265E+03 -0.38068438418E+02  0.85486581601E+02  0.15084743418E+03  0.00000000000E+00 0.  1.
         -3    1    6    6    0  502  0.35908221571E+03 -0.10671669592E+03 -0.85580576747E+03  0.93420126443E+03  0.00000000000E+00 0.  1.
<mgrwt>
<rscale>  0 0.23439636E+04</rscale>
<asrwt>0</asrwt>
<pdfrwt beam="1">  1        2 0.33919335E+00 0.23439636E+04</pdfrwt>
<pdfrwt beam="2">  1       -2 0.95844609E-01 0.23439636E+04</pdfrwt>
<totfact> 0.42317182E+00</totfact>
</mgrwt>
</event>
<event>
12    1  0.2161371E-007  0.1362106E+04  0.7818608E-02  0.8981714E-01
         -1   -1    0    0    0  501 -0.00000000000E+00  0.00000000000E+00  0.19458890939E+03  0.19458890939E+03  0.00000000000E+00 0.  1.
          1   -1    0    0  501    0  0.00000000000E+00 -0.00000000000E+00 -0.23836563411E+04  0.23836563411E+04  0.00000000000E+00 0. -1.
         23    2    1    2    0    0  0.18541888968E+03  0.31159105599E+02 -0.82455358790E+01  0.20967414829E+03  0.92434869438E+02 0.  0.
        254    2    1    2    0    0 -0.18541888968E+03 -0.31159105599E+02 -0.21808218958E+04  0.23685711022E+04  0.90487229503E+03 0.  0.
        -24    2    4    4    0    0 -0.35766228828E+03  0.16650279945E+03 -0.40244234622E+03  0.56937298827E+03  0.81118820649E+02 0.  0.
         24    2    4    4    0    0  0.17224339860E+03 -0.19766190505E+03 -0.17783795496E+04  0.17991981139E+04  0.75776075392E+02 0.  0.
         11    1    3    3    0    0  0.19486615917E+03  0.30805683538E+02 -0.24028755445E+00  0.19728625869E+03  0.00000000000E+00 0.  1.
        -11    1    3    3    0    0 -0.94472694947E+01  0.35342206098E+00 -0.80052483245E+01  0.12387889602E+02  0.00000000000E+00 0. -1.
          2    1    6    6  502    0  0.13469772689E+03 -0.19202579700E+03 -0.15619926804E+04  0.15795057829E+04  0.00000000000E+00 0. -1.
          1    1    5    5  503    0 -0.31196700952E+03  0.15902627739E+03 -0.31770379992E+03  0.47280913317E+03  0.00000000000E+00 0. -1.
         -2    1    5    5    0  503 -0.45695278762E+02  0.74765220613E+01 -0.84738546298E+02  0.96563855101E+02  0.00000000000E+00 0.  1.
         -1    1    6    6    0  502  0.37545671714E+02 -0.56361080546E+01 -0.21638686915E+03  0.21969233105E+03  0.00000000000E+00 0.  1.
<mgrwt>
<rscale>  0 0.13621059E+04</rscale>
<asrwt>0</asrwt>
<pdfrwt beam="1">  1        1 0.36671637E+00 0.13621059E+04</pdfrwt>
<pdfrwt beam="2">  1       -1 0.29936754E-01 0.13621059E+04</pdfrwt>
<totfact> 0.16380353E+01</totfact>
</mgrwt>
</event>
<event>
12    1  0.1472088E-007  0.1683780E+04  0.7818608E-02  0.8770670E-01
         -2   -1    0    0    0  501 -0.00000000000E+00  0.00000000000E+00  0.77594090581E+03  0.77594090581E+03  0.00000000000E+00 0.  1.
          2   -1    0    0  501    0  0.00000000000E+00 -0.00000000000E+00 -0.91344412099E+03  0.91344412099E+03  0.00000000000E+00 0. -1.
         23    2    1    2    0    0  0.32363512014E+03  0.29949456675E+03 -0.42211551993E+03  0.61772672043E+03  0.94700065830E+02 0.  0.
        254    2    1    2    0    0 -0.32363512014E+03 -0.29949456675E+03  0.28461230476E+03  0.10716583064E+04  0.93435040274E+03 0.  0.
        -24    2    4    4    0    0  0.19801203672E+03  0.13620407491E+03 -0.11560625073E+03  0.27904544173E+03  0.82105034174E+02 0.  0.
         24    2    4    4    0    0 -0.52164715686E+03 -0.43569864167E+03  0.40021855548E+03  0.79261286464E+03  0.78174154499E+02 0.  0.
         13    1    3    3    0    0  0.27856619403E+03  0.29477362328E+03 -0.37542396399E+03  0.55266062478E+03  0.00000000000E+00 0. -1.
        -13    1    3    3    0    0  0.45068926106E+02  0.47209434687E+01 -0.46691555939E+02  0.65066095653E+02  0.00000000000E+00 0.  1.
          2    1    6    6  502    0 -0.53918704664E+02 -0.21539008587E+02  0.20748447311E+02  0.61657551600E+02  0.00000000000E+00 0. -1.
          3    1    5    5  503    0  0.10571451433E+03  0.49046311227E+02 -0.15885299262E+02  0.11761565337E+03  0.00000000000E+00 0. -1.
         -4    1    5    5    0  503  0.92297522386E+02  0.87157763686E+02 -0.99720951464E+02  0.16142978836E+03  0.00000000000E+00 0.  1.
         -1    1    6    6    0  502 -0.46772845219E+03 -0.41415963308E+03  0.37947010817E+03  0.73095531304E+03  0.00000000000E+00 0.  1.
<mgrwt>
<rscale>  0 0.16837799E+04</rscale>
<asrwt>0</asrwt>
<pdfrwt beam="1">  1        2 0.14052986E+00 0.16837799E+04</pdfrwt>
<pdfrwt beam="2">  1       -2 0.11937552E+00 0.16837799E+04</pdfrwt>
<totfact> 0.14717328E+01</totfact>
</mgrwt>
</event>
<event>
12    1  0.1472088E-007  0.1327855E+04  0.7818608E-02  0.9007763E-01
          1   -1    0    0  501    0  0.00000000000E+00  0.00000000000E+00  0.40364990099E+03  0.40364990099E+03  0.00000000000E+00 0. -1.
         -1   -1    0    0    0  501 -0.00000000000E+00 -0.00000000000E+00 -0.10920342968E+04  0.10920342968E+04  0.00000000000E+00 0.  1.
         23    2    1    2    0    0  0.66622663021E+02 -0.21516643131E+03 -0.60020209590E+03  0.64741844016E+03  0.90404139036E+02 0.  0.
        254    2    1    2    0    0 -0.66622663021E+02  0.21516643131E+03 -0.88182299949E+02  0.84826575766E+03  0.81304581987E+03 0.  0.
        -24    2    4    4    0    0 -0.10685339725E+03  0.28807283888E+03  0.30389285081E+03  0.43963590847E+03  0.80779070567E+02 0.  0.
         24    2    4    4    0    0  0.40230734229E+02 -0.72906407571E+02 -0.39207515076E+03  0.40862984919E+03  0.79508323884E+02 0.  0.
         13    1    3    3    0    0  0.19950560454E+02 -0.14665162982E+03 -0.47275941753E+03  0.49538489305E+03  0.00000000000E+00 0.  1.
        -13    1    3    3    0    0  0.46672102567E+02 -0.68514801485E+02 -0.12744267837E+03  0.15203354712E+03  0.00000000000E+00 0. -1.
          2    1    6    6  502    0 -0.15297893782E+01  0.15995491006E+02 -0.39895847065E+02  0.43010168578E+02  0.00000000000E+00 0. -1.
          1    1    5    5  503    0 -0.14746155157E+02 -0.21754189013E+00  0.10351403200E+02  0.18017990026E+02  0.00000000000E+00 0. -1.
         -2    1    5    5    0  503 -0.92107242093E+02  0.28829038077E+03  0.29354144761E+03  0.42161791844E+03  0.00000000000E+00 0.  1.
         -1    1    6    6    0  502  0.41760523607E+02 -0.88901898576E+02 -0.35217930369E+03  0.36561968061E+03  0.00000000000E+00 0.  1.
<mgrwt>
<rscale>  0 0.13278547E+04</rscale>
<asrwt>0</asrwt>
<pdfrwt beam="1">  1        1 0.62099985E-01 0.13278547E+04</pdfrwt>
<pdfrwt beam="2">  1       -1 0.16800528E+00 0.13278547E+04</pdfrwt>
<totfact> 0.14792325E+01</totfact>
</mgrwt>
</event>
<event>
12    1  0.1472088E-007  0.2938450E+04  0.7818608E-02  0.8261529E-01
         -2   -1    0    0    0  501 -0.00000000000E+00  0.00000000000E+00  0.97149336143E+03  0.97149336143E+03  0.00000000000E+00 0.  1.
          2   -1    0    0  501    0  0.00000000000E+00 -0.00000000000E+00 -0.22219620462E+04  0.22219620462E+04  0.00000000000E+00 0. -1.
         23    2    1    2    0    0 -0.40920552539E+03  0.11268162478E+04 -0.11841641502E+04  0.16875087087E+04  0.90977407527E+02 0.  0.
        254    2    1    2    0    0  0.40920552539E+03 -0.11268162478E+04 -0.66304534542E+02  0.15059466990E+04  0.90901878444E+03 0.  0.
        -24    2    4    4    0    0  0.45219079732E+03 -0.10192528945E+04 -0.36530233514E+03  0.11762093576E+04  0.81668089954E+02 0.  0.
         24    2    4    4    0    0 -0.42985271928E+02 -0.10756335339E+03  0.29899780060E+03  0.32973734134E+03  0.76872757944E+02 0.  0.
         11    1    3    3    0    0 -0.42399601935E+02  0.17252546605E+03 -0.21355968218E+03  0.27779578926E+03  0.00000000000E+00 0. -1.
        -11    1    3    3    0    0 -0.36680592345E+03  0.95429078180E+03 -0.97060446806E+03  0.14097129194E+04  0.00000000000E+00 0.  1.
          4    1    6    6  502    0  0.19310845204E+02 -0.21788967755E+02  0.36832578245E+02  0.46950044499E+02  0.00000000000E+00 0. -1.
          1    1    5    5  503    0  0.72226303895E+02 -0.22076664128E+03 -0.10086518550E+03  0.25323572916E+03  0.00000000000E+00 0. -1.
         -2    1    5    5    0  503  0.37996449342E+03 -0.79848625317E+03 -0.26443714965E+03  0.92297362849E+03  0.00000000000E+00 0.  1.
         -3    1    6    6    0  502 -0.62296117132E+02 -0.85774385633E+02  0.26216522236E+03  0.28278729684E+03  0.00000000000E+00 0.  1.
<mgrwt>
<rscale>  0 0.29384495E+04</rscale>
<asrwt>0</asrwt>
<pdfrwt beam="1">  1        2 0.34184032E+00 0.29384495E+04</pdfrwt>
<pdfrwt beam="2">  1       -2 0.14946052E+00 0.29384495E+04</pdfrwt>
<totfact> 0.13060869E+00</totfact>
</mgrwt>
</event>
<event>
12    1  0.1472088E-007  0.1578639E+04  0.7818608E-02  0.8833779E-01
         -2   -1    0    0    0  501 -0.00000000000E+00  0.00000000000E+00  0.13521567389E+04  0.13521567389E+04  0.00000000000E+00 0.  1.
          2   -1    0    0  501    0  0.00000000000E+00 -0.00000000000E+00 -0.46076428671E+03  0.46076428671E+03  0.00000000000E+00 0. -1.
         23    2    1    2    0    0  0.31898404320E+03 -0.42082787948E+03  0.30066439265E+03  0.61440682130E+03  0.90828085348E+02 0.  0.
        254    2    1    2    0    0 -0.31898404320E+03  0.42082787948E+03  0.59072805953E+03  0.11985142043E+04  0.89923841868E+03 0.  0.
        -24    2    4    4    0    0  0.17005795625E+03 -0.17467437729E+03  0.75043826843E+02  0.26773343293E+03  0.81355814765E+02 0.  0.
         24    2    4    4    0    0 -0.48904199945E+03  0.59550225677E+03  0.51568423268E+03  0.93078077137E+03  0.81471476363E+02 0.  0.
         13    1    3    3    0    0  0.16196486598E+03 -0.19275439026E+03  0.93417022146E+02  0.26853977881E+03  0.00000000000E+00 0. -1.
        -13    1    3    3    0    0  0.15701917722E+03 -0.22807348922E+03  0.20724737051E+03  0.34586704249E+03  0.00000000000E+00 0.  1.
          2    1    6    6  502    0 -0.43938051400E+02  0.34599264831E+02  0.17963361567E+02  0.58739627565E+02  0.00000000000E+00 0. -1.
          3    1    5    5  503    0  0.14187561340E+02 -0.64511595263E+02  0.16425575564E+02  0.68064912787E+02  0.00000000000E+00 0. -1.
         -4    1    5    5    0  503  0.15587039491E+03 -0.11016278203E+03  0.58618251279E+02  0.19966852015E+03  0.00000000000E+00 0.  1.
         -1    1    6    6    0  502 -0.44510394805E+03  0.56090299194E+03  0.49772087112E+03  0.87204114380E+03  0.00000000000E+00 0.  1.
<mgrwt>
<rscale>  0 0.15786393E+04</rscale>
<asrwt>0</asrwt>
<pdfrwt beam="1">  1        2 0.70886814E-01 0.15786393E+04</pdfrwt>
<pdfrwt beam="2">  1       -2 0.20802411E+00 0.15786393E+04</pdfrwt>
<totfact> 0.76592394E+00</totfact>
</mgrwt>
</event>
<event>
12    1  0.1472088E-007  0.2015611E+04  0.7818608E-02  0.8599357E-01
         -2   -1    0    0    0  501 -0.00000000000E+00  0.00000000000E+00  0.56379811206E+03  0.56379811206E+03  0.00000000000E+00 0.  1.
          2   -1    0    0  501    0  0.00000000000E+00 -0.00000000000E+00 -0.18014816854E+04  0.18014816854E+04  0.00000000000E+00 0. -1.
         23    2    1    2    0    0 -0.52824504263E+03  0.24480837105E+03  0.15025277194E+03  0.60784519545E+03  0.89027650545E+02 0.  0.
        254    2    1    2    0    0  0.52824504263E+03 -0.24480837105E+03 -0.13879363453E+04  0.17574346020E+04  0.90732305061E+03 0.  0.
        -24    2    4    4    0    0  0.28966241601E+03  0.33153092379E+03 -0.52670034136E+03  0.69106665582E+03  0.79641726000E+02 0.  0.
         24    2    4    4    0    0  0.23858262662E+03 -0.57633929484E+03 -0.86123600391E+03  0.10663679462E+04  0.79526660254E+02 0.  0.
         11    1    3    3    0    0 -0.25169905133E+03  0.11587810403E+03  0.25710174884E+02  0.27828251926E+03  0.00000000000E+00 0. -1.
        -11    1    3    3    0    0 -0.27654599130E+03  0.12893026702E+03  0.12454259705E+03  0.32956267619E+03  0.00000000000E+00 0.  1.
          2    1    6    6  502    0  0.60347924845E+02 -0.22821707749E+03 -0.36226018651E+03  0.43238564872E+03  0.00000000000E+00 0. -1.
          3    1    5    5  503    0  0.23030603000E+03  0.21851521208E+03 -0.34308435396E+03  0.46743624089E+03  0.00000000000E+00 0. -1.
         -4    1    5    5    0  503  0.59356386012E+02  0.11301571171E+03 -0.18361598740E+03  0.22363041493E+03  0.00000000000E+00 0.  1.
         -1    1    6    6    0  502  0.17823470177E+03 -0.34812221735E+03 -0.49897581740E+03  0.63398229745E+03  0.00000000000E+00 0.  1.
<mgrwt>
<rscale>  0 0.20156110E+04</rscale>
<asrwt>0</asrwt>
<pdfrwt beam="1">  1        2 0.27715103E+00 0.20156110E+04</pdfrwt>
<pdfrwt beam="2">  1       -2 0.86738170E-01 0.20156110E+04</pdfrwt>
<totfact> 0.91932617E+00</totfact>
</mgrwt>
</event>
<event>
12    1  0.1472088E-007  0.1702165E+04  0.7818608E-02  0.8760130E-01
         -2   -1    0    0    0  501 -0.00000000000E+00  0.00000000000E+00  0.55465906639E+03  0.55465906639E+03  0.00000000000E+00 0.  1.
          2   -1    0    0  501    0  0.00000000000E+00 -0.00000000000E+00 -0.13059221918E+04  0.13059221918E+04  0.00000000000E+00 0. -1.
         23    2    1    2    0    0  0.87615306942E+02  0.28662387295E+03 -0.80301949954E+03  0.86624015947E+03  0.12530766412E+03 0.  0.
        254    2    1    2    0    0 -0.87615306942E+02 -0.28662387295E+03  0.51756374161E+02  0.99434109869E+03  0.94668147321E+03 0.  0.
        -24    2    4    4    0    0  0.39837856298E+03  0.23861420191E+02  0.66519615559E+02  0.41182660254E+03  0.76820859734E+02 0.  0.
         24    2    4    4    0    0 -0.48599386992E+03 -0.31048529314E+03 -0.14763241398E+02  0.58251449615E+03  0.80709516577E+02 0.  0.
         11    1    3    3    0    0  0.56818929259E+02  0.14534806260E+03 -0.57857260382E+03  0.59925012133E+03  0.00000000000E+00 0. -1.
        -11    1    3    3    0    0  0.30796377683E+02  0.14127581035E+03 -0.22444689572E+03  0.26699003814E+03  0.00000000000E+00 0.  1.
          4    1    6    6  502    0 -0.41391367229E+03 -0.22900286046E+03 -0.25906833629E+01  0.47304709052E+03  0.00000000000E+00 0. -1.
          1    1    5    5  503    0  0.26489130475E+03  0.51928348723E+02  0.48034083552E+02  0.27417372215E+03  0.00000000000E+00 0. -1.
         -2    1    5    5    0  503  0.13348725823E+03 -0.28066928532E+02  0.18485532007E+02  0.13765288039E+03  0.00000000000E+00 0.  1.
         -3    1    6    6    0  502 -0.72080197636E+02 -0.81482432678E+02 -0.12172558035E+02  0.10946740563E+03  0.00000000000E+00 0.  1.
<mgrwt>
<rscale>  0 0.17021652E+04</rscale>
<asrwt>0</asrwt>
<pdfrwt beam="1">  1        2 0.20091110E+00 0.17021652E+04</pdfrwt>
<pdfrwt beam="2">  1       -2 0.85332166E-01 0.17021652E+04</pdfrwt>
<totfact> 0.18635765E+01</totfact>
</mgrwt>
</event>
<event>
12    1  0.1472088E-007  0.1312811E+04  0.7818608E-02  0.9019467E-01
         -1   -1    0    0    0  501 -0.00000000000E+00  0.00000000000E+00  0.68843933816E+03  0.68843933816E+03  0.00000000000E+00 0.  1.
          1   -1    0    0  501    0  0.00000000000E+00 -0.00000000000E+00 -0.62586200561E+03  0.62586200561E+03  0.00000000000E+00 0. -1.
         23    2    1    2    0    0  0.19795560938E+03 -0.24603893135E+03  0.16941390122E+03  0.36921615150E+03  0.88870228865E+02 0.  0.
        254    2    1    2    0    0 -0.19795560938E+03  0.24603893135E+03 -0.10683656867E+03  0.94508519227E+03  0.88433612910E+03 0.  0.
        -24    2    4    4    0    0 -0.17170968940E+03  0.55413146534E+03 -0.18843569914E+03  0.61521552360E+03  0.80226114582E+02 0.  0.
         24    2    4    4    0    0 -0.26245919984E+02 -0.30809253399E+03  0.81599130476E+02  0.32986966867E+03  0.80905638843E+02 0.  0.
         11    1    3    3    0    0  0.19105744628E+03 -0.21602644961E+03  0.12302722634E+03  0.31353799312E+03  0.00000000000E+00 0.  1.
        -11    1    3    3    0    0  0.68981631025E+01 -0.30012481731E+02  0.46386674876E+02  0.55678158373E+02  0.00000000000E+00 0. -1.
          2    1    6    6  502    0 -0.51056996624E+02 -0.26335084353E+03  0.64183394100E+02  0.27582601722E+03  0.00000000000E+00 0. -1.
          3    1    5    5  503    0 -0.11797858895E+03  0.44558709756E+03 -0.17625116697E+03  0.49348888824E+03  0.00000000000E+00 0. -1.
         -4    1    5    5    0  503 -0.53731100441E+02  0.10854436778E+03 -0.12184532168E+02  0.12172663536E+03  0.00000000000E+00 0.  1.
         -1    1    6    6    0  502  0.24811076641E+02 -0.44741690459E+02  0.17415736375E+02  0.54043651456E+02  0.00000000000E+00 0.  1.
<mgrwt>
<rscale>  0 0.13128108E+04</rscale>
<asrwt>0</asrwt>
<pdfrwt beam="1">  1        1 0.96286463E-01 0.13128108E+04</pdfrwt>
<pdfrwt beam="2">  1       -1 0.10591374E+00 0.13128108E+04</pdfrwt>
<totfact> 0.26387243E+01</totfact>
</mgrwt>
</event>
<event>
12    1  0.1472088E-007  0.4451655E+04  0.7818608E-02  0.7919156E-01
          2   -1    0    0  501    0  0.00000000000E+00  0.00000000000E+00  0.13167033122E+04  0.13167033122E+04  0.00000000000E+00 0. -1.
         -2   -1    0    0    0  501 -0.00000000000E+00 -0.00000000000E+00 -0.37626607694E+04  0.37626607694E+04  0.00000000000E+00 0.  1.
         23    2    1    2    0    0  0.16920901424E+04 -0.12909113175E+04 -0.10513860385E+04  0.23755853701E+04  0.91499556132E+02 0.  0.
        254    2    1    2    0    0 -0.16920901424E+04  0.12909113175E+04 -0.13945714187E+04  0.27037787116E+04  0.91431329418E+03 0.  0.
        -24    2    4    4    0    0 -0.71972386187E+03  0.89205373646E+03 -0.30681233880E+03  0.11892124990E+04  0.79562871197E+02 0.  0.
         24    2    4    4    0    0 -0.97236628054E+03  0.39885758102E+03 -0.10877590799E+04  0.15145662126E+04  0.78150131266E+02 0.  0.
         13    1    3    3    0    0  0.16504831357E+04 -0.12509654337E+04 -0.10371310327E+04  0.23161713832E+04  0.00000000000E+00 0. -1.
        -13    1    3    3    0    0  0.41607006685E+02 -0.39945883812E+02 -0.14255005847E+02  0.59413986826E+02  0.00000000000E+00 0.  1.
          4    1    6    6  502    0 -0.32686556662E+03  0.10038095258E+03 -0.38099420534E+03  0.51193165441E+03  0.00000000000E+00 0. -1.
          1    1    5    5  503    0 -0.25843440461E+03  0.33909238676E+03 -0.15215815062E+03  0.45268542173E+03  0.00000000000E+00 0. -1.
         -2    1    5    5    0  503 -0.46128945726E+03  0.55296134970E+03 -0.15465418818E+03  0.73652707728E+03  0.00000000000E+00 0.  1.
         -3    1    6    6    0  502 -0.64550071392E+03  0.29847662843E+03 -0.70676487456E+03  0.10026345582E+04  0.00000000000E+00 0.  1.
<mgrwt>
<rscale>  0 0.44516549E+04</rscale>
<asrwt>0</asrwt>
<pdfrwt beam="1">  1        2 0.20256974E+00 0.44516549E+04</pdfrwt>
<pdfrwt beam="2">  1       -2 0.57887088E+00 0.44516549E+04</pdfrwt>
<totfact> 0.76794766E-03</totfact>
</mgrwt>
</event>
<event>
12    1  0.1472088E-007  0.1238064E+04  0.7818608E-02  0.9080176E-01
          1   -1    0    0  501    0  0.00000000000E+00  0.00000000000E+00  0.53770583552E+03  0.53770583552E+03  0.00000000000E+00 0. -1.
         -1   -1    0    0    0  501 -0.00000000000E+00 -0.00000000000E+00 -0.71265849090E+03  0.71265849090E+03  0.00000000000E+00 0.  1.
         23    2    1    2    0    0 -0.23265171350E+03 -0.91361390125E+02  0.85022020212E+02  0.28001411926E+03  0.93302945636E+02 0.  0.
        254    2    1    2    0    0  0.23265171350E+03  0.91361390125E+02 -0.25997467560E+03  0.97035020716E+03  0.90084347651E+03 0.  0.
        -24    2    4    4    0    0 -0.25708287702E+03  0.25784978582E+03  0.26540450745E+02  0.37379004109E+03  0.80227685901E+02 0.  0.
         24    2    4    4    0    0  0.48973459052E+03 -0.16648839570E+03 -0.28651512634E+03  0.59656016607E+03  0.78960490500E+02 0.  0.
         11    1    3    3    0    0 -0.14583221978E+03 -0.10007212028E+03  0.75267658953E+02  0.19221520769E+03  0.00000000000E+00 0. -1.
        -11    1    3    3    0    0 -0.86819493720E+02  0.87107301525E+01  0.97543612589E+01  0.87798911572E+02  0.00000000000E+00 0.  1.
          2    1    6    6  502    0  0.87431172864E+02 -0.72933898051E-01 -0.38775028957E+02  0.95643704331E+02  0.00000000000E+00 0. -1.
          3    1    5    5  503    0 -0.48600442984E+02  0.89647693865E+02 -0.13768933622E+02  0.10289944415E+03  0.00000000000E+00 0. -1.
         -4    1    5    5    0  503 -0.20848243404E+03  0.16820209196E+03  0.40309384367E+02  0.27089059694E+03  0.00000000000E+00 0.  1.
         -1    1    6    6    0  502  0.40230341766E+03 -0.16641546180E+03 -0.24774009738E+03  0.50091646174E+03  0.00000000000E+00 0.  1.
<mgrwt>
<rscale>  0 0.12380640E+04</rscale>
<asrwt>0</asrwt>
<pdfrwt beam="1">  1        1 0.82723975E-01 0.12380640E+04</pdfrwt>
<pdfrwt beam="2">  1       -1 0.10963977E+00 0.12380640E+04</pdfrwt>
<totfact> 0.30417533E+01</totfact>
</mgrwt>
</event>
<event>
12    1  0.1472088E-007  0.1539597E+04  0.7818608E-02  0.8858540E-01
         -2   -1    0    0    0  501 -0.00000000000E+00  0.00000000000E+00  0.37329935138E+03  0.37329935138E+03  0.00000000000E+00 0.  1.
          2   -1    0    0  501    0  0.00000000000E+00 -0.00000000000E+00 -0.15874392856E+04  0.15874392856E+04  0.00000000000E+00 0. -1.
         23    2    1    2    0    0 -0.43027975652E+02  0.45665048954E+03 -0.62408200477E+03  0.78015803363E+03  0.93739705922E+02 0.  0.
        254    2    1    2    0    0  0.43027975652E+02 -0.45665048954E+03 -0.59005792945E+03  0.11805806033E+04  0.91390433012E+03 0.  0.
        -24    2    4    4    0    0 -0.36313726784E+03  0.40252835803E+02 -0.25311294905E+03  0.45143713585E+03  0.78995927498E+02 0.  0.
         24    2    4    4    0    0  0.40616524349E+03 -0.49690332535E+03 -0.33694498040E+03  0.72914346750E+03  0.78963007962E+02 0.  0.
         11    1    3    3    0    0  0.31700317080E+01  0.13705315672E+01 -0.30305687182E+02  0.30501838197E+02  0.00000000000E+00 0. -1.
        -11    1    3    3    0    0 -0.46198007360E+02  0.45527995798E+03 -0.59377631759E+03  0.74965619543E+03  0.00000000000E+00 0.  1.
          2    1    6    6  502    0  0.34866332177E+03 -0.37865076749E+03 -0.27862492020E+03  0.58529852369E+03  0.00000000000E+00 0. -1.
          3    1    5    5  503    0 -0.21552379632E+03 -0.12671898195E+02 -0.12946578072E+03  0.25173889680E+03  0.00000000000E+00 0. -1.
         -4    1    5    5    0  503 -0.14761347152E+03  0.52924733998E+02 -0.12364716833E+03  0.19969823905E+03  0.00000000000E+00 0.  1.
         -1    1    6    6    0  502  0.57501921716E+02 -0.11825255785E+03 -0.58320060201E+02  0.14384494382E+03  0.00000000000E+00 0.  1.
<mgrwt>
<rscale>  0 0.15395974E+04</rscale>
<asrwt>0</asrwt>
<pdfrwt beam="1">  1        2 0.24422143E+00 0.15395974E+04</pdfrwt>
<pdfrwt beam="2">  1       -2 0.57430669E-01 0.15395974E+04</pdfrwt>
<totfact> 0.31006243E+01</totfact>
</mgrwt>
</event>
<event>
12    1  0.1472088E-007  0.1625484E+04  0.7818608E-02  0.8805043E-01
          1   -1    0    0  501    0  0.00000000000E+00  0.00000000000E+00  0.57720374367E+03  0.57720374367E+03  0.00000000000E+00 0. -1.
         -1   -1    0    0    0  501 -0.00000000000E+00 -0.00000000000E+00 -0.11443956763E+04  0.11443956763E+04  0.00000000000E+00 0.  1.
         23    2    1    2    0    0  0.85029999755E+02 -0.77082555924E+02 -0.77975215864E+03  0.79327839051E+03  0.90029743180E+02 0.  0.
        254    2    1    2    0    0 -0.85029999755E+02  0.77082555924E+02  0.21256022598E+03  0.92832102950E+03  0.89634048378E+03 0.  0.
        -24    2    4    4    0    0 -0.26648635643E+03 -0.14151992330E+03  0.45155709512E+03  0.54897123791E+03  0.80142018007E+02 0.  0.
         24    2    4    4    0    0  0.18145635667E+03  0.21860247922E+03 -0.23899686914E+03  0.37934979159E+03  0.77931428982E+02 0.  0.
         13    1    3    3    0    0  0.26534821309E+02 -0.15192361140E+02 -0.49800150334E+03  0.49893927677E+03  0.00000000000E+00 0. -1.
        -13    1    3    3    0    0  0.58495178446E+02 -0.61890194784E+02 -0.28175065531E+03  0.29433911374E+03  0.00000000000E+00 0.  1.
          2    1    6    6  502    0  0.90220391427E+00  0.20553210813E-01  0.51346641596E+01  0.52133645920E+01  0.00000000000E+00 0. -1.
          3    1    5    5  503    0 -0.11128998656E+03 -0.10315041050E+03  0.23669101202E+03  0.28115494565E+03  0.00000000000E+00 0. -1.
         -4    1    5    5    0  503 -0.15519636987E+03 -0.38369512797E+02  0.21486608310E+03  0.26781629226E+03  0.00000000000E+00 0.  1.
         -1    1    6    6    0  502  0.18055415276E+03  0.21858192601E+03 -0.24413153330E+03  0.37413642700E+03  0.00000000000E+00 0.  1.
<mgrwt>
<rscale>  0 0.16254839E+04</rscale>
<asrwt>0</asrwt>
<pdfrwt beam="1">  1        1 0.88800577E-01 0.16254839E+04</pdfrwt>
<pdfrwt beam="2">  1       -1 0.17606087E+00 0.16254839E+04</pdfrwt>
<totfact> 0.77042325E+00</totfact>
</mgrwt>
</event>
<event>
12    1  0.1472088E-007  0.1803982E+04  0.7818608E-02  0.8704185E-01
         -2   -1    0    0    0  501 -0.00000000000E+00  0.00000000000E+00  0.11197939338E+04  0.11197939338E+04  0.00000000000E+00 0.  1.
          2   -1    0    0  501    0  0.00000000000E+00 -0.00000000000E+00 -0.72655128286E+03  0.72655128286E+03  0.00000000000E+00 0. -1.
         23    2    1    2    0    0 -0.21272160886E+03 -0.63672092535E+03  0.70954550844E+02  0.68137578282E+03  0.92597999343E+02 0.  0.
        254    2    1    2    0    0  0.21272160886E+03  0.63672092535E+03  0.32228810011E+03  0.11649694338E+04  0.89589069795E+03 0.  0.
        -24    2    4    4    0    0 -0.29334489887E+03  0.47520906460E+03  0.60549105369E+02  0.56740421098E+03  0.80040362991E+02 0.  0.
         24    2    4    4    0    0  0.50606650773E+03  0.16151186074E+03  0.26173899474E+03  0.59756522286E+03  0.79921854373E+02 0.  0.
         11    1    3    3    0    0  0.13472053030E+01 -0.33462629442E+02 -0.12703389128E+02  0.35818132652E+02  0.00000000000E+00 0.  1.
        -11    1    3    3    0    0 -0.21406881416E+03 -0.60325829590E+03  0.83657939972E+02  0.64555765017E+03  0.00000000000E+00 0. -1.
          2    1    6    6  502    0  0.48033010702E+03  0.16867285623E+03  0.25754671007E+03  0.57052419055E+03  0.00000000000E+00 0. -1.
          3    1    5    5  503    0 -0.27454888453E+03  0.40852508885E+03  0.71117813543E+02  0.49732040137E+03  0.00000000000E+00 0. -1.
         -4    1    5    5    0  503 -0.18796014336E+02  0.66683975753E+02 -0.10568708174E+02  0.70083809611E+02  0.00000000000E+00 0.  1.
         -1    1    6    6    0  502  0.25736400709E+02 -0.71609954881E+01  0.41922846723E+01  0.27041032314E+02  0.00000000000E+00 0.  1.
<mgrwt>
<rscale>  0 0.18039820E+04</rscale>
<asrwt>0</asrwt>
<pdfrwt beam="1">  1        2 0.11177712E+00 0.18039820E+04</pdfrwt>
<pdfrwt beam="2">  1       -2 0.17227599E+00 0.18039820E+04</pdfrwt>
<totfact> 0.75674497E+00</totfact>
</mgrwt>
</event>
<event>
12    1  0.1472088E-007  0.1645344E+04  0.7818608E-02  0.8793165E-01
         -1   -1    0    0    0  501 -0.00000000000E+00  0.00000000000E+00  0.55841292553E+03  0.55841292553E+03  0.00000000000E+00 0.  1.
          1   -1    0    0  501    0  0.00000000000E+00 -0.00000000000E+00 -0.12119876048E+04  0.12119876048E+04  0.00000000000E+00 0. -1.
         23    2    1    2    0    0 -0.49693498969E+03 -0.18734377367E+03  0.17438824378E+02  0.53915707982E+03  0.91346431885E+02 0.  0.
        254    2    1    2    0    0  0.49693498969E+03  0.18734377367E+03 -0.67101350362E+03  0.12312434505E+04  0.88524529867E+03 0.  0.
        -24    2    4    4    0    0  0.53114265161E+02 -0.32723538067E+03 -0.16006886443E+03  0.37707870344E+03  0.81622225548E+02 0.  0.
         24    2    4    4    0    0  0.44382072453E+03  0.51457915434E+03 -0.51094463919E+03  0.85416474705E+03  0.82246271577E+02 0.  0.
         13    1    3    3    0    0 -0.28336451303E+03 -0.14271029237E+03  0.40111150026E+02  0.31979771598E+03  0.00000000000E+00 0.  1.
        -13    1    3    3    0    0 -0.21357047666E+03 -0.44633481301E+02 -0.22672325648E+02  0.21935936384E+03  0.00000000000E+00 0. -1.
          2    1    6    6  502    0  0.43003302711E+03  0.46774061477E+03 -0.46791985182E+03  0.78908724159E+03  0.00000000000E+00 0. -1.
          1    1    5    5  503    0  0.71833802223E+02 -0.29897492264E+03 -0.14581199726E+03  0.34030462538E+03  0.00000000000E+00 0. -1.
         -2    1    5    5    0  503 -0.18719537061E+02 -0.28260458028E+02 -0.14256867172E+02  0.36774078062E+02  0.00000000000E+00 0.  1.
         -1    1    6    6    0  502  0.13787697417E+02  0.46838539569E+02 -0.43024787370E+02  0.65077505463E+02  0.00000000000E+00 0.  1.
<mgrwt>
<rscale>  0 0.16453444E+04</rscale>
<asrwt>0</asrwt>
<pdfrwt beam="1">  1        1 0.18645963E+00 0.16453444E+04</pdfrwt>
<pdfrwt beam="2">  1       -1 0.85909682E-01 0.16453444E+04</pdfrwt>
<totfact> 0.13393371E+01</totfact>
</mgrwt>
</event>
<event>
12    1  0.1472088E-007  0.1744308E+04  0.7818608E-02  0.8736490E-01
         -2   -1    0    0    0  501 -0.00000000000E+00  0.00000000000E+00  0.24404058125E+03  0.24404058125E+03  0.00000000000E+00 0.  1.
          2   -1    0    0  501    0  0.00000000000E+00 -0.00000000000E+00 -0.31169111840E+04  0.31169111840E+04  0.00000000000E+00 0. -1.
         23    2    1    2    0    0  0.27521413602E+03 -0.48175593180E+03 -0.16327237035E+04  0.17268524030E+04  0.91656593013E+02 0.  0.
        254    2    1    2    0    0 -0.27521413602E+03  0.48175593180E+03 -0.12401468992E+04  0.16340993623E+04  0.90801145131E+03 0.  0.
        -24    2    4    4    0    0 -0.26966546708E+02  0.51835289835E+03 -0.20114046301E+03  0.56219425081E+03  0.78663637784E+02 0.  0.
         24    2    4    4    0    0 -0.24824758932E+03 -0.36596966552E+02 -0.10390064362E+04  0.10719051115E+04  0.80498384942E+02 0.  0.
         11    1    3    3    0    0  0.11230672912E+03 -0.17432240639E+03 -0.48290050999E+03  0.52554163044E+03  0.00000000000E+00 0.  1.
        -11    1    3    3    0    0  0.16290740691E+03 -0.30743352541E+03 -0.11498231936E+04  0.12013107725E+04  0.00000000000E+00 0. -1.
          2    1    6    6  502    0 -0.60432555876E+01 -0.10606429600E+02 -0.15080581486E+02  0.19402093312E+02  0.00000000000E+00 0. -1.
          3    1    5    5  503    0 -0.89316108637E+01  0.65226801533E+01  0.19834063860E+01  0.11236232905E+02  0.00000000000E+00 0. -1.
         -4    1    5    5    0  503 -0.18034935844E+02  0.51183021820E+03 -0.20312386939E+03  0.55095801790E+03  0.00000000000E+00 0.  1.
         -1    1    6    6    0  502 -0.24220433373E+03 -0.25990536952E+02 -0.10239258547E+04  0.10525030182E+04  0.00000000000E+00 0.  1.
<mgrwt>
<rscale>  0 0.17443082E+04</rscale>
<asrwt>0</asrwt>
<pdfrwt beam="1">  1        2 0.47952478E+00 0.17443082E+04</pdfrwt>
<pdfrwt beam="2">  1       -2 0.37544706E-01 0.17443082E+04</pdfrwt>
<totfact> 0.93633719E+00</totfact>
</mgrwt>
</event>
<event>
12    1  0.1472088E-007  0.2291357E+04  0.7818608E-02  0.8481337E-01
         -1   -1    0    0    0  501 -0.00000000000E+00  0.00000000000E+00  0.89891085044E+03  0.89891085044E+03  0.00000000000E+00 0.  1.
          1   -1    0    0  501    0  0.00000000000E+00 -0.00000000000E+00 -0.14601879558E+04  0.14601879558E+04  0.00000000000E+00 0. -1.
         23    2    1    2    0    0 -0.37801725057E+03 -0.88929625549E+03 -0.32771707416E+03  0.10242774806E+04  0.89448336035E+02 0.  0.
        254    2    1    2    0    0  0.37801725057E+03  0.88929625549E+03 -0.23356003116E+03  0.13348213256E+04  0.89075968214E+03 0.  0.
        -24    2    4    4    0    0  0.43665415555E+03  0.16740730966E+03 -0.36002908541E+03  0.59560608060E+03  0.80209737694E+02 0.  0.
         24    2    4    4    0    0 -0.58636904973E+02  0.72188894584E+03  0.12646905425E+03  0.73921524499E+03  0.76699543706E+02 0.  0.
         11    1    3    3    0    0 -0.37296161600E+03 -0.82850688050E+03 -0.29639181437E+03  0.95570504115E+03  0.00000000000E+00 0.  1.
        -11    1    3    3    0    0 -0.50556345753E+01 -0.60789374992E+02 -0.31325259792E+02  0.68572439463E+02  0.00000000000E+00 0. -1.
          2    1    6    6  502    0 -0.63522027764E+02  0.56103209361E+03  0.12494916084E+03  0.57827705372E+03  0.00000000000E+00 0. -1.
          1    1    5    5  503    0  0.39125846034E+03  0.12997030270E+03 -0.28958628772E+03  0.50382107976E+03  0.00000000000E+00 0. -1.
         -4    1    5    5    0  503  0.45395695208E+02  0.37437006959E+02 -0.70442797685E+02  0.91785000840E+02  0.00000000000E+00 0.  1.
         -1    1    6    6    0  502  0.48851227915E+01  0.16085685223E+03  0.15198934094E+01  0.16093819127E+03  0.00000000000E+00 0.  1.
<mgrwt>
<rscale>  0 0.22913566E+04</rscale>
<asrwt>0</asrwt>
<pdfrwt beam="1">  1        1 0.22464430E+00 0.22913566E+04</pdfrwt>
<pdfrwt beam="2">  1       -1 0.13829398E+00 0.22913566E+04</pdfrwt>
<totfact> 0.27297608E+00</totfact>
</mgrwt>
</event>
<event>
12    1  0.1472088E-007  0.3425225E+04  0.7818608E-02  0.8131743E-01
          1   -1    0    0  501    0  0.00000000000E+00  0.00000000000E+00  0.15636934041E+04  0.15636934041E+04  0.00000000000E+00 0. -1.
         -1   -1    0    0    0  501 -0.00000000000E+00 -0.00000000000E+00 -0.18757136387E+04  0.18757136387E+04  0.00000000000E+00 0.  1.
         23    2    1    2    0    0  0.15622216301E+04 -0.26252747948E+03 -0.35270865733E+03  0.16254579727E+04  0.90846711986E+02 0.  0.
        254    2    1    2    0    0 -0.15622216301E+04  0.26252747948E+03  0.40688422710E+02  0.18139490702E+04  0.88277889782E+03 0.  0.
        -24    2    4    4    0    0 -0.12932103154E+04  0.28872637701E+03 -0.31092407930E+03  0.13633674528E+04  0.79631573255E+02 0.  0.
         24    2    4    4    0    0 -0.26901131464E+03 -0.26198897528E+02  0.35161250201E+03  0.45058161739E+03  0.79617665915E+02 0.  0.
         11    1    3    3    0    0  0.11767373880E+04 -0.16612625435E+03 -0.28882663554E+03  0.12230002609E+04  0.00000000000E+00 0.  1.
        -11    1    3    3    0    0  0.38548424208E+03 -0.96401225129E+02 -0.63882021798E+02  0.40245771182E+03  0.00000000000E+00 0. -1.
          2    1    6    6  502    0 -0.11605684237E+03  0.13415193634E+02  0.19989621761E+03  0.23153327168E+03  0.00000000000E+00 0. -1.
          1    1    5    5  503    0 -0.11617742509E+04  0.23431643113E+03 -0.27985546615E+03  0.12177613403E+04  0.00000000000E+00 0. -1.
         -2    1    5    5    0  503 -0.13143606453E+03  0.54409945879E+02 -0.31068613150E+02  0.14560611248E+03  0.00000000000E+00 0.  1.
         -1    1    6    6    0  502 -0.15295447227E+03 -0.39614091162E+02  0.15171628439E+03  0.21904834570E+03  0.00000000000E+00 0.  1.
<mgrwt>
<rscale>  0 0.34252247E+04</rscale>
<asrwt>0</asrwt>
<pdfrwt beam="1">  1        1 0.24056822E+00 0.34252247E+04</pdfrwt>
<pdfrwt beam="2">  1       -1 0.28857133E+00 0.34252247E+04</pdfrwt>
<totfact> 0.19003554E-01</totfact>
</mgrwt>
</event>
<event>
12    1  0.1472088E-007  0.2887240E+04  0.7818608E-02  0.8276684E-01
         -2   -1    0    0    0  501 -0.00000000000E+00  0.00000000000E+00  0.17034099068E+04  0.17034099068E+04  0.00000000000E+00 0.  1.
          2   -1    0    0  501    0  0.00000000000E+00 -0.00000000000E+00 -0.12234512347E+04  0.12234512347E+04  0.00000000000E+00 0. -1.
         23    2    1    2    0    0  0.12722041890E+04  0.12829390562E+03 -0.48531247756E+02  0.12826840408E+04  0.89220187374E+02 0.  0.
        254    2    1    2    0    0 -0.12722041890E+04 -0.12829390562E+03  0.52848991987E+03  0.16441771006E+04  0.88828706958E+03 0.  0.
        -24    2    4    4    0    0 -0.90752859424E+03 -0.19005552980E+03 -0.73142189419E+02  0.93338357178E+03  0.78267863271E+02 0.  0.
         24    2    4    4    0    0 -0.36467559477E+03  0.61761624182E+02  0.60163210928E+03  0.71079352883E+03  0.80395634551E+02 0.  0.
         13    1    3    3    0    0  0.78196934476E+02  0.28864256990E+02  0.33483089583E+01  0.83421322610E+02  0.00000000000E+00 0.  1.
        -13    1    3    3    0    0  0.11940072545E+04  0.99429648626E+02 -0.51879556714E+02  0.11992627182E+04  0.00000000000E+00 0. -1.
          4    1    6    6  502    0 -0.28074614927E+03  0.81383526579E+02  0.46261485935E+03  0.54722407369E+03  0.00000000000E+00 0. -1.
          3    1    5    5  503    0 -0.86799305090E+03 -0.19230980744E+03 -0.57809716125E+02  0.89091916678E+03  0.00000000000E+00 0. -1.
         -4    1    5    5    0  503 -0.39535543338E+02  0.22542776435E+01 -0.15332473294E+02  0.42464405000E+02  0.00000000000E+00 0.  1.
         -3    1    6    6    0  502 -0.83929445506E+02 -0.19621902397E+02  0.13901724993E+03  0.16356945514E+03  0.00000000000E+00 0.  1.
<mgrwt>
<rscale>  0 0.28872402E+04</rscale>
<asrwt>0</asrwt>
<pdfrwt beam="1">  1        2 0.18822327E+00 0.28872402E+04</pdfrwt>
<pdfrwt beam="2">  1       -2 0.26206306E+00 0.28872402E+04</pdfrwt>
<totfact> 0.85872246E-01</totfact>
</mgrwt>
</event>
<event>
12    1  0.1860245E-007  0.1915895E+04  0.7818608E-02  0.8646985E-01
          2   -1    0    0  501    0  0.00000000000E+00  0.00000000000E+00  0.13550967269E+04  0.13550967269E+04  0.00000000000E+00 0. -1.
         -2   -1    0    0    0  501 -0.00000000000E+00 -0.00000000000E+00 -0.67719369214E+03  0.67719369214E+03  0.00000000000E+00 0.  1.
         23    2    1    2    0    0  0.30625148571E+03  0.26684379561E+03 -0.39247343282E+03  0.57215740085E+03  0.91285881298E+02 0.  0.
        254    2    1    2    0    0 -0.30625148571E+03 -0.26684379561E+03  0.10703764676E+04  0.14601330182E+04  0.90624889777E+03 0.  0.
        -24    2    4    4    0    0 -0.23579128371E+03  0.27818407637E+02 -0.85185550235E+02  0.26297939391E+03  0.74365249765E+02 0.  0.
         24    2    4    4    0    0 -0.70460201999E+02 -0.29466220325E+03  0.11555620178E+04  0.11971536243E+04  0.77863785101E+02 0.  0.
         11    1    3    3    0    0  0.27489496842E+03  0.25846259844E+03 -0.32791217414E+03  0.49989654170E+03  0.00000000000E+00 0.  1.
        -11    1    3    3    0    0  0.31356517290E+02  0.83811971662E+01 -0.64561258682E+02  0.72260859151E+02  0.00000000000E+00 0. -1.
          2    1    6    6  502    0  0.13072543343E+02 -0.19047989685E+02  0.12452530723E+03  0.12665018532E+03  0.00000000000E+00 0. -1.
          3    1    5    5  503    0  0.36731716864E+01  0.47678612643E+00  0.44867729466E+01  0.58181308616E+01  0.00000000000E+00 0. -1.
         -4    1    5    5    0  503 -0.23946445540E+03  0.27341621511E+02 -0.89672323182E+02  0.25716126305E+03  0.00000000000E+00 0.  1.
         -1    1    6    6    0  502 -0.83532745342E+02 -0.27561421356E+03  0.10310367106E+04  0.10705034390E+04  0.00000000000E+00 0.  1.
<mgrwt>
<rscale>  0 0.19158945E+04</rscale>
<asrwt>0</asrwt>
<pdfrwt beam="1">  1        2 0.20847642E+00 0.19158945E+04</pdfrwt>
<pdfrwt beam="2">  1       -2 0.10418365E+00 0.19158945E+04</pdfrwt>
<totfact> 0.10760850E+01</totfact>
</mgrwt>
</event>
<event>
12    1  0.1472088E-007  0.1520463E+04  0.7818608E-02  0.8870958E-01
          1   -1    0    0  501    0  0.00000000000E+00  0.00000000000E+00  0.85787448329E+03  0.85787448329E+03  0.00000000000E+00 0. -1.
         -1   -1    0    0    0  501 -0.00000000000E+00 -0.00000000000E+00 -0.67370231714E+03  0.67370231714E+03  0.00000000000E+00 0.  1.
         23    2    1    2    0    0 -0.18669314850E+03  0.44303383840E+03  0.19441538864E+03  0.52639034361E+03  0.90311332857E+02 0.  0.
        254    2    1    2    0    0  0.18669314850E+03 -0.44303383840E+03 -0.10243222490E+02  0.10051864568E+04  0.88270129472E+03 0.  0.
        -24    2    4    4    0    0  0.31412932680E+03 -0.78766964867E+02  0.33988062067E+03  0.47802037532E+03  0.90017632718E+02 0.  0.
         24    2    4    4    0    0 -0.12743617829E+03 -0.36426687353E+03 -0.35012384316E+03  0.52716608150E+03  0.79918941730E+02 0.  0.
         13    1    3    3    0    0 -0.12529991749E+03  0.30025142471E+03  0.17594412911E+03  0.36987474087E+03  0.00000000000E+00 0. -1.
        -13    1    3    3    0    0 -0.61393231008E+02  0.14278241369E+03  0.18471259523E+02  0.15651560274E+03  0.00000000000E+00 0.  1.
          2    1    6    6  502    0  0.89532700407E+01 -0.65781042378E+01 -0.12701122786E+02  0.16874567248E+02  0.00000000000E+00 0. -1.
          3    1    5    5  503    0  0.19776815758E+02  0.69817250877E+00 -0.20553571352E+01  0.19895586932E+02  0.00000000000E+00 0. -1.
         -4    1    5    5    0  503  0.29435251104E+03 -0.79465137376E+02  0.34193597781E+03  0.45812478838E+03  0.00000000000E+00 0.  1.
         -1    1    6    6    0  502 -0.13638944833E+03 -0.35768876929E+03 -0.33742272038E+03  0.51029151426E+03  0.00000000000E+00 0.  1.
<mgrwt>
<rscale>  0 0.15204631E+04</rscale>
<asrwt>0</asrwt>
<pdfrwt beam="1">  1        1 0.13198069E+00 0.15204631E+04</pdfrwt>
<pdfrwt beam="2">  1       -1 0.10364651E+00 0.15204631E+04</pdfrwt>
<totfact> 0.16719885E+01</totfact>
</mgrwt>
</event>
<event>
12    1  0.1472088E-007  0.1822378E+04  0.7818608E-02  0.8694489E-01
         -1   -1    0    0    0  501 -0.00000000000E+00  0.00000000000E+00  0.67800582336E+03  0.67800582336E+03  0.00000000000E+00 0.  1.
          1   -1    0    0  501    0  0.00000000000E+00 -0.00000000000E+00 -0.12245698852E+04  0.12245698852E+04  0.00000000000E+00 0. -1.
         23    2    1    2    0    0 -0.12263673331E+03 -0.26088332953E+03 -0.86446445008E+03  0.91582507896E+03  0.91306680041E+02 0.  0.
        254    2    1    2    0    0  0.12263673331E+03  0.26088332953E+03  0.31790038825E+03  0.98675062959E+03  0.88854727964E+03 0.  0.
        -24    2    4    4    0    0  0.73487751788E+02  0.33052029060E+03 -0.23616188135E+03  0.42057575715E+03  0.80420278162E+02 0.  0.
         24    2    4    4    0    0  0.49148981525E+02 -0.69636961070E+02  0.55406226960E+03  0.56617487244E+03  0.79398103573E+02 0.  0.
         11    1    3    3    0    0 -0.83845078381E+02 -0.22289210285E+03 -0.59388825801E+03  0.63985478797E+03  0.00000000000E+00 0.  1.
        -11    1    3    3    0    0 -0.38791654932E+02 -0.37991226678E+02 -0.27057619207E+03  0.27597029099E+03  0.00000000000E+00 0. -1.
          4    1    6    6  502    0  0.36428713791E+02 -0.70278527826E+02  0.25874039972E+03  0.27057848604E+03  0.00000000000E+00 0. -1.
          3    1    5    5  503    0 -0.24204344942E+01 -0.17466718380E+00  0.41435596889E+01  0.48018849071E+01  0.00000000000E+00 0. -1.
         -4    1    5    5    0  503  0.75908186282E+02  0.33069495778E+03 -0.24030544103E+03  0.41577387224E+03  0.00000000000E+00 0.  1.
         -3    1    6    6    0  502  0.12720267734E+02  0.64156675635E+00  0.29532186988E+03  0.29559638639E+03  0.00000000000E+00 0.  1.
<mgrwt>
<rscale>  0 0.18223781E+04</rscale>
<asrwt>0</asrwt>
<pdfrwt beam="1">  1        1 0.18839536E+00 0.18223781E+04</pdfrwt>
<pdfrwt beam="2">  1       -1 0.10430859E+00 0.18223781E+04</pdfrwt>
<totfact> 0.83496580E+00</totfact>
</mgrwt>
</event>
<event>
12    1  0.1472088E-007  0.1466850E+04  0.7818608E-02  0.8906802E-01
          1   -1    0    0  501    0  0.00000000000E+00  0.00000000000E+00  0.92149268268E+03  0.92149268268E+03  0.00000000000E+00 0. -1.
         -1   -1    0    0    0  501 -0.00000000000E+00 -0.00000000000E+00 -0.58373985070E+03  0.58373985070E+03  0.00000000000E+00 0.  1.
         23    2    1    2    0    0  0.29695684209E+03  0.70877340741E+02  0.45750740445E+03  0.55726465574E+03  0.89576268757E+02 0.  0.
        254    2    1    2    0    0 -0.29695684209E+03 -0.70877340741E+02 -0.11975457247E+03  0.94796787763E+03  0.88943520051E+03 0.  0.
        -24    2    4    4    0    0  0.17966161151E+03  0.32693054919E+02 -0.35018912125E+03  0.40275334840E+03  0.78934837173E+02 0.  0.
         24    2    4    4    0    0 -0.47661845360E+03 -0.10357039566E+03  0.23043454878E+03  0.54521452923E+03  0.79163277138E+02 0.  0.
         11    1    3    3    0    0  0.13372409407E+03  0.23073232930E+02  0.12847606438E+03  0.18687056091E+03  0.00000000000E+00 0.  1.
        -11    1    3    3    0    0  0.16323274802E+03  0.47804107810E+02  0.32903134006E+03  0.37039409484E+03  0.00000000000E+00 0. -1.
          4    1    6    6  502    0 -0.41072876936E+03 -0.10266867285E+03  0.17141290528E+03  0.45675087571E+03  0.00000000000E+00 0. -1.
          1    1    5    5  503    0  0.12819370920E+03  0.42757137756E+02 -0.30473202046E+03  0.33335177246E+03  0.00000000000E+00 0. -1.
         -2    1    5    5    0  503  0.51467902310E+02 -0.10064082837E+02 -0.45457100786E+02  0.69401575943E+02  0.00000000000E+00 0.  1.
         -3    1    6    6    0  502 -0.65889684237E+02 -0.90172280436E+00  0.59021643499E+02  0.88463653520E+02  0.00000000000E+00 0.  1.
<mgrwt>
<rscale>  0 0.14668497E+04</rscale>
<asrwt>0</asrwt>
<pdfrwt beam="1">  1        1 0.14176811E+00 0.14668497E+04</pdfrwt>
<pdfrwt beam="2">  1       -1 0.89806131E-01 0.14668497E+04</pdfrwt>
<totfact> 0.20579139E+01</totfact>
</mgrwt>
</event>
<event>
12    1  0.1472088E-007  0.1143166E+04  0.7818608E-02  0.9164111E-01
         -2   -1    0    0    0  501 -0.00000000000E+00  0.00000000000E+00  0.30515228766E+03  0.30515228766E+03  0.00000000000E+00 0.  1.
          2   -1    0    0  501    0  0.00000000000E+00 -0.00000000000E+00 -0.10706371396E+04  0.10706371396E+04  0.00000000000E+00 0. -1.
         23    2    1    2    0    0  0.17923445693E+03  0.10593852842E+03 -0.11250878178E+03  0.25298893403E+03  0.89427134645E+02 0.  0.
        254    2    1    2    0    0 -0.17923445693E+03 -0.10593852842E+03 -0.65297607018E+03  0.11228004932E+04  0.88935664222E+03 0.  0.
        -24    2    4    4    0    0 -0.37313722452E+02 -0.48888926754E+03 -0.37376414770E+03  0.62165480591E+03  0.79687074217E+02 0.  0.
         24    2    4    4    0    0 -0.14192073448E+03  0.38295073913E+03 -0.27921192247E+03  0.50114568734E+03  0.79968361337E+02 0.  0.
         13    1    3    3    0    0  0.13116990101E+03  0.28765171276E+02 -0.53221174322E+02  0.14444885394E+03  0.00000000000E+00 0.  1.
        -13    1    3    3    0    0  0.48064555928E+02  0.77173357140E+02 -0.59287607455E+02  0.10854008009E+03  0.00000000000E+00 0. -1.
          4    1    6    6  502    0 -0.13820473365E+03  0.34606037871E+03 -0.22445040668E+03  0.43501301035E+03  0.00000000000E+00 0. -1.
          1    1    5    5  503    0 -0.18672580948E+02 -0.13676639587E+03 -0.15091754242E+03  0.20452338969E+03  0.00000000000E+00 0. -1.
         -2    1    5    5    0  503 -0.18641141504E+02 -0.35212287167E+03 -0.22284660528E+03  0.41713141622E+03  0.00000000000E+00 0.  1.
         -3    1    6    6    0  502 -0.37160008333E+01  0.36890360416E+02 -0.54761515791E+02  0.66132676988E+02  0.00000000000E+00 0.  1.
<mgrwt>
<rscale>  0 0.11431664E+04</rscale>
<asrwt>0</asrwt>
<pdfrwt beam="1">  1        2 0.16471341E+00 0.11431664E+04</pdfrwt>
<pdfrwt beam="2">  1       -2 0.46946506E-01 0.11431664E+04</pdfrwt>
<totfact> 0.96735213E+01</totfact>
</mgrwt>
</event>
<event>
12    1  0.1472088E-007  0.4081923E+04  0.7818608E-02  0.7988221E-01
          2   -1    0    0  501    0  0.00000000000E+00  0.00000000000E+00  0.34162074981E+04  0.34162074981E+04  0.00000000000E+00 0. -1.
         -2   -1    0    0    0  501 -0.00000000000E+00 -0.00000000000E+00 -0.12193413281E+04  0.12193413281E+04  0.00000000000E+00 0.  1.
         23    2    1    2    0    0  0.16494846648E+04  0.96430445954E+03  0.14275235018E+04  0.23867947857E+04  0.91012365260E+02 0.  0.
        254    2    1    2    0    0 -0.16494846648E+04 -0.96430445954E+03  0.76934266816E+03  0.22487540405E+04  0.90239893791E+03 0.  0.
        -24    2    4    4    0    0 -0.45180543087E+03 -0.75842760526E+03  0.42957050499E+03  0.98487931004E+03  0.78203943728E+02 0.  0.
         24    2    4    4    0    0 -0.11976792340E+04 -0.20587685428E+03  0.33977216317E+03  0.12638747304E+04  0.71507934292E+02 0.  0.
         11    1    3    3    0    0  0.79391512482E+03  0.51115542743E+03  0.73047941639E+03  0.11938095636E+04  0.00000000000E+00 0. -1.
        -11    1    3    3    0    0  0.85556954002E+03  0.45314903211E+03  0.69704408541E+03  0.11929852221E+04  0.00000000000E+00 0.  1.
          4    1    6    6  502    0 -0.12705428125E+03 -0.74316187877E+01  0.53133696081E+02  0.13791739920E+03  0.00000000000E+00 0. -1.
          1    1    5    5  503    0 -0.24425134876E+02 -0.22400904190E+02  0.29749977168E+02  0.44535927786E+02  0.00000000000E+00 0. -1.
         -2    1    5    5    0  503 -0.42738029600E+03 -0.73602670107E+03  0.39982052782E+03  0.94034338226E+03  0.00000000000E+00 0.  1.
         -3    1    6    6    0  502 -0.10706249527E+04 -0.19844523550E+03  0.28663846709E+03  0.11259573312E+04  0.00000000000E+00 0.  1.
<mgrwt>
<rscale>  0 0.40819226E+04</rscale>
<asrwt>0</asrwt>
<pdfrwt beam="1">  1        2 0.52557038E+00 0.40819226E+04</pdfrwt>
<pdfrwt beam="2">  1       -2 0.18759097E+00 0.40819226E+04</pdfrwt>
<totfact> 0.11700426E-01</totfact>
</mgrwt>
</event>
<event>
12    1  0.1472088E-007  0.1643451E+04  0.7818608E-02  0.8794290E-01
         -2   -1    0    0    0  501 -0.00000000000E+00  0.00000000000E+00  0.18074047987E+03  0.18074047987E+03  0.00000000000E+00 0.  1.
          2   -1    0    0  501    0  0.00000000000E+00 -0.00000000000E+00 -0.37359261230E+04  0.37359261230E+04  0.00000000000E+00 0. -1.
         23    2    1    2    0    0 -0.33517796642E+03  0.45887379558E+03 -0.15229429366E+04  0.16281803235E+04  0.93308885038E+02 0.  0.
        254    2    1    2    0    0  0.33517796642E+03 -0.45887379558E+03 -0.20322427065E+04  0.22884862794E+04  0.88557868286E+03 0.  0.
        -24    2    4    4    0    0  0.41485606595E+03 -0.58543371926E+03 -0.95416162565E+03  0.11970614958E+04  0.87713292869E+02 0.  0.
         24    2    4    4    0    0 -0.79678099535E+02  0.12655992368E+03 -0.10780810809E+04  0.10914247837E+04  0.81137091376E+02 0.  0.
         13    1    3    3    0    0 -0.25310295849E+01  0.31022921497E+02 -0.12617957180E+03  0.12996196408E+03  0.00000000000E+00 0. -1.
        -13    1    3    3    0    0 -0.33264693683E+03  0.42785087408E+03 -0.13967633648E+04  0.14982183594E+04  0.00000000000E+00 0.  1.
          4    1    6    6  502    0 -0.22917037480E+02  0.10757312651E+03 -0.66636886576E+03  0.67538480395E+03  0.00000000000E+00 0. -1.
          3    1    5    5  503    0  0.36665547423E+03 -0.46160403380E+03 -0.76133976818E+03  0.96288772108E+03  0.00000000000E+00 0. -1.
         -4    1    5    5    0  503  0.48200591720E+02 -0.12382968545E+03 -0.19282185747E+03  0.23417377470E+03  0.00000000000E+00 0.  1.
         -3    1    6    6    0  502 -0.56761062055E+02  0.18986797166E+02 -0.41171221512E+03  0.41603997970E+03  0.00000000000E+00 0.  1.
<mgrwt>
<rscale>  0 0.16434513E+04</rscale>
<asrwt>0</asrwt>
<pdfrwt beam="1">  1        2 0.57475784E+00 0.16434513E+04</pdfrwt>
<pdfrwt beam="2">  1       -2 0.27806229E-01 0.16434513E+04</pdfrwt>
<totfact> 0.62843086E+00</totfact>
</mgrwt>
</event>
<event>
12    1  0.1472088E-007  0.1277146E+04  0.7818608E-02  0.9047888E-01
          1   -1    0    0  501    0  0.00000000000E+00  0.00000000000E+00  0.13066874245E+04  0.13066874245E+04  0.00000000000E+00 0. -1.
         -1   -1    0    0    0  501 -0.00000000000E+00 -0.00000000000E+00 -0.31206797511E+03  0.31206797511E+03  0.00000000000E+00 0.  1.
         23    2    1    2    0    0 -0.74739381135E+02 -0.66705989467E+01  0.66251780212E+03  0.67317689297E+03  0.92772943886E+02 0.  0.
        254    2    1    2    0    0  0.74739381135E+02  0.66705989467E+01  0.33210164730E+03  0.94557850668E+03  0.88215459879E+03 0.  0.
        -24    2    4    4    0    0 -0.17016535506E+03  0.30415554445E+03 -0.89624114988E+02  0.36938592398E+03  0.83346479018E+02 0.  0.
         24    2    4    4    0    0  0.24490473619E+03 -0.29748494551E+03  0.42172576229E+03  0.57619258270E+03  0.75297086051E+02 0.  0.
         11    1    3    3    0    0 -0.22936146739E+02  0.20911013879E+02  0.48936964958E+03  0.49035292521E+03  0.00000000000E+00 0. -1.
        -11    1    3    3    0    0 -0.51803234395E+02 -0.27581612826E+02  0.17314815254E+03  0.18282396776E+03  0.00000000000E+00 0.  1.
          2    1    6    6  502    0  0.19711660173E+03 -0.22091959623E+03  0.27591802892E+03  0.40471123207E+03  0.00000000000E+00 0. -1.
          3    1    5    5  503    0 -0.31505000282E+02  0.92115137985E+02  0.84339709727E+01  0.97718450433E+02  0.00000000000E+00 0. -1.
         -4    1    5    5    0  503 -0.13866035477E+03  0.21204040647E+03 -0.98058085960E+02  0.27166747355E+03  0.00000000000E+00 0.  1.
         -1    1    6    6    0  502  0.47788134460E+02 -0.76565349273E+02  0.14580773337E+03  0.17148135063E+03  0.00000000000E+00 0.  1.
<mgrwt>
<rscale>  0 0.12771457E+04</rscale>
<asrwt>0</asrwt>
<pdfrwt beam="1">  1        1 0.20102883E+00 0.12771457E+04</pdfrwt>
<pdfrwt beam="2">  1       -1 0.48010459E-01 0.12771457E+04</pdfrwt>
<totfact> 0.38166900E+01</totfact>
</mgrwt>
</event>
<event>
12    1  0.1472088E-007  0.2041377E+04  0.7818608E-02  0.8587516E-01
         -2   -1    0    0    0  501 -0.00000000000E+00  0.00000000000E+00  0.95417462856E+03  0.95417462856E+03  0.00000000000E+00 0.  1.
          2   -1    0    0  501    0  0.00000000000E+00 -0.00000000000E+00 -0.10918388233E+04  0.10918388233E+04  0.00000000000E+00 0. -1.
         23    2    1    2    0    0  0.31635275125E+03  0.32111215519E+03  0.62933305625E+03  0.77956478147E+03  0.92027568642E+02 0.  0.
        254    2    1    2    0    0 -0.31635275125E+03 -0.32111215519E+03 -0.76699725094E+03  0.12664486703E+04  0.90134087461E+03 0.  0.
        -24    2    4    4    0    0 -0.54109446512E+03 -0.42887880768E+03 -0.72068651500E+03  0.10012241623E+04  0.79627371898E+02 0.  0.
         24    2    4    4    0    0  0.22474171387E+03  0.10776665249E+03 -0.46310735944E+02  0.26522450808E+03  0.77954256326E+02 0.  0.
         11    1    3    3    0    0  0.30041508418E+03  0.26646243639E+03  0.52819936422E+03  0.66351037760E+03  0.00000000000E+00 0.  1.
        -11    1    3    3    0    0  0.15937667065E+02  0.54649718793E+02  0.10113369202E+03  0.11605440387E+03  0.00000000000E+00 0. -1.
          2    1    6    6  502    0  0.19062842393E+03  0.80890623792E+02 -0.78756231635E+01  0.20723058285E+03  0.00000000000E+00 0. -1.
          3    1    5    5  503    0 -0.45129026327E+03 -0.35068077048E+03 -0.55062258172E+03  0.79361522920E+03  0.00000000000E+00 0. -1.
         -4    1    5    5    0  503 -0.89804201847E+02 -0.78198037194E+02 -0.17006393327E+03  0.20760893307E+03  0.00000000000E+00 0.  1.
         -1    1    6    6    0  502  0.34113289941E+02  0.26876028697E+02 -0.38435112780E+02  0.57993925230E+02  0.00000000000E+00 0.  1.
<mgrwt>
<rscale>  0 0.20413769E+04</rscale>
<asrwt>0</asrwt>
<pdfrwt beam="1">  1        2 0.16797520E+00 0.20413769E+04</pdfrwt>
<pdfrwt beam="2">  1       -2 0.14679610E+00 0.20413769E+04</pdfrwt>
<totfact> 0.64743439E+00</totfact>
</mgrwt>
</event>
<event>
12    1  0.1472088E-007  0.1856471E+04  0.7818608E-02  0.8676832E-01
          2   -1    0    0  501    0  0.00000000000E+00  0.00000000000E+00  0.12691002130E+04  0.12691002130E+04  0.00000000000E+00 0. -1.
         -2   -1    0    0    0  501 -0.00000000000E+00 -0.00000000000E+00 -0.67892320843E+03  0.67892320843E+03  0.00000000000E+00 0.  1.
         23    2    1    2    0    0 -0.66497949307E+03 -0.10631892689E+03  0.12239997259E+02  0.67969302081E+03  0.91276199424E+02 0.  0.
        254    2    1    2    0    0  0.66497949307E+03  0.10631892689E+03  0.57793700730E+03  0.12683304006E+04  0.90617293066E+03 0.  0.
        -24    2    4    4    0    0 -0.64669028646E+02  0.26095227959E+03  0.41461795253E+03  0.50056108971E+03  0.79844739831E+02 0.  0.
         24    2    4    4    0    0  0.72964852172E+03 -0.15463335269E+03  0.16331905476E+03  0.76776931090E+03  0.80611178475E+02 0.  0.
         13    1    3    3    0    0 -0.17108563150E+03 -0.41872343730E+02 -0.34295798393E+02  0.17944299447E+03  0.00000000000E+00 0. -1.
        -13    1    3    3    0    0 -0.49389386157E+03 -0.64446583163E+02  0.46535795652E+02  0.50025002634E+03  0.00000000000E+00 0.  1.
          2    1    6    6  502    0  0.40218180294E+03 -0.11979634898E+03  0.69583872877E+02  0.42537428602E+03  0.00000000000E+00 0. -1.
          1    1    5    5  503    0  0.39770473637E+01  0.33808943410E+02  0.10557740044E+03  0.11092992853E+03  0.00000000000E+00 0. -1.
         -2    1    5    5    0  503 -0.68646076009E+02  0.22714333618E+03  0.30904055209E+03  0.38963116117E+03  0.00000000000E+00 0.  1.
         -1    1    6    6    0  502  0.32746671878E+03 -0.34837003715E+02  0.93735181887E+02  0.34239502487E+03  0.00000000000E+00 0.  1.
<mgrwt>
<rscale>  0 0.18564715E+04</rscale>
<asrwt>0</asrwt>
<pdfrwt beam="1">  1        2 0.19524619E+00 0.18564715E+04</pdfrwt>
<pdfrwt beam="2">  1       -2 0.10444972E+00 0.18564715E+04</pdfrwt>
<totfact> 0.12060151E+01</totfact>
</mgrwt>
</event>
<event>
12    1  0.1472088E-007  0.1463502E+04  0.7818608E-02  0.8909093E-01
          1   -1    0    0  501    0  0.00000000000E+00  0.00000000000E+00  0.43844134257E+03  0.43844134257E+03  0.00000000000E+00 0. -1.
         -1   -1    0    0    0  501 -0.00000000000E+00 -0.00000000000E+00 -0.12212798558E+04  0.12212798558E+04  0.00000000000E+00 0.  1.
         23    2    1    2    0    0  0.35023031848E+01  0.17592547519E+03  0.22624743063E+03  0.29999890628E+03  0.88596867631E+02 0.  0.
        254    2    1    2    0    0 -0.35023031848E+01 -0.17592547519E+03 -0.10090859439E+04  0.13597222921E+04  0.89421934142E+03 0.  0.
        -24    2    4    4    0    0 -0.33051577127E+02 -0.35525651328E+02  0.15695936299E+03  0.18216085323E+03  0.78688348343E+02 0.  0.
         24    2    4    4    0    0  0.29549273942E+02 -0.14039982386E+03 -0.11660453069E+04  0.11775614389E+04  0.80025086849E+02 0.  0.
         13    1    3    3    0    0 -0.30726547693E+02  0.11104475324E+03  0.93707755885E+02  0.14851330401E+03  0.00000000000E+00 0. -1.
        -13    1    3    3    0    0  0.34228850878E+02  0.64880721948E+02  0.13253967474E+03  0.15148560227E+03  0.00000000000E+00 0.  1.
          2    1    6    6  502    0  0.43823078207E+02 -0.12847845857E+03 -0.11150181878E+04  0.11232509673E+04  0.00000000000E+00 0. -1.
          3    1    5    5  503    0  0.49647414550E+01 -0.15633796510E+02  0.13097882657E+03  0.13200195931E+03  0.00000000000E+00 0. -1.
         -4    1    5    5    0  503 -0.38016318582E+02 -0.19891854818E+02  0.25980536421E+02  0.50158893921E+02  0.00000000000E+00 0.  1.
         -1    1    6    6    0  502 -0.14273804265E+02 -0.11921365288E+02 -0.51027119128E+02  0.54310471596E+02  0.00000000000E+00 0.  1.
<mgrwt>
<rscale>  0 0.14635021E+04</rscale>
<asrwt>0</asrwt>
<pdfrwt beam="1">  1        1 0.67452515E-01 0.14635021E+04</pdfrwt>
<pdfrwt beam="2">  1       -1 0.18788921E+00 0.14635021E+04</pdfrwt>
<totfact> 0.94079756E+00</totfact>
</mgrwt>
</event>
<event>
12    1  0.1472088E-007  0.1823438E+04  0.7818608E-02  0.8693934E-01
         -2   -1    0    0    0  501 -0.00000000000E+00  0.00000000000E+00  0.33676699153E+03  0.33676699153E+03  0.00000000000E+00 0.  1.
          2   -1    0    0  501    0  0.00000000000E+00 -0.00000000000E+00 -0.24682682570E+04  0.24682682570E+04  0.00000000000E+00 0. -1.
         23    2    1    2    0    0  0.28375177124E+03  0.62262657538E+03 -0.83241874749E+03  0.10814985295E+04  0.92407672964E+02 0.  0.
        254    2    1    2    0    0 -0.28375177124E+03 -0.62262657538E+03 -0.12990825180E+04  0.17235367190E+04  0.90265414934E+03 0.  0.
        -24    2    4    4    0    0  0.21340262847E+03  0.10259032469E+03 -0.29455870810E+03  0.38616709669E+03  0.79339381678E+02 0.  0.
         24    2    4    4    0    0 -0.49715439971E+03 -0.72521690007E+03 -0.10045238099E+04  0.13373696223E+04  0.79921041707E+02 0.  0.
         13    1    3    3    0    0  0.26927673813E+02  0.26045005103E+02 -0.74177666814E+02  0.83100951629E+02  0.00000000000E+00 0. -1.
        -13    1    3    3    0    0  0.25682409743E+03  0.59658157028E+03 -0.75824108067E+03  0.99839757784E+03  0.00000000000E+00 0.  1.
          2    1    6    6  502    0 -0.11723766681E+03 -0.14635854363E+03 -0.17109009657E+03  0.25384506093E+03  0.00000000000E+00 0. -1.
          3    1    5    5  503    0  0.52662635755E+02 -0.67634133704E+01 -0.85825707018E+02  0.10092149895E+03  0.00000000000E+00 0. -1.
         -4    1    5    5    0  503  0.16073999272E+03  0.10935373806E+03 -0.20873300109E+03  0.28524559774E+03  0.00000000000E+00 0.  1.
         -1    1    6    6    0  502 -0.37991673290E+03 -0.57885835643E+03 -0.83343371328E+03  0.10835245614E+04  0.00000000000E+00 0.  1.
<mgrwt>
<rscale>  0 0.18234377E+04</rscale>
<asrwt>0</asrwt>
<pdfrwt beam="1">  1        2 0.37973358E+00 0.18234377E+04</pdfrwt>
<pdfrwt beam="2">  1       -2 0.51810306E-01 0.18234377E+04</pdfrwt>
<totfact> 0.12050799E+01</totfact>
</mgrwt>
</event>
<event>
12    1  0.1472088E-007  0.1343489E+04  0.7818608E-02  0.8995772E-01
          1   -1    0    0  501    0  0.00000000000E+00  0.00000000000E+00  0.14780258912E+04  0.14780258912E+04  0.00000000000E+00 0. -1.
         -1   -1    0    0    0  501 -0.00000000000E+00 -0.00000000000E+00 -0.30529951263E+03  0.30529951263E+03  0.00000000000E+00 0.  1.
         23    2    1    2    0    0 -0.32090305473E+03 -0.15817838767E+03  0.42643143653E+03  0.56391379187E+03  0.90309588247E+02 0.  0.
        254    2    1    2    0    0  0.32090305473E+03  0.15817838767E+03  0.74629494203E+03  0.12194116120E+04  0.89554975630E+03 0.  0.
        -24    2    4    4    0    0 -0.49875489245E+02  0.28665510713E+03 -0.69996828194E+02  0.30988564942E+03  0.80441561912E+02 0.  0.
         24    2    4    4    0    0  0.37077854398E+03 -0.12847671946E+03  0.81629177023E+03  0.90952596254E+03  0.83199917498E+02 0.  0.
         13    1    3    3    0    0  0.44450572636E+01 -0.29239988893E+01  0.19764018888E+02  0.20467651214E+02  0.00000000000E+00 0.  1.
        -13    1    3    3    0    0 -0.32534811199E+03 -0.15525438878E+03  0.40666741765E+03  0.54344614065E+03  0.00000000000E+00 0. -1.
          2    1    6    6  502    0  0.33292632932E+03 -0.11492098269E+03  0.77797411879E+03  0.85398507161E+03  0.00000000000E+00 0. -1.
          1    1    5    5  503    0 -0.47842904406E+02  0.28950962748E+03 -0.75834516611E+02  0.30307695692E+03  0.00000000000E+00 0. -1.
         -2    1    5    5    0  503 -0.20325848390E+01 -0.28545203416E+01  0.58376884172E+01  0.68086925004E+01  0.00000000000E+00 0.  1.
         -1    1    6    6    0  502  0.37852214655E+02 -0.13555736773E+02  0.38317651432E+02  0.55540890928E+02  0.00000000000E+00 0.  1.
<mgrwt>
<rscale>  0 0.13434889E+04</rscale>
<asrwt>0</asrwt>
<pdfrwt beam="1">  1        1 0.22738860E+00 0.13434889E+04</pdfrwt>
<pdfrwt beam="2">  1       -1 0.46969157E-01 0.13434889E+04</pdfrwt>
<totfact> 0.29982646E+01</totfact>
</mgrwt>
</event>
<event>
12    1  0.1472088E-007  0.1236437E+04  0.7818608E-02  0.9081548E-01
          2   -1    0    0  501    0  0.00000000000E+00  0.00000000000E+00  0.16327023016E+04  0.16327023016E+04  0.00000000000E+00 0. -1.
         -2   -1    0    0    0  501 -0.00000000000E+00 -0.00000000000E+00 -0.23408697309E+03  0.23408697309E+03  0.00000000000E+00 0.  1.
         23    2    1    2    0    0  0.19581356903E+03  0.13933382793E+03  0.55611792746E+03  0.61252897680E+03  0.90375487578E+02 0.  0.
        254    2    1    2    0    0 -0.19581356903E+03 -0.13933382793E+03  0.84249740108E+03  0.12542602979E+04  0.89755788377E+03 0.  0.
        -24    2    4    4    0    0  0.10528555075E+03 -0.37729803507E+03  0.96437021726E+02  0.41117070930E+03  0.79513511803E+02 0.  0.
         24    2    4    4    0    0 -0.30109911978E+03  0.23796420714E+03  0.74606037936E+03  0.84308958863E+03  0.83104277878E+02 0.  0.
         13    1    3    3    0    0  0.11145186665E+02  0.46655330226E+02  0.13893866236E+03  0.14698600928E+03  0.00000000000E+00 0.  1.
        -13    1    3    3    0    0  0.18466838237E+03  0.92678497708E+02  0.41717926510E+03  0.46554296753E+03  0.00000000000E+00 0. -1.
          2    1    6    6  502    0 -0.27776650239E+03  0.23746589590E+03  0.72388215867E+03  0.81089435884E+03  0.00000000000E+00 0. -1.
          1    1    5    5  503    0  0.41848025285E+02 -0.26803929950E+03  0.85110762287E+02  0.28432404955E+03  0.00000000000E+00 0. -1.
         -2    1    5    5    0  503  0.63437525463E+02 -0.10925873558E+03  0.11326259439E+02  0.12684665975E+03  0.00000000000E+00 0.  1.
         -1    1    6    6    0  502 -0.23332617386E+02  0.49831123870E+00  0.22178220693E+02  0.32195229791E+02  0.00000000000E+00 0.  1.
<mgrwt>
<rscale>  0 0.12364374E+04</rscale>
<asrwt>0</asrwt>
<pdfrwt beam="1">  1        2 0.25118496E+00 0.12364374E+04</pdfrwt>
<pdfrwt beam="2">  1       -2 0.36013382E-01 0.12364374E+04</pdfrwt>
<totfact> 0.76305568E+01</totfact>
</mgrwt>
</event>
<event>
12    1  0.1472088E-007  0.1080605E+04  0.7818608E-02  0.9224304E-01
         -2   -1    0    0    0  501 -0.00000000000E+00  0.00000000000E+00  0.25420202863E+03  0.25420202863E+03  0.00000000000E+00 0.  1.
          2   -1    0    0  501    0  0.00000000000E+00 -0.00000000000E+00 -0.11484046501E+04  0.11484046501E+04  0.00000000000E+00 0. -1.
         23    2    1    2    0    0 -0.14496121652E+03 -0.49238406187E+02 -0.22284629972E+03  0.28542021286E+03  0.91466112139E+02 0.  0.
        254    2    1    2    0    0  0.14496121652E+03  0.49238406187E+02 -0.67135632174E+03  0.11171864659E+04  0.87974320902E+03 0.  0.
        -24    2    4    4    0    0 -0.28931787804E+03 -0.21446440769E+03 -0.36435868827E+03  0.51801296923E+03  0.76683543577E+02 0.  0.
         24    2    4    4    0    0  0.43427909456E+03  0.26370281388E+03 -0.30699763347E+03  0.59917349662E+03  0.81386891304E+02 0.  0.
         13    1    3    3    0    0 -0.14301871761E+03 -0.16956387870E+02 -0.19694554943E+03  0.24398652036E+03  0.00000000000E+00 0. -1.
        -13    1    3    3    0    0 -0.19424989115E+01 -0.32282018317E+02 -0.25900750295E+02  0.41433692503E+02  0.00000000000E+00 0.  1.
          2    1    6    6  502    0  0.18643325307E+03  0.14329643165E+03 -0.10500605165E+03  0.25752183608E+03  0.00000000000E+00 0. -1.
          1    1    5    5  503    0 -0.20133058831E+03 -0.18654561853E+03 -0.29179132699E+03  0.40059387425E+03  0.00000000000E+00 0. -1.
         -2    1    5    5    0  503 -0.87987289736E+02 -0.27918789160E+02 -0.72567361274E+02  0.11741909498E+03  0.00000000000E+00 0.  1.
         -1    1    6    6    0  502  0.24784584150E+03  0.12040638223E+03 -0.20199158181E+03  0.34165166054E+03  0.00000000000E+00 0.  1.
<mgrwt>
<rscale>  0 0.10806050E+04</rscale>
<asrwt>0</asrwt>
<pdfrwt beam="1">  1        2 0.17667764E+00 0.10806050E+04</pdfrwt>
<pdfrwt beam="2">  1       -2 0.39108005E-01 0.10806050E+04</pdfrwt>
<totfact> 0.12490653E+02</totfact>
</mgrwt>
</event>
<event>
12    1  0.1472088E-007  0.2277822E+04  0.7818608E-02  0.8486717E-01
         -1   -1    0    0    0  501 -0.00000000000E+00  0.00000000000E+00  0.69747674756E+03  0.69747674756E+03  0.00000000000E+00 0.  1.
          1   -1    0    0  501    0  0.00000000000E+00 -0.00000000000E+00 -0.18597289999E+04  0.18597289999E+04  0.00000000000E+00 0. -1.
         23    2    1    2    0    0 -0.75043786447E+03 -0.25539681970E+02 -0.11626518570E+04  0.13870283401E+04  0.90989075721E+02 0.  0.
        254    2    1    2    0    0  0.75043786447E+03  0.25539681970E+02  0.39960474309E+00  0.11701774073E+04  0.89749971645E+03 0.  0.
        -24    2    4    4    0    0 -0.11640399366E+02  0.24440071443E+03  0.22544429110E+03  0.34222161879E+03  0.80145491872E+02 0.  0.
         24    2    4    4    0    0  0.76207826384E+03 -0.21886103246E+03 -0.22504468635E+03  0.82795578848E+03  0.78754333781E+02 0.  0.
         11    1    3    3    0    0 -0.26678784526E+03 -0.97684634963E+01 -0.33588775004E+03  0.42905915429E+03  0.00000000000E+00 0.  1.
        -11    1    3    3    0    0 -0.48365001921E+03 -0.15771218474E+02 -0.82676410701E+03  0.95796918586E+03  0.00000000000E+00 0. -1.
          4    1    6    6  502    0  0.58952094996E+03 -0.15079388558E+03 -0.14273705365E+03  0.62501809002E+03  0.00000000000E+00 0. -1.
          1    1    5    5  503    0  0.61767274140E+01  0.23705709853E+03  0.21598107888E+03  0.32075231311E+03  0.00000000000E+00 0. -1.
         -2    1    5    5    0  503 -0.17817126780E+02  0.73436158946E+01  0.94632122111E+01  0.21469305681E+02  0.00000000000E+00 0.  1.
         -3    1    6    6    0  502  0.17255731388E+03 -0.68067146881E+02 -0.82307632701E+02  0.20293769847E+03  0.00000000000E+00 0.  1.
<mgrwt>
<rscale>  0 0.22778215E+04</rscale>
<asrwt>0</asrwt>
<pdfrwt beam="1">  1        1 0.28611215E+00 0.22778215E+04</pdfrwt>
<pdfrwt beam="2">  1       -1 0.10730412E+00 0.22778215E+04</pdfrwt>
<totfact> 0.27186706E+00</totfact>
</mgrwt>
</event>
<event>
12    1  0.1472088E-007  0.2962215E+04  0.7818608E-02  0.8254604E-01
         -1   -1    0    0    0  501 -0.00000000000E+00  0.00000000000E+00  0.12181131556E+04  0.12181131556E+04  0.00000000000E+00 0.  1.
          1   -1    0    0  501    0  0.00000000000E+00 -0.00000000000E+00 -0.18008833071E+04  0.18008833071E+04  0.00000000000E+00 0. -1.
         23    2    1    2    0    0 -0.87322260036E+03 -0.95483309825E+03 -0.63442593133E+03  0.14438845024E+04  0.89901272200E+02 0.  0.
        254    2    1    2    0    0  0.87322260036E+03  0.95483309825E+03  0.51655779898E+02  0.15751119603E+04  0.89670809772E+03 0.  0.
        -24    2    4    4    0    0  0.33303474607E+03  0.94705270968E+03  0.15615691678E+03  0.10191424944E+04  0.80283648873E+02 0.  0.
         24    2    4    4    0    0  0.54018785429E+03  0.77803885730E+01 -0.10450113688E+03  0.55596946586E+03  0.79486520794E+02 0.  0.
         13    1    3    3    0    0 -0.36863238510E+03 -0.37144568605E+03 -0.21368790853E+03  0.56526476565E+03  0.00000000000E+00 0.  1.
        -13    1    3    3    0    0 -0.50459021526E+03 -0.58338741220E+03 -0.42073802280E+03  0.87861973679E+03  0.00000000000E+00 0. -1.
          2    1    6    6  502    0  0.22866462825E+02  0.15337910462E+02 -0.13444395318E+02  0.30641122449E+02  0.00000000000E+00 0. -1.
          1    1    5    5  503    0  0.40186052885E+02  0.12305837303E+03 -0.66720373717E+01  0.12962560743E+03  0.00000000000E+00 0. -1.
         -2    1    5    5    0  503  0.29284869318E+03  0.82399433665E+03  0.16282895415E+03  0.88951688699E+03  0.00000000000E+00 0.  1.
         -1    1    6    6    0  502  0.51732139147E+03 -0.75575218892E+01 -0.91056741564E+02  0.52532834341E+03  0.00000000000E+00 0.  1.
<mgrwt>
<rscale>  0 0.29622151E+04</rscale>
<asrwt>0</asrwt>
<pdfrwt beam="1">  1        1 0.27705897E+00 0.29622151E+04</pdfrwt>
<pdfrwt beam="2">  1       -1 0.18740203E+00 0.29622151E+04</pdfrwt>
<totfact> 0.64023817E-01</totfact>
</mgrwt>
</event>
<event>
12    1  0.1472088E-007  0.2057482E+04  0.7818608E-02  0.8580208E-01
         -1   -1    0    0    0  501 -0.00000000000E+00  0.00000000000E+00  0.14561939813E+04  0.14561939813E+04  0.00000000000E+00 0.  1.
          1   -1    0    0  501    0  0.00000000000E+00 -0.00000000000E+00 -0.72676313248E+03  0.72676313248E+03  0.00000000000E+00 0. -1.
         23    2    1    2    0    0 -0.10575233842E+03 -0.61161371910E+03 -0.28710125749E+03  0.68996353121E+03  0.91474826455E+02 0.  0.
        254    2    1    2    0    0  0.10575233842E+03  0.61161371910E+03  0.10165321063E+04  0.14929935826E+04  0.90024297607E+03 0.  0.
        -24    2    4    4    0    0  0.13985878677E+03 -0.14494908055E+03 -0.51423378805E+01  0.21873252731E+03  0.85127896003E+02 0.  0.
         24    2    4    4    0    0 -0.34106448345E+02  0.75656279964E+03  0.10216744442E+04  0.12742610553E+04  0.79825105119E+02 0.  0.
         11    1    3    3    0    0 -0.32106630132E+02 -0.43036267936E+03 -0.20544567191E+03  0.47796526610E+03  0.00000000000E+00 0. -1.
        -11    1    3    3    0    0 -0.73645708291E+02 -0.18125103973E+03 -0.81655585577E+02  0.21199826511E+03  0.00000000000E+00 0.  1.
          4    1    6    6  502    0 -0.23547386342E+02  0.57954245249E+02  0.74729471852E+02  0.97455979341E+02  0.00000000000E+00 0. -1.
          3    1    5    5  503    0  0.90229688111E+02 -0.49167126960E+02  0.26862140951E+02  0.10620912205E+03  0.00000000000E+00 0. -1.
         -4    1    5    5    0  503  0.49629098656E+02 -0.95781953588E+02 -0.32004478832E+02  0.11252340526E+03  0.00000000000E+00 0.  1.
         -3    1    6    6    0  502 -0.10559062002E+02  0.69860855439E+03  0.94694497235E+03  0.11768050759E+04  0.00000000000E+00 0.  1.
<mgrwt>
<rscale>  0 0.20574821E+04</rscale>
<asrwt>0</asrwt>
<pdfrwt beam="1">  1        1 0.11180971E+00 0.20574821E+04</pdfrwt>
<pdfrwt beam="2">  1       -1 0.22402984E+00 0.20574821E+04</pdfrwt>
<totfact> 0.24552603E+00</totfact>
</mgrwt>
</event>
<event>
12    1  0.1472088E-007  0.3283099E+04  0.7818608E-02  0.8167209E-01
          1   -1    0    0  501    0  0.00000000000E+00  0.00000000000E+00  0.23244629457E+04  0.23244629457E+04  0.00000000000E+00 0. -1.
         -1   -1    0    0    0  501 -0.00000000000E+00 -0.00000000000E+00 -0.11592718561E+04  0.11592718561E+04  0.00000000000E+00 0.  1.
         23    2    1    2    0    0  0.14207738781E+04 -0.24297274977E+03  0.99528767892E+03  0.17539829414E+04  0.90688615518E+02 0.  0.
        254    2    1    2    0    0 -0.14207738781E+04  0.24297274977E+03  0.16990341069E+03  0.17297518604E+04  0.94103143387E+03 0.  0.
        -24    2    4    4    0    0 -0.13647621838E+04 -0.74599282568E+02  0.31422109598E+02  0.13695210194E+04  0.80371652244E+02 0.  0.
         24    2    4    4    0    0 -0.56011694371E+02  0.31757203234E+03  0.13848130109E+03  0.36023084094E+03  0.81239660138E+02 0.  0.
         13    1    3    3    0    0  0.14175801129E+04 -0.23828636305E+03  0.99512410167E+03  0.17483093963E+04  0.00000000000E+00 0. -1.
        -13    1    3    3    0    0  0.31937651836E+01 -0.46863867188E+01  0.16357725215E+00  0.56735451037E+01  0.00000000000E+00 0.  1.
          4    1    6    6  502    0 -0.74612771413E+02  0.28709038401E+03  0.12752758420E+03  0.32287960447E+03  0.00000000000E+00 0. -1.
          3    1    5    5  503    0 -0.96760282195E+03 -0.52525500307E+02  0.58783590692E+02  0.97080876580E+03  0.00000000000E+00 0. -1.
         -4    1    5    5    0  503 -0.39715936180E+03 -0.22073782261E+02 -0.27361481094E+02  0.39871225361E+03  0.00000000000E+00 0.  1.
         -3    1    6    6    0  502  0.18601077043E+02  0.30481648326E+02  0.10953716891E+02  0.37351236466E+02  0.00000000000E+00 0.  1.
<mgrwt>
<rscale>  0 0.32830988E+04</rscale>
<asrwt>0</asrwt>
<pdfrwt beam="1">  1        1 0.35760968E+00 0.32830988E+04</pdfrwt>
<pdfrwt beam="2">  1       -1 0.17834952E+00 0.32830988E+04</pdfrwt>
<totfact> 0.31814816E-01</totfact>
</mgrwt>
</event>
<event>
12    1  0.1472088E-007  0.1191346E+04  0.7818608E-02  0.9120465E-01
         -2   -1    0    0    0  501 -0.00000000000E+00  0.00000000000E+00  0.99983068604E+03  0.99983068604E+03  0.00000000000E+00 0.  1.
          2   -1    0    0  501    0  0.00000000000E+00 -0.00000000000E+00 -0.35488630500E+03  0.35488630500E+03  0.00000000000E+00 0. -1.
         23    2    1    2    0    0 -0.63111525562E+02 -0.18479056227E+03 -0.24824073506E+02  0.21999541329E+03  0.98240168368E+02 0.  0.
        254    2    1    2    0    0  0.63111525562E+02  0.18479056227E+03  0.66976845455E+03  0.11347215777E+04  0.89491488966E+03 0.  0.
        -24    2    4    4    0    0  0.41342463949E+03 -0.71842095360E+02  0.50777788138E+03  0.66343428528E+03  0.78901551698E+02 0.  0.
         24    2    4    4    0    0 -0.35031311393E+03  0.25663265763E+03  0.16199057317E+03  0.47128729247E+03  0.85388333493E+02 0.  0.
         13    1    3    3    0    0 -0.68241595278E+02 -0.52706601709E+02 -0.54299297253E+01  0.86396674280E+02  0.00000000000E+00 0.  1.
        -13    1    3    3    0    0  0.51300697159E+01 -0.13208396056E+03 -0.19394143781E+02  0.13359873901E+03  0.00000000000E+00 0. -1.
          2    1    6    6  502    0 -0.29071197642E+02  0.56685523812E+02  0.31203121685E+02  0.70936717890E+02  0.00000000000E+00 0. -1.
          3    1    5    5  503    0  0.53664351443E+02  0.81680018834E+00  0.10880187655E+03  0.12131932294E+03  0.00000000000E+00 0. -1.
         -4    1    5    5    0  503  0.35976028805E+03 -0.72658895548E+02  0.39897600483E+03  0.54211496233E+03  0.00000000000E+00 0.  1.
         -1    1    6    6    0  502 -0.32124191629E+03  0.19994713381E+03  0.13078745148E+03  0.40035057458E+03  0.00000000000E+00 0.  1.
<mgrwt>
<rscale>  0 0.11913458E+04</rscale>
<asrwt>0</asrwt>
<pdfrwt beam="1">  1        2 0.54597894E-01 0.11913458E+04</pdfrwt>
<pdfrwt beam="2">  1       -2 0.15382010E+00 0.11913458E+04</pdfrwt>
<totfact> 0.25141300E+01</totfact>
</mgrwt>
</event>
<event>
12    1  0.1472088E-007  0.1283756E+04  0.7818608E-02  0.9042547E-01
          2   -1    0    0  501    0  0.00000000000E+00  0.00000000000E+00  0.27261320457E+04  0.27261320457E+04  0.00000000000E+00 0. -1.
         -2   -1    0    0    0  501 -0.00000000000E+00 -0.00000000000E+00 -0.15113257772E+03  0.15113257772E+03  0.00000000000E+00 0.  1.
         23    2    1    2    0    0 -0.20720463982E+03  0.23545781744E+03  0.45461003506E+03  0.56047929011E+03  0.95355147243E+02 0.  0.
        254    2    1    2    0    0  0.20720463982E+03 -0.23545781744E+03  0.21203894330E+04  0.23167853333E+04  0.87924330355E+03 0.  0.
        -24    2    4    4    0    0  0.29147556945E+03 -0.20674722990E+03  0.21601181897E+04  0.21911360777E+04  0.85230821817E+02 0.  0.
         24    2    4    4    0    0 -0.84270929621E+02 -0.28710587544E+02 -0.39728756737E+02  0.12564925562E+03  0.79268366389E+02 0.  0.
         11    1    3    3    0    0 -0.20713916594E+02 -0.70656974027E+01  0.30322048479E+02  0.37395414752E+02  0.00000000000E+00 0. -1.
        -11    1    3    3    0    0 -0.18649072323E+03  0.24252351484E+03  0.42428798658E+03  0.52308387536E+03  0.00000000000E+00 0.  1.
          2    1    6    6  502    0 -0.42468865838E+02 -0.28781005754E+01  0.21053099503E+02  0.47488114589E+02  0.00000000000E+00 0. -1.
          3    1    5    5  503    0  0.34952054488E+02 -0.13453452979E+02  0.41651028366E+03  0.41819069562E+03  0.00000000000E+00 0. -1.
         -4    1    5    5    0  503  0.25652351496E+03 -0.19329377692E+03  0.17436079060E+04  0.17729453821E+04  0.00000000000E+00 0.  1.
         -1    1    6    6    0  502 -0.41802063783E+02 -0.25832486968E+02 -0.60781856240E+02  0.78161141032E+02  0.00000000000E+00 0.  1.
<mgrwt>
<rscale>  0 0.12837560E+04</rscale>
<asrwt>0</asrwt>
<pdfrwt beam="1">  1        2 0.41940489E+00 0.12837560E+04</pdfrwt>
<pdfrwt beam="2">  1       -2 0.23251168E-01 0.12837560E+04</pdfrwt>
<totfact> 0.41429341E+01</totfact>
</mgrwt>
</event>
<event>
12    1  0.1472088E-007  0.1733290E+04  0.7818608E-02  0.8742602E-01
          2   -1    0    0  501    0  0.00000000000E+00  0.00000000000E+00  0.37369730573E+04  0.37369730573E+04  0.00000000000E+00 0. -1.
         -2   -1    0    0    0  501 -0.00000000000E+00 -0.00000000000E+00 -0.20098457840E+03  0.20098457840E+03  0.00000000000E+00 0.  1.
         23    2    1    2    0    0 -0.33477326474E+03 -0.28156582731E+03  0.27008047062E+03  0.52200278114E+03  0.90504082880E+02 0.  0.
        254    2    1    2    0    0  0.33477326474E+03  0.28156582731E+03  0.32659080083E+04  0.34159548545E+04  0.90068862317E+03 0.  0.
        -24    2    4    4    0    0 -0.29470830626E+03  0.18508011661E+03  0.10128532674E+04  0.10732291261E+04  0.69580029913E+02 0.  0.
         24    2    4    4    0    0  0.62948157099E+03  0.96485710699E+02  0.22530547409E+04  0.23427257284E+04  0.80942155860E+02 0.  0.
         11    1    3    3    0    0 -0.15862742592E+03 -0.11100490086E+03  0.71173104183E+02  0.20627738371E+03  0.00000000000E+00 0.  1.
        -11    1    3    3    0    0 -0.17614583882E+03 -0.17056092644E+03  0.19890736643E+03  0.31572539743E+03  0.00000000000E+00 0. -1.
          4    1    6    6  502    0  0.44800907081E+03  0.68253509120E+02  0.14616841041E+04  0.15303238511E+04  0.00000000000E+00 0. -1.
          1    1    5    5  503    0 -0.27707982715E+03  0.14878274964E+03  0.90284895743E+03  0.95605741309E+03  0.00000000000E+00 0. -1.
         -2    1    5    5    0  503 -0.17628479107E+02  0.36297366973E+02  0.11000430996E+03  0.11717171303E+03  0.00000000000E+00 0.  1.
         -3    1    6    6    0  502  0.18147250019E+03  0.28232201579E+02  0.79137063674E+03  0.81240187729E+03  0.00000000000E+00 0.  1.
<mgrwt>
<rscale>  0 0.17332905E+04</rscale>
<asrwt>0</asrwt>
<pdfrwt beam="1">  1        2 0.57491888E+00 0.17332905E+04</pdfrwt>
<pdfrwt beam="2">  1       -2 0.30920707E-01 0.17332905E+04</pdfrwt>
<totfact> 0.51018080E+00</totfact>
</mgrwt>
</event>
<event>
12    1  0.1472088E-007  0.1964175E+04  0.7818608E-02  0.8623556E-01
          2   -1    0    0  501    0  0.00000000000E+00  0.00000000000E+00  0.99748208363E+03  0.99748208363E+03  0.00000000000E+00 0. -1.
         -2   -1    0    0    0  501 -0.00000000000E+00 -0.00000000000E+00 -0.96693069041E+03  0.96693069041E+03  0.00000000000E+00 0.  1.
         23    2    1    2    0    0  0.16696871620E+03  0.58838214002E+03  0.47325509343E+03  0.77863888622E+03  0.90752613113E+02 0.  0.
        254    2    1    2    0    0 -0.16696871620E+03 -0.58838214002E+03 -0.44270370021E+03  0.11857738878E+04  0.91433093132E+03 0.  0.
        -24    2    4    4    0    0 -0.23578779065E+03 -0.74192686136E+03 -0.56021121014E+03  0.96237214249E+03  0.79197164408E+02 0.  0.
         24    2    4    4    0    0  0.68819074458E+02  0.15354472134E+03  0.11750750993E+03  0.22340174533E+03  0.88251223610E+02 0.  0.
         13    1    3    3    0    0  0.54231180524E+02  0.11538993088E+03  0.13883296935E+03  0.18849522665E+03  0.00000000000E+00 0.  1.
        -13    1    3    3    0    0  0.11273753567E+03  0.47299220914E+03  0.33442212408E+03  0.59014365957E+03  0.00000000000E+00 0. -1.
          4    1    6    6  502    0  0.73710052320E+02  0.85233788384E+02  0.39053582728E+02  0.11926086038E+03  0.00000000000E+00 0. -1.
          1    1    5    5  503    0 -0.12456133376E+03 -0.35746433560E+03 -0.22542396509E+03  0.44058170767E+03  0.00000000000E+00 0. -1.
         -2    1    5    5    0  503 -0.11122645690E+03 -0.38446252576E+03 -0.33478724505E+03  0.52179043482E+03  0.00000000000E+00 0.  1.
         -3    1    6    6    0  502 -0.48909778611E+01  0.68310932951E+02  0.78453927198E+02  0.10414088495E+03  0.00000000000E+00 0.  1.
<mgrwt>
<rscale>  0 0.19641752E+04</rscale>
<asrwt>0</asrwt>
<pdfrwt beam="1">  1        2 0.15345878E+00 0.19641752E+04</pdfrwt>
<pdfrwt beam="2">  1       -2 0.14875857E+00 0.19641752E+04</pdfrwt>
<totfact> 0.72145988E+00</totfact>
</mgrwt>
</event>
<event>
12    1  0.1472088E-007  0.2783289E+04  0.7818608E-02  0.8308475E-01
          3   -1    0    0  501    0  0.00000000000E+00  0.00000000000E+00  0.90411860711E+03  0.90411860711E+03  0.00000000000E+00 0. -1.
         -3   -1    0    0    0  501 -0.00000000000E+00 -0.00000000000E+00 -0.21420580780E+04  0.21420580780E+04  0.00000000000E+00 0.  1.
         23    2    1    2    0    0 -0.17114647062E+03  0.52157889828E+03  0.66792475155E+03  0.86959748067E+03  0.93491406680E+02 0.  0.
        254    2    1    2    0    0  0.17114647062E+03 -0.52157889828E+03 -0.19058642224E+04  0.21765792044E+04  0.89657288454E+03 0.  0.
        -24    2    4    4    0    0  0.43220827309E+03 -0.62088186532E+03 -0.13828144050E+04  0.15783578003E+04  0.82093757409E+02 0.  0.
         24    2    4    4    0    0 -0.26106180247E+03  0.99302967044E+02 -0.52304981743E+03  0.59822140416E+03  0.79204753035E+02 0.  0.
         11    1    3    3    0    0 -0.23573151182E+02  0.20092445304E+03  0.27514763553E+03  0.34151508111E+03  0.00000000000E+00 0.  1.
        -11    1    3    3    0    0 -0.14757331944E+03  0.32065444524E+03  0.39277711602E+03  0.52808239957E+03  0.00000000000E+00 0. -1.
          2    1    6    6  502    0 -0.23180107477E+02 -0.13719776456E+02 -0.50656108321E+02  0.57372388471E+02  0.00000000000E+00 0. -1.
          3    1    5    5  503    0  0.92795844504E+02 -0.19167961127E+03 -0.42046431397E+03  0.47131982926E+03  0.00000000000E+00 0. -1.
         -4    1    5    5    0  503  0.33941242858E+03 -0.42920225406E+03 -0.96235009103E+03  0.11070379710E+04  0.00000000000E+00 0.  1.
         -1    1    6    6    0  502 -0.23788169499E+03  0.11302274350E+03 -0.47239370911E+03  0.54084901569E+03  0.00000000000E+00 0.  1.
<mgrwt>
<rscale>  0 0.27832891E+04</rscale>
<asrwt>0</asrwt>
<pdfrwt beam="1">  1        3 0.13909517E+00 0.27832891E+04</pdfrwt>
<pdfrwt beam="2">  1       -3 0.32954739E+00 0.27832891E+04</pdfrwt>
<totfact> 0.23111958E-02</totfact>
</mgrwt>
</event>
<event>
12    1  0.1472088E-007  0.1683025E+04  0.7818608E-02  0.8771106E-01
         -1   -1    0    0    0  501 -0.00000000000E+00  0.00000000000E+00  0.21159722993E+03  0.21159722993E+03  0.00000000000E+00 0.  1.
          1   -1    0    0  501    0  0.00000000000E+00 -0.00000000000E+00 -0.33466549840E+04  0.33466549840E+04  0.00000000000E+00 0. -1.
         23    2    1    2    0    0 -0.12387424416E+03  0.27755857112E+03 -0.21522764095E+04  0.21757697582E+04  0.96419443485E+02 0.  0.
        254    2    1    2    0    0  0.12387424416E+03 -0.27755857112E+03 -0.98278134460E+03  0.13824824557E+04  0.92358810104E+03 0.  0.
        -24    2    4    4    0    0 -0.29229914750E+03 -0.36794146017E+03 -0.26778211074E+03  0.54668699834E+03  0.79622268111E+02 0.  0.
         24    2    4    4    0    0  0.41617339166E+03  0.90382889055E+02 -0.71499923386E+03  0.83579545740E+03  0.77206111349E+02 0.  0.
         13    1    3    3    0    0 -0.74255262955E+02  0.22784311658E+03 -0.18490737928E+04  0.18645375354E+04  0.00000000000E+00 0. -1.
        -13    1    3    3    0    0 -0.49618981200E+02  0.49715454538E+02 -0.30320261668E+03  0.31123222275E+03  0.00000000000E+00 0.  1.
          4    1    6    6  502    0  0.26577549486E+03  0.60229095463E+02 -0.52583155462E+03  0.59225246428E+03  0.00000000000E+00 0. -1.
          1    1    5    5  503    0 -0.17816224418E+03 -0.20553213846E+03 -0.11118270878E+03  0.29384832809E+03  0.00000000000E+00 0. -1.
         -2    1    5    5    0  503 -0.11413690332E+03 -0.16240932172E+03 -0.15659940196E+03  0.25283867025E+03  0.00000000000E+00 0.  1.
         -3    1    6    6    0  502  0.15039789680E+03  0.30153793593E+02 -0.18916767924E+03  0.24354299312E+03  0.00000000000E+00 0.  1.
<mgrwt>
<rscale>  0 0.16830246E+04</rscale>
<asrwt>0</asrwt>
<pdfrwt beam="1">  1        1 0.51487000E+00 0.16830246E+04</pdfrwt>
<pdfrwt beam="2">  1       -1 0.32553420E-01 0.16830246E+04</pdfrwt>
<totfact> 0.27875565E+00</totfact>
</mgrwt>
</event>
<event>
12    1  0.1472088E-007  0.1777993E+04  0.7818608E-02  0.8718091E-01
         -2   -1    0    0    0  501 -0.00000000000E+00  0.00000000000E+00  0.12931387389E+04  0.12931387389E+04  0.00000000000E+00 0.  1.
          2   -1    0    0  501    0  0.00000000000E+00 -0.00000000000E+00 -0.61115992172E+03  0.61115992172E+03  0.00000000000E+00 0. -1.
         23    2    1    2    0    0  0.39611879515E+02 -0.56765161775E+03 -0.11894750587E+03  0.58843784701E+03  0.91176370300E+02 0.  0.
        254    2    1    2    0    0 -0.39611879515E+02  0.56765161775E+03  0.80092632301E+03  0.13158608136E+04  0.87533379100E+03 0.  0.
        -24    2    4    4    0    0 -0.37419023895E+03  0.29418402160E+01  0.27652894268E+03  0.47193666564E+03  0.78923829623E+02 0.  0.
         24    2    4    4    0    0  0.33457835944E+03  0.56470977754E+03  0.52439738033E+03  0.84392414794E+03  0.79847000687E+02 0.  0.
         13    1    3    3    0    0  0.66981733397E+02 -0.46479276827E+03 -0.90100156725E+02  0.47815991916E+03  0.00000000000E+00 0. -1.
        -13    1    3    3    0    0 -0.27369853882E+02 -0.10285884948E+03 -0.28847349142E+02  0.11027792785E+03  0.00000000000E+00 0.  1.
          2    1    6    6  502    0  0.20414504298E+03  0.32851207907E+03  0.35730351049E+03  0.52655596405E+03  0.00000000000E+00 0. -1.
          3    1    5    5  503    0 -0.19915274666E+03  0.17337382637E+02  0.10235214821E+03  0.22458486944E+03  0.00000000000E+00 0. -1.
         -4    1    5    5    0  503 -0.17503749230E+03 -0.14395542421E+02  0.17417679447E+03  0.24735179620E+03  0.00000000000E+00 0.  1.
         -1    1    6    6    0  502  0.13043331646E+03  0.23619769847E+03  0.16709386984E+03  0.31736818389E+03  0.00000000000E+00 0.  1.
<mgrwt>
<rscale>  0 0.17779928E+04</rscale>
<asrwt>0</asrwt>
<pdfrwt beam="1">  1        2 0.94024604E-01 0.17779928E+04</pdfrwt>
<pdfrwt beam="2">  1       -2 0.19894442E+00 0.17779928E+04</pdfrwt>
<totfact> 0.61932670E+00</totfact>
</mgrwt>
</event>
<event>
12    1  0.1472088E-007  0.1044481E+04  0.7818608E-02  0.9261061E-01
         -2   -1    0    0    0  501 -0.00000000000E+00  0.00000000000E+00  0.27808724236E+03  0.27808724236E+03  0.00000000000E+00 0.  1.
          2   -1    0    0  501    0  0.00000000000E+00 -0.00000000000E+00 -0.98075407783E+03  0.98075407783E+03  0.00000000000E+00 0. -1.
         23    2    1    2    0    0  0.19356201238E+02 -0.59197927537E+02 -0.19238954640E+03  0.22073435871E+03  0.88492160113E+02 0.  0.
        254    2    1    2    0    0 -0.19356201238E+02  0.59197927537E+02 -0.51027728907E+03  0.10381069615E+04  0.90188918088E+03 0.  0.
        -24    2    4    4    0    0 -0.24807620471E+03  0.22080364565E+03 -0.63524353832E+03  0.72124733061E+03  0.79795398696E+02 0.  0.
         24    2    4    4    0    0  0.22872000347E+03 -0.16160571811E+03  0.12496624925E+03  0.31685963087E+03  0.79713324548E+02 0.  0.
         13    1    3    3    0    0  0.31591805570E+01 -0.53296488658E+02 -0.38356712083E+02  0.65739892659E+02  0.00000000000E+00 0. -1.
        -13    1    3    3    0    0  0.16197020681E+02 -0.59014388795E+01 -0.15403283431E+03  0.15499446605E+03  0.00000000000E+00 0.  1.
          2    1    6    6  502    0  0.19114241027E+03 -0.16075863679E+03  0.89869348926E+02  0.26543409762E+03  0.00000000000E+00 0. -1.
          3    1    5    5  503    0 -0.24245492197E+03  0.22697491721E+03 -0.62692549790E+03  0.70946288286E+03  0.00000000000E+00 0. -1.
         -4    1    5    5    0  503 -0.56212827446E+01 -0.61712715633E+01 -0.83180404193E+01  0.11784447752E+02  0.00000000000E+00 0.  1.
         -1    1    6    6    0  502  0.37577593205E+02 -0.84708132600E+00  0.35096900321E+02  0.51425533250E+02  0.00000000000E+00 0.  1.
<mgrwt>
<rscale>  0 0.10444811E+04</rscale>
<asrwt>0</asrwt>
<pdfrwt beam="1">  1        2 0.15088525E+00 0.10444811E+04</pdfrwt>
<pdfrwt beam="2">  1       -2 0.42782652E-01 0.10444811E+04</pdfrwt>
<totfact> 0.13363813E+02</totfact>
</mgrwt>
</event>
<event>
12    1  0.1472088E-007  0.1234851E+04  0.7818608E-02  0.9082887E-01
          2   -1    0    0  501    0  0.00000000000E+00  0.00000000000E+00  0.21259686460E+04  0.21259686460E+04  0.00000000000E+00 0. -1.
         -2   -1    0    0    0  501 -0.00000000000E+00 -0.00000000000E+00 -0.17931321603E+03  0.17931321603E+03  0.00000000000E+00 0.  1.
         23    2    1    2    0    0  0.22141649698E+03  0.20137065681E+02  0.76552450395E+03  0.80468218769E+03  0.10979476535E+03 0.  0.
        254    2    1    2    0    0 -0.22141649698E+03 -0.20137065681E+02  0.11811309260E+04  0.15005996743E+04  0.89849783065E+03 0.  0.
        -24    2    4    4    0    0  0.26334634014E+03  0.74672892800E+02  0.85999106323E+03  0.90598322220E+03  0.79332428934E+02 0.  0.
         24    2    4    4    0    0 -0.48476283712E+03 -0.94809958481E+02  0.32113986279E+03  0.59461645214E+03  0.80336649222E+02 0.  0.
         11    1    3    3    0    0  0.23209570588E+03  0.14945680025E+02  0.74937849008E+03  0.78463998843E+03  0.00000000000E+00 0. -1.
        -11    1    3    3    0    0 -0.10679208899E+02  0.51913856563E+01  0.16146013862E+02  0.20042199265E+02  0.00000000000E+00 0.  1.
          2    1    6    6  502    0 -0.30471806726E+03 -0.50884828562E+02  0.15462530069E+03  0.34547264711E+03  0.00000000000E+00 0. -1.
          1    1    5    5  503    0  0.14684760361E+02 -0.10158723088E+02  0.10681209413E+03  0.10829434563E+03  0.00000000000E+00 0. -1.
         -2    1    5    5    0  503  0.24866157977E+03  0.84831615888E+02  0.75317896910E+03  0.79768887657E+03  0.00000000000E+00 0.  1.
         -1    1    6    6    0  502 -0.18004476986E+03 -0.43925129919E+02  0.16651456210E+03  0.24914380503E+03  0.00000000000E+00 0.  1.
<mgrwt>
<rscale>  0 0.12348510E+04</rscale>
<asrwt>0</asrwt>
<pdfrwt beam="1">  1        2 0.32707208E+00 0.12348510E+04</pdfrwt>
<pdfrwt beam="2">  1       -2 0.27586650E-01 0.12348510E+04</pdfrwt>
<totfact> 0.67165426E+01</totfact>
</mgrwt>
</event>
<event>
12    1  0.1472088E-007  0.2405952E+04  0.7818608E-02  0.8437279E-01
         -2   -1    0    0    0  501 -0.00000000000E+00  0.00000000000E+00  0.57516482579E+03  0.57516482579E+03  0.00000000000E+00 0.  1.
          2   -1    0    0  501    0  0.00000000000E+00 -0.00000000000E+00 -0.25160640227E+04  0.25160640227E+04  0.00000000000E+00 0. -1.
         23    2    1    2    0    0  0.80793923553E+03 -0.84743782218E+02 -0.15918947844E+02  0.81762198625E+03  0.91131677095E+02 0.  0.
        254    2    1    2    0    0 -0.80793923553E+03  0.84743782218E+02 -0.19249802490E+04  0.22736068622E+04  0.89654441484E+03 0.  0.
        -24    2    4    4    0    0 -0.90242135633E+02 -0.72448783599E+02 -0.12947186979E+04  0.13023639390E+04  0.80391875497E+02 0.  0.
         24    2    4    4    0    0 -0.71769709989E+03  0.15719256582E+03 -0.63026155116E+03  0.97124292323E+03  0.79275236363E+02 0.  0.
         11    1    3    3    0    0  0.75799774891E+03 -0.69644612340E+02  0.55312095622E+01  0.76121058430E+03  0.00000000000E+00 0.  1.
        -11    1    3    3    0    0  0.49941486621E+02 -0.15099169879E+02 -0.21450157407E+02  0.56411401948E+02  0.00000000000E+00 0. -1.
          4    1    6    6  502    0 -0.11251349330E+03  0.67742394651E+01 -0.12780092584E+03  0.17040614174E+03  0.00000000000E+00 0. -1.
          1    1    5    5  503    0  0.73008635772E+01 -0.18768872878E+02 -0.43498040132E+03  0.43544634886E+03  0.00000000000E+00 0. -1.
         -2    1    5    5    0  503 -0.97542999210E+02 -0.53679910721E+02 -0.85973829655E+03  0.86691759013E+03  0.00000000000E+00 0.  1.
         -3    1    6    6    0  502 -0.60518360660E+03  0.15041832635E+03 -0.50246062532E+03  0.80083678149E+03  0.00000000000E+00 0.  1.
<mgrwt>
<rscale>  0 0.24059522E+04</rscale>
<asrwt>0</asrwt>
<pdfrwt beam="1">  1        2 0.38708677E+00 0.24059522E+04</pdfrwt>
<pdfrwt beam="2">  1       -2 0.88486897E-01 0.24059522E+04</pdfrwt>
<totfact> 0.33649075E+00</totfact>
</mgrwt>
</event>
<event>
12    1  0.1472088E-007  0.2532405E+04  0.7818608E-02  0.8391531E-01
          1   -1    0    0  501    0  0.00000000000E+00  0.00000000000E+00  0.22734621644E+04  0.22734621644E+04  0.00000000000E+00 0. -1.
         -1   -1    0    0    0  501 -0.00000000000E+00 -0.00000000000E+00 -0.70521004344E+03  0.70521004344E+03  0.00000000000E+00 0.  1.
         23    2    1    2    0    0 -0.85259356117E+03  0.52711490057E+03  0.12050611423E+04  0.15701771768E+04  0.92293611471E+02 0.  0.
        254    2    1    2    0    0  0.85259356117E+03 -0.52711490057E+03  0.36319097861E+03  0.14084950311E+04  0.92042635047E+03 0.  0.
        -24    2    4    4    0    0  0.16049964899E+03 -0.63071068495E+03  0.19756939807E+03  0.68503965185E+03  0.81789682253E+02 0.  0.
         24    2    4    4    0    0  0.69209391219E+03  0.10359578438E+03  0.16562158054E+03  0.72345537922E+03  0.78937367238E+02 0.  0.
         11    1    3    3    0    0 -0.25355498930E+03  0.12777017926E+03  0.39447638835E+03  0.48603186344E+03  0.00000000000E+00 0.  1.
        -11    1    3    3    0    0 -0.59903857188E+03  0.39934472131E+03  0.81058475398E+03  0.10841453133E+04  0.00000000000E+00 0. -1.
          2    1    6    6  502    0  0.99380990714E+02  0.43518130978E+02  0.25105339915E+02  0.11135837252E+03  0.00000000000E+00 0. -1.
          3    1    5    5  503    0  0.11862212016E+02 -0.11228595576E+03  0.62568165278E+02  0.12908765720E+03  0.00000000000E+00 0. -1.
         -4    1    5    5    0  503  0.14863743697E+03 -0.51842472919E+03  0.13500123279E+03  0.55595199465E+03  0.00000000000E+00 0.  1.
         -1    1    6    6    0  502  0.59271292147E+03  0.60077653401E+02  0.14051624063E+03  0.61209700669E+03  0.00000000000E+00 0.  1.
<mgrwt>
<rscale>  0 0.25324047E+04</rscale>
<asrwt>0</asrwt>
<pdfrwt beam="1">  1        1 0.34976341E+00 0.25324047E+04</pdfrwt>
<pdfrwt beam="2">  1       -1 0.10849385E+00 0.25324047E+04</pdfrwt>
<totfact> 0.13551765E+00</totfact>
</mgrwt>
</event>
<event>
12    1  0.1472088E-007  0.1815173E+04  0.7818608E-02  0.8698272E-01
         -2   -1    0    0    0  501 -0.00000000000E+00  0.00000000000E+00  0.88374804590E+03  0.88374804590E+03  0.00000000000E+00 0.  1.
          2   -1    0    0  501    0  0.00000000000E+00 -0.00000000000E+00 -0.93206758037E+03  0.93206758037E+03  0.00000000000E+00 0. -1.
         23    2    1    2    0    0 -0.57036587334E+03 -0.16737546096E+03 -0.37795061985E+03  0.71046292117E+03  0.92623522470E+02 0.  0.
        254    2    1    2    0    0  0.57036587334E+03  0.16737546096E+03  0.32963108539E+03  0.11053527051E+04  0.87167435193E+03 0.  0.
        -24    2    4    4    0    0  0.27742014810E+03 -0.35986539164E+02  0.58935389433E+03  0.65704026676E+03  0.78146847714E+02 0.  0.
         24    2    4    4    0    0  0.29294572524E+03  0.20336200013E+03 -0.25972280894E+03  0.44831243834E+03  0.79717023619E+02 0.  0.
         13    1    3    3    0    0 -0.13547093648E+02  0.82772128279E+01 -0.20268423151E+02  0.25745775878E+02  0.00000000000E+00 0.  1.
        -13    1    3    3    0    0 -0.55681877969E+03 -0.17565267379E+03 -0.35768219670E+03  0.68471714530E+03  0.00000000000E+00 0. -1.
          4    1    6    6  502    0  0.24396094757E+03  0.15341008797E+03 -0.17019587714E+03  0.33469125418E+03  0.00000000000E+00 0. -1.
          3    1    5    5  503    0  0.26248006464E+03 -0.13744406864E+02  0.51909407653E+03  0.58184478458E+03  0.00000000000E+00 0. -1.
         -4    1    5    5    0  503  0.14940083463E+02 -0.22242132299E+02  0.70259817801E+02  0.75195482182E+02  0.00000000000E+00 0.  1.
         -3    1    6    6    0  502  0.48984777665E+02  0.49951912156E+02 -0.89526931803E+02  0.11362118416E+03  0.00000000000E+00 0.  1.
<mgrwt>
<rscale>  0 0.18151726E+04</rscale>
<asrwt>0</asrwt>
<pdfrwt beam="1">  1        2 0.14339501E+00 0.18151726E+04</pdfrwt>
<pdfrwt beam="2">  1       -2 0.13596124E+00 0.18151726E+04</pdfrwt>
<totfact> 0.10191949E+01</totfact>
</mgrwt>
</event>
<event>
12    1  0.1472088E-007  0.1779958E+04  0.7818608E-02  0.8717031E-01
          2   -1    0    0  501    0  0.00000000000E+00  0.00000000000E+00  0.11636470786E+04  0.11636470786E+04  0.00000000000E+00 0. -1.
         -2   -1    0    0    0  501 -0.00000000000E+00 -0.00000000000E+00 -0.68067227052E+03  0.68067227052E+03  0.00000000000E+00 0.  1.
         23    2    1    2    0    0  0.57429604769E+03  0.32890415391E+03  0.15618861168E+03  0.68737370899E+03  0.10046810707E+03 0.  0.
        254    2    1    2    0    0 -0.57429604769E+03 -0.32890415391E+03  0.32678619641E+03  0.11569456401E+04  0.89092092984E+03 0.  0.
        -24    2    4    4    0    0 -0.21463854331E+02 -0.40625563365E+03 -0.12523519750E+03  0.43379130418E+03  0.83586505921E+02 0.  0.
         24    2    4    4    0    0 -0.55283219336E+03  0.77351479746E+02  0.45202139391E+03  0.72315433596E+03  0.83798374905E+02 0.  0.
         13    1    3    3    0    0  0.47347454852E+03  0.26966341238E+03  0.16709770900E+03  0.56992819585E+03  0.00000000000E+00 0.  1.
        -13    1    3    3    0    0  0.10082149917E+03  0.59240741528E+02 -0.10909097319E+02  0.11744551314E+03  0.00000000000E+00 0. -1.
          2    1    6    6  502    0 -0.25491386885E+03 -0.47934639696E+01  0.18957667495E+03  0.31771586916E+03  0.00000000000E+00 0. -1.
          3    1    5    5  503    0 -0.60183846113E+01 -0.30972985658E+03 -0.12991267648E+03  0.33592574852E+03  0.00000000000E+00 0. -1.
         -4    1    5    5    0  503 -0.15445469720E+02 -0.96525777073E+02  0.46774789824E+01  0.97865555657E+02  0.00000000000E+00 0.  1.
         -1    1    6    6    0  502 -0.29791832451E+03  0.82144943716E+02  0.26244471896E+03  0.40543846680E+03  0.00000000000E+00 0.  1.
<mgrwt>
<rscale>  0 0.17799576E+04</rscale>
<asrwt>0</asrwt>
<pdfrwt beam="1">  1        2 0.17902263E+00 0.17799576E+04</pdfrwt>
<pdfrwt beam="2">  1       -2 0.10471881E+00 0.17799576E+04</pdfrwt>
<totfact> 0.13937349E+01</totfact>
</mgrwt>
</event>
<event>
12    1  0.1472088E-007  0.1653207E+04  0.7818608E-02  0.8788511E-01
         -1   -1    0    0    0  501 -0.00000000000E+00  0.00000000000E+00  0.86243241065E+03  0.86243241065E+03  0.00000000000E+00 0.  1.
          1   -1    0    0  501    0  0.00000000000E+00 -0.00000000000E+00 -0.79226342642E+03  0.79226342642E+03  0.00000000000E+00 0. -1.
         23    2    1    2    0    0  0.53886318239E+01 -0.53638300482E+03  0.15908665745E+03  0.56685463280E+03  0.90993653310E+02 0.  0.
        254    2    1    2    0    0 -0.53886318239E+01  0.53638300482E+03 -0.88917673214E+02  0.10878412043E+04  0.94220824020E+03 0.  0.
        -24    2    4    4    0    0  0.12022463740E+03  0.74647374644E+03 -0.22839699304E+03  0.79463593635E+03  0.87201303636E+02 0.  0.
         24    2    4    4    0    0 -0.12561326923E+03 -0.21009074162E+03  0.13947931983E+03  0.29320526792E+03  0.81228291603E+02 0.  0.
         11    1    3    3    0    0  0.38655889537E+02 -0.32151899149E+03  0.66783912841E+02  0.33064910509E+03  0.00000000000E+00 0. -1.
        -11    1    3    3    0    0 -0.33267257714E+02 -0.21486401333E+03  0.92302744605E+02  0.23620552771E+03  0.00000000000E+00 0.  1.
          4    1    6    6  502    0 -0.13367205459E+03 -0.21053253611E+03  0.13182308395E+03  0.28208064876E+03  0.00000000000E+00 0. -1.
          1    1    5    5  503    0  0.67673657781E+02  0.61549612635E+03 -0.17192645605E+03  0.64263046286E+03  0.00000000000E+00 0. -1.
         -2    1    5    5    0  503  0.52550979623E+02  0.13097762008E+03 -0.56470536993E+02  0.15200547349E+03  0.00000000000E+00 0.  1.
         -3    1    6    6    0  502  0.80587853578E+01  0.44179449394E+00  0.76562358727E+01  0.11124619165E+02  0.00000000000E+00 0.  1.
<mgrwt>
<rscale>  0 0.16532074E+04</rscale>
<asrwt>0</asrwt>
<pdfrwt beam="1">  1        1 0.12188668E+00 0.16532074E+04</pdfrwt>
<pdfrwt beam="2">  1       -1 0.13268191E+00 0.16532074E+04</pdfrwt>
<totfact> 0.10332340E+01</totfact>
</mgrwt>
</event>
<event>
12    1  0.1472088E-007  0.1000963E+04  0.7818608E-02  0.9307489E-01
         -1   -1    0    0    0  501 -0.00000000000E+00  0.00000000000E+00  0.16348597009E+03  0.16348597009E+03  0.00000000000E+00 0.  1.
          1   -1    0    0  501    0  0.00000000000E+00 -0.00000000000E+00 -0.15321300637E+04  0.15321300637E+04  0.00000000000E+00 0. -1.
         23    2    1    2    0    0 -0.13191362698E+02 -0.13446188279E+02 -0.12559050220E+03  0.15653816062E+03  0.91522726465E+02 0.  0.
        254    2    1    2    0    0  0.13191362698E+02  0.13446188279E+02 -0.12430535914E+04  0.15390778732E+04  0.90731673441E+03 0.  0.
        -24    2    4    4    0    0 -0.21058326079E+03  0.12789287402E+03 -0.12491769965E+04  0.12758020367E+04  0.80782245775E+02 0.  0.
         24    2    4    4    0    0  0.22377462349E+03 -0.11444668575E+03  0.61234051365E+01  0.26327583646E+03  0.78125181438E+02 0.  0.
         11    1    3    3    0    0  0.28410950105E+02 -0.22091670716E+02 -0.10150319926E+03  0.10769458418E+03  0.00000000000E+00 0. -1.
        -11    1    3    3    0    0 -0.41602312803E+02  0.86454824370E+01 -0.24087302935E+02  0.48843576444E+02  0.00000000000E+00 0.  1.
          2    1    6    6  502    0  0.46811749888E+02 -0.47559005872E+02 -0.25558542686E+02  0.71459345584E+02  0.00000000000E+00 0. -1.
          3    1    5    5  503    0 -0.97236261191E+02  0.96560012741E+02 -0.55064841514E+03  0.56744374491E+03  0.00000000000E+00 0. -1.
         -4    1    5    5    0  503 -0.11334699960E+03  0.31332861283E+02 -0.69852858140E+03  0.70835829179E+03  0.00000000000E+00 0.  1.
         -1    1    6    6    0  502  0.17696287360E+03 -0.66887679874E+02  0.31681947823E+02  0.19181649087E+03  0.00000000000E+00 0.  1.
<mgrwt>
<rscale>  0 0.10009631E+04</rscale>
<asrwt>0</asrwt>
<pdfrwt beam="1">  1        1 0.23571230E+00 0.10009631E+04</pdfrwt>
<pdfrwt beam="2">  1       -1 0.25151689E-01 0.10009631E+04</pdfrwt>
<totfact> 0.86388897E+01</totfact>
</mgrwt>
</event>
<event>
12    1  0.1472088E-007  0.2014558E+04  0.7818608E-02  0.8599844E-01
         -2   -1    0    0    0  501 -0.00000000000E+00  0.00000000000E+00  0.45794408007E+03  0.45794408007E+03  0.00000000000E+00 0.  1.
          2   -1    0    0  501    0  0.00000000000E+00 -0.00000000000E+00 -0.22155791969E+04  0.22155791969E+04  0.00000000000E+00 0. -1.
         23    2    1    2    0    0 -0.41517961277E+03  0.27511855054E+03  0.13169475849E+03  0.52339798367E+03  0.92399200122E+02 0.  0.
        254    2    1    2    0    0  0.41517961277E+03 -0.27511855054E+03 -0.18893298754E+04  0.21501252933E+04  0.89744474561E+03 0.  0.
        -24    2    4    4    0    0  0.22420048129E+03 -0.41233716508E+03 -0.18345728363E+04  0.18952800377E+04  0.78365401049E+02 0.  0.
         24    2    4    4    0    0  0.19097913148E+03  0.13721861454E+03 -0.54757039063E+02  0.25484525565E+03  0.81521740443E+02 0.  0.
         11    1    3    3    0    0 -0.42601985697E+02  0.60167177380E+02  0.59310183188E+00  0.73724963133E+02  0.00000000000E+00 0. -1.
        -11    1    3    3    0    0 -0.37257762707E+03  0.21495137317E+03  0.13110165666E+03  0.44967302054E+03  0.00000000000E+00 0.  1.
          4    1    6    6  502    0  0.18368510000E+03  0.99408012989E+02 -0.35730363003E+02  0.21189343512E+03  0.00000000000E+00 0. -1.
          3    1    5    5  503    0  0.44942244332E+02 -0.46540202191E+02 -0.34481518558E+03  0.35083230745E+03  0.00000000000E+00 0. -1.
         -4    1    5    5    0  503  0.17925823696E+03 -0.36579696289E+03 -0.14897576507E+04  0.15444477302E+04  0.00000000000E+00 0.  1.
         -3    1    6    6    0  502  0.72940314788E+01  0.37810601549E+02 -0.19026676060E+02  0.42951820527E+02  0.00000000000E+00 0.  1.
<mgrwt>
<rscale>  0 0.20145584E+04</rscale>
<asrwt>0</asrwt>
<pdfrwt beam="1">  1        2 0.34085833E+00 0.20145584E+04</pdfrwt>
<pdfrwt beam="2">  1       -2 0.70452938E-01 0.20145584E+04</pdfrwt>
<totfact> 0.86073964E+00</totfact>
</mgrwt>
</event>
<event>
12    1  0.1472088E-007  0.1397958E+04  0.7818608E-02  0.8955298E-01
          2   -1    0    0  501    0  0.00000000000E+00  0.00000000000E+00  0.45058220003E+03  0.45058220003E+03  0.00000000000E+00 0. -1.
         -2   -1    0    0    0  501 -0.00000000000E+00 -0.00000000000E+00 -0.10843122854E+04  0.10843122854E+04  0.00000000000E+00 0.  1.
         23    2    1    2    0    0 -0.12461398995E+03  0.33585596630E+03 -0.42138703832E+03  0.56068069579E+03  0.92021356099E+02 0.  0.
        254    2    1    2    0    0  0.12461398995E+03 -0.33585596630E+03 -0.21234304708E+03  0.97421378967E+03  0.88072416894E+03 0.  0.
        -24    2    4    4    0    0  0.26773262025E+03 -0.56099169203E+03 -0.28152406639E+03  0.68748886071E+03  0.83622360427E+02 0.  0.
         24    2    4    4    0    0 -0.14311863030E+03  0.22513572573E+03  0.69181019307E+02  0.28672492896E+03  0.79095727550E+02 0.  0.
         11    1    3    3    0    0 -0.13032385763E+03  0.33882976892E+03 -0.41018578408E+03  0.54776116842E+03  0.00000000000E+00 0.  1.
        -11    1    3    3    0    0  0.57098676726E+01 -0.29738026195E+01 -0.11201254236E+02  0.12919527365E+02  0.00000000000E+00 0. -1.
          2    1    6    6  502    0 -0.65438084103E+02  0.16726191538E+03  0.29363260594E+02  0.18199146205E+03  0.00000000000E+00 0. -1.
          3    1    5    5  503    0  0.26303010768E+03 -0.54651935950E+03 -0.25721093059E+03  0.65880627704E+03  0.00000000000E+00 0. -1.
         -2    1    5    5    0  503  0.47025125678E+01 -0.14472332535E+02 -0.24313135796E+02  0.28682583664E+02  0.00000000000E+00 0.  1.
         -1    1    6    6    0  502 -0.77680546197E+02  0.57873810355E+02  0.39817758713E+02  0.10473346691E+03  0.00000000000E+00 0.  1.
<mgrwt>
<rscale>  0 0.13979582E+04</rscale>
<asrwt>0</asrwt>
<pdfrwt beam="1">  1        2 0.69320338E-01 0.13979582E+04</pdfrwt>
<pdfrwt beam="2">  1       -2 0.16681727E+00 0.13979582E+04</pdfrwt>
<totfact> 0.15167503E+01</totfact>
</mgrwt>
</event>
<event>
12    1  0.1472088E-007  0.1736242E+04  0.7818608E-02  0.8740960E-01
          2   -1    0    0  501    0  0.00000000000E+00  0.00000000000E+00  0.10977998725E+04  0.10977998725E+04  0.00000000000E+00 0. -1.
         -2   -1    0    0    0  501 -0.00000000000E+00 -0.00000000000E+00 -0.68649514747E+03  0.68649514747E+03  0.00000000000E+00 0.  1.
         23    2    1    2    0    0 -0.81752796528E+02 -0.32642952038E+03  0.70810940224E+03  0.78937776483E+03  0.91970530811E+02 0.  0.
        254    2    1    2    0    0  0.81752796528E+02  0.32642952038E+03 -0.29680467721E+03  0.99491725513E+03  0.88799075256E+03 0.  0.
        -24    2    4    4    0    0  0.37300669931E+03 -0.12341602629E+03 -0.18413804922E+03  0.44152306736E+03  0.81671810089E+02 0.  0.
         24    2    4    4    0    0 -0.29125390278E+03  0.44984554667E+03 -0.11266662800E+03  0.55339418778E+03  0.79759051210E+02 0.  0.
         11    1    3    3    0    0 -0.48584471585E+02 -0.30096289179E+03  0.64826728314E+03  0.71637251728E+03  0.00000000000E+00 0. -1.
        -11    1    3    3    0    0 -0.33168324943E+02 -0.25466628591E+02  0.59842119101E+02  0.73005247550E+02  0.00000000000E+00 0.  1.
          4    1    6    6  502    0 -0.15379755863E+03  0.16967508412E+03 -0.33563404614E+02  0.23145156154E+03  0.00000000000E+00 0. -1.
          3    1    5    5  503    0  0.32964998582E+03 -0.78508298207E+02 -0.15584262231E+03  0.37298738446E+03  0.00000000000E+00 0. -1.
         -4    1    5    5    0  503  0.43356713494E+02 -0.44907728084E+02 -0.28295426905E+02  0.68535682899E+02  0.00000000000E+00 0.  1.
         -3    1    6    6    0  502 -0.13745634416E+03  0.28017046255E+03 -0.79103223383E+02  0.32194262623E+03  0.00000000000E+00 0.  1.
<mgrwt>
<rscale>  0 0.17362422E+04</rscale>
<asrwt>0</asrwt>
<pdfrwt beam="1">  1        2 0.16889229E+00 0.17362422E+04</pdfrwt>
<pdfrwt beam="2">  1       -2 0.10561464E+00 0.17362422E+04</pdfrwt>
<totfact> 0.15033317E+01</totfact>
</mgrwt>
</event>
<event>
12    1  0.1472088E-007  0.1944663E+04  0.7818608E-02  0.8632938E-01
         -2   -1    0    0    0  501 -0.00000000000E+00  0.00000000000E+00  0.77290964173E+03  0.77290964173E+03  0.00000000000E+00 0.  1.
          2   -1    0    0  501    0  0.00000000000E+00 -0.00000000000E+00 -0.12232075220E+04  0.12232075220E+04  0.00000000000E+00 0. -1.
         23    2    1    2    0    0 -0.24916309140E+03  0.68259212716E+03  0.54580047904E+02  0.73409826244E+03  0.88921421004E+02 0.  0.
        254    2    1    2    0    0  0.24916309140E+03 -0.68259212716E+03 -0.50487792822E+03  0.12620189013E+04  0.89987539512E+03 0.  0.
        -24    2    4    4    0    0  0.31728019547E+03 -0.40065067148E+02  0.12829896426E+03  0.35377645990E+03  0.80157515611E+02 0.  0.
         24    2    4    4    0    0 -0.68117104065E+02 -0.64252706001E+03 -0.63317689248E+03  0.90824244143E+03  0.80687003490E+02 0.  0.
         13    1    3    3    0    0 -0.19717568518E+03  0.44533547218E+03  0.98820814165E+01  0.48713405664E+03  0.00000000000E+00 0. -1.
        -13    1    3    3    0    0 -0.51987406223E+02  0.23725665498E+03  0.44697966488E+02  0.24696420580E+03  0.00000000000E+00 0.  1.
          2    1    6    6  502    0 -0.80550842978E+02 -0.62071236181E+03 -0.61200549316E+03  0.87539876517E+03  0.00000000000E+00 0. -1.
          3    1    5    5  503    0  0.22358068349E+03 -0.25291577929E+02  0.49330268392E+02  0.23035073545E+03  0.00000000000E+00 0. -1.
         -4    1    5    5    0  503  0.93699511978E+02 -0.14773489219E+02  0.78968695870E+02  0.12342572445E+03  0.00000000000E+00 0.  1.
         -1    1    6    6    0  502  0.12433738913E+02 -0.21814698210E+02 -0.21171399322E+02  0.32843676265E+02  0.00000000000E+00 0.  1.
<mgrwt>
<rscale>  0 0.19446634E+04</rscale>
<asrwt>0</asrwt>
<pdfrwt beam="1">  1        2 0.18818577E+00 0.19446634E+04</pdfrwt>
<pdfrwt beam="2">  1       -2 0.11890918E+00 0.19446634E+04</pdfrwt>
<totfact> 0.93016106E+00</totfact>
</mgrwt>
</event>
<event>
12    1  0.1472088E-007  0.1809403E+04  0.7818608E-02  0.8701315E-01
          2   -1    0    0  501    0  0.00000000000E+00  0.00000000000E+00  0.18090481865E+04  0.18090481865E+04  0.00000000000E+00 0. -1.
         -2   -1    0    0    0  501 -0.00000000000E+00 -0.00000000000E+00 -0.45243949533E+03  0.45243949533E+03  0.00000000000E+00 0.  1.
         23    2    1    2    0    0  0.26538843199E+03  0.35546956615E+02  0.12822890198E+04  0.13131530251E+04  0.91712218675E+02 0.  0.
        254    2    1    2    0    0 -0.26538843199E+03 -0.35546956615E+02  0.74319671389E+02  0.94833465676E+03  0.90670866418E+03 0.  0.
        -24    2    4    4    0    0 -0.57502397578E+03 -0.15908017666E+03  0.55323450314E+02  0.60453932765E+03  0.80299683667E+02 0.  0.
         24    2    4    4    0    0  0.30963554379E+03  0.12353322005E+03  0.18996221075E+02  0.34379532911E+03  0.81851972915E+02 0.  0.
         13    1    3    3    0    0  0.26057670615E+03  0.47328785155E+02  0.12595748261E+04  0.12871165356E+04  0.00000000000E+00 0. -1.
        -13    1    3    3    0    0  0.48117258415E+01 -0.11781828540E+02  0.22714193706E+02  0.26036489491E+02  0.00000000000E+00 0.  1.
          2    1    6    6  502    0  0.26543171691E+03  0.10506229649E+03 -0.13694939483E+02  0.28579649027E+03  0.00000000000E+00 0. -1.
          3    1    5    5  503    0 -0.40156457552E+03 -0.13450410626E+03  0.67882481759E+02  0.42889799981E+03  0.00000000000E+00 0. -1.
         -4    1    5    5    0  503 -0.17345940026E+03 -0.24576070399E+02 -0.12559031445E+02  0.17564132784E+03  0.00000000000E+00 0.  1.
         -1    1    6    6    0  502  0.44203826883E+02  0.18470923560E+02  0.32691160558E+02  0.57998838841E+02  0.00000000000E+00 0.  1.
<mgrwt>
<rscale>  0 0.18094030E+04</rscale>
<asrwt>0</asrwt>
<pdfrwt beam="1">  1        2 0.27831510E+00 0.18094030E+04</pdfrwt>
<pdfrwt beam="2">  1       -2 0.69606078E-01 0.18094030E+04</pdfrwt>
<totfact> 0.15141722E+01</totfact>
</mgrwt>
</event>
<event>
12    1  0.1472088E-007  0.1519235E+04  0.7818608E-02  0.8871762E-01
         -2   -1    0    0    0  501 -0.00000000000E+00  0.00000000000E+00  0.49022902496E+03  0.49022902496E+03  0.00000000000E+00 0.  1.
          2   -1    0    0  501    0  0.00000000000E+00 -0.00000000000E+00 -0.11770390196E+04  0.11770390196E+04  0.00000000000E+00 0. -1.
         23    2    1    2    0    0 -0.39145996011E+03 -0.15958629035E+03 -0.48202867936E+03  0.64736866966E+03  0.89587177119E+02 0.  0.
        254    2    1    2    0    0  0.39145996011E+03  0.15958629035E+03 -0.20478131528E+03  0.10198993749E+04  0.90529037517E+03 0.  0.
        -24    2    4    4    0    0  0.17339174779E+03  0.50731819486E+03 -0.25435712839E+03  0.59872217711E+03  0.79587986287E+02 0.  0.
         24    2    4    4    0    0  0.21806821231E+03 -0.34773190452E+03  0.49575813110E+02  0.42117719778E+03  0.80381888750E+02 0.  0.
         13    1    3    3    0    0 -0.21631358221E+03 -0.11575321347E+03 -0.22242726473E+03  0.33115594570E+03  0.00000000000E+00 0.  1.
        -13    1    3    3    0    0 -0.17514637790E+03 -0.43833076872E+02 -0.25960141463E+03  0.31621272396E+03  0.00000000000E+00 0. -1.
          2    1    6    6  502    0  0.16646518008E+03 -0.21675970555E+03  0.60709486807E+02  0.27996619067E+03  0.00000000000E+00 0. -1.
          1    1    5    5  503    0  0.15470969001E+03  0.40848930476E+03 -0.23599759813E+03  0.49648108384E+03  0.00000000000E+00 0. -1.
         -2    1    5    5    0  503  0.18682057777E+02  0.98828890101E+02 -0.18359530254E+02  0.10224109327E+03  0.00000000000E+00 0.  1.
         -1    1    6    6    0  502  0.51603032234E+02 -0.13097219897E+03 -0.11133673697E+02  0.14121100710E+03  0.00000000000E+00 0.  1.
<mgrwt>
<rscale>  0 0.15192349E+04</rscale>
<asrwt>0</asrwt>
<pdfrwt beam="1">  1        2 0.18108292E+00 0.15192349E+04</pdfrwt>
<pdfrwt beam="2">  1       -2 0.75419851E-01 0.15192349E+04</pdfrwt>
<totfact> 0.29754350E+01</totfact>
</mgrwt>
</event>
<event>
12    1  0.1472088E-007  0.1519358E+04  0.7818608E-02  0.8871681E-01
          1   -1    0    0  501    0  0.00000000000E+00  0.00000000000E+00  0.12393559388E+04  0.12393559388E+04  0.00000000000E+00 0. -1.
         -1   -1    0    0    0  501 -0.00000000000E+00 -0.00000000000E+00 -0.46565507705E+03  0.46565507705E+03  0.00000000000E+00 0.  1.
         23    2    1    2    0    0 -0.15616768992E+03  0.26083331510E+03  0.67970267095E+03  0.74991996824E+03  0.89229323759E+02 0.  0.
        254    2    1    2    0    0  0.15616768992E+03 -0.26083331510E+03  0.93998190782E+02  0.95509104760E+03  0.90052256146E+03 0.  0.
        -24    2    4    4    0    0  0.50891344890E+03 -0.69438221167E+02 -0.48467695129E+02  0.52193504349E+03  0.79072796346E+02 0.  0.
         24    2    4    4    0    0 -0.35274575898E+03 -0.19139509393E+03  0.14246588591E+03  0.43315600411E+03  0.79157708341E+02 0.  0.
         13    1    3    3    0    0 -0.12229205187E+03  0.16656607462E+03  0.53858256388E+03  0.57686287910E+03  0.00000000000E+00 0. -1.
        -13    1    3    3    0    0 -0.33875638050E+02  0.94267240480E+02  0.14112010707E+03  0.17305708914E+03  0.00000000000E+00 0.  1.
          4    1    6    6  502    0 -0.29167376540E+03 -0.16748118336E+03  0.87376944973E+02  0.34750289598E+03  0.00000000000E+00 0. -1.
          3    1    5    5  503    0  0.44749186069E+03 -0.43962779482E+02 -0.21440525909E+02  0.45015706982E+03  0.00000000000E+00 0. -1.
         -4    1    5    5    0  503  0.61421588212E+02 -0.25475441685E+02 -0.27027169219E+02  0.71777973666E+02  0.00000000000E+00 0.  1.
         -1    1    6    6    0  502 -0.61071993579E+02 -0.23913910571E+02  0.55088940938E+02  0.85653108129E+02  0.00000000000E+00 0.  1.
<mgrwt>
<rscale>  0 0.15193583E+04</rscale>
<asrwt>0</asrwt>
<pdfrwt beam="1">  1        1 0.19067014E+00 0.15193583E+04</pdfrwt>
<pdfrwt beam="2">  1       -1 0.71639243E-01 0.15193583E+04</pdfrwt>
<totfact> 0.19004044E+01</totfact>
</mgrwt>
</event>
<event>
12    1  0.1472088E-007  0.2717308E+04  0.7818608E-02  0.8329411E-01
         -4   -1    0    0    0  501 -0.00000000000E+00  0.00000000000E+00  0.15209438137E+04  0.15209438137E+04  0.00000000000E+00 0.  1.
          4   -1    0    0  501    0  0.00000000000E+00 -0.00000000000E+00 -0.12136810747E+04  0.12136810747E+04  0.00000000000E+00 0. -1.
         23    2    1    2    0    0  0.53953016076E+03  0.58395671704E+03 -0.80011948829E+03  0.11315923603E+04  0.90619162737E+02 0.  0.
        254    2    1    2    0    0 -0.53953016076E+03 -0.58395671704E+03  0.11073822273E+04  0.16030325281E+04  0.84339768029E+03 0.  0.
        -24    2    4    4    0    0  0.64724472548E+01  0.23080884894E+02  0.66642129026E+03  0.67174618024E+03  0.80938091940E+02 0.  0.
         24    2    4    4    0    0 -0.54600260802E+03 -0.60703760193E+03  0.44096093703E+03  0.93128634788E+03  0.78957049318E+02 0.  0.
         11    1    3    3    0    0  0.31563804456E+02  0.94977875411E+01 -0.40461935516E+02  0.52188599766E+02  0.00000000000E+00 0.  1.
        -11    1    3    3    0    0  0.50796635631E+03  0.57445892949E+03 -0.75965755277E+03  0.10794037606E+04  0.00000000000E+00 0. -1.
          2    1    6    6  502    0 -0.34829545758E+03 -0.33714457791E+03  0.28305126603E+03  0.56133253192E+03  0.00000000000E+00 0. -1.
          1    1    5    5  503    0  0.33519522938E+02  0.38833208313E+02  0.34316393151E+03  0.34697703148E+03  0.00000000000E+00 0. -1.
         -2    1    5    5    0  503 -0.27047075683E+02 -0.15752323419E+02  0.32325735875E+03  0.32476914875E+03  0.00000000000E+00 0.  1.
         -1    1    6    6    0  502 -0.19770715044E+03 -0.26989302402E+03  0.15790967100E+03  0.36995381596E+03  0.00000000000E+00 0.  1.
<mgrwt>
<rscale>  0 0.27173080E+04</rscale>
<asrwt>0</asrwt>
<pdfrwt beam="1">  1        4 0.18672017E+00 0.27173080E+04</pdfrwt>
<pdfrwt beam="2">  1       -4 0.23399136E+00 0.27173080E+04</pdfrwt>
<totfact> 0.22410383E-02</totfact>
</mgrwt>
</event>
<event>
12    1  0.1472088E-007  0.1822655E+04  0.7818608E-02  0.8694344E-01
         -2   -1    0    0    0  501 -0.00000000000E+00  0.00000000000E+00  0.33357653556E+03  0.33357653556E+03  0.00000000000E+00 0.  1.
          2   -1    0    0  501    0  0.00000000000E+00 -0.00000000000E+00 -0.24897376070E+04  0.24897376070E+04  0.00000000000E+00 0. -1.
         23    2    1    2    0    0 -0.12826810155E+03  0.58829777719E+03 -0.30540697586E+03  0.68110036289E+03  0.89873816511E+02 0.  0.
        254    2    1    2    0    0  0.12826810155E+03 -0.58829777719E+03 -0.18507540956E+04  0.21422137797E+04  0.89512131858E+03 0.  0.
        -24    2    4    4    0    0  0.45547721417E+03 -0.85027228930E+02 -0.89337813489E+03  0.10093796281E+04  0.77676375945E+02 0.  0.
         24    2    4    4    0    0 -0.32720911263E+03 -0.50327054826E+03 -0.95737596069E+03  0.11328341516E+04  0.79983978264E+02 0.  0.
         13    1    3    3    0    0 -0.47996558823E+02  0.10841545834E+03 -0.90722338123E+02  0.14929207581E+03  0.00000000000E+00 0. -1.
        -13    1    3    3    0    0 -0.80271542725E+02  0.47988231886E+03 -0.21468463774E+03  0.53180828708E+03  0.00000000000E+00 0.  1.
          4    1    6    6  502    0 -0.21674517272E+03 -0.33263355485E+03 -0.55961869352E+03  0.68614621900E+03  0.00000000000E+00 0. -1.
          3    1    5    5  503    0  0.24079982168E+03 -0.23697216287E+02 -0.39403192499E+03  0.46239298231E+03  0.00000000000E+00 0. -1.
         -4    1    5    5    0  503  0.21467739249E+03 -0.61330012642E+02 -0.49934620990E+03  0.54698664576E+03  0.00000000000E+00 0.  1.
         -3    1    6    6    0  502 -0.11046393991E+03 -0.17063699341E+03 -0.39775726717E+03  0.44668793260E+03  0.00000000000E+00 0.  1.
<mgrwt>
<rscale>  0 0.18226553E+04</rscale>
<asrwt>0</asrwt>
<pdfrwt beam="1">  1        2 0.38303656E+00 0.18226553E+04</pdfrwt>
<pdfrwt beam="2">  1       -2 0.51319466E-01 0.18226553E+04</pdfrwt>
<totfact> 0.11944041E+01</totfact>
</mgrwt>
</event>
<event>
12    1  0.1472088E-007  0.2165367E+04  0.7818608E-02  0.8532983E-01
          1   -1    0    0  501    0  0.00000000000E+00  0.00000000000E+00  0.19141785474E+04  0.19141785474E+04  0.00000000000E+00 0. -1.
         -1   -1    0    0    0  501 -0.00000000000E+00 -0.00000000000E+00 -0.61237968364E+03  0.61237968364E+03  0.00000000000E+00 0.  1.
         23    2    1    2    0    0  0.16560892369E+03  0.87543391484E+03  0.50269959154E+03  0.10270607337E+04  0.91301788358E+02 0.  0.
        254    2    1    2    0    0 -0.16560892369E+03 -0.87543391484E+03  0.79909927223E+03  0.14994974973E+04  0.90339484323E+03 0.  0.
        -24    2    4    4    0    0  0.28613706305E+03 -0.68172434635E+03  0.62662383566E+03  0.97236250401E+03  0.78796602198E+02 0.  0.
         24    2    4    4    0    0 -0.45174598675E+03 -0.19370956848E+03  0.17247543657E+03  0.52713499333E+03  0.80781752309E+02 0.  0.
         13    1    3    3    0    0 -0.10293581112E+02  0.95438711178E+02  0.50528626633E+02  0.10847878831E+03  0.00000000000E+00 0. -1.
        -13    1    3    3    0    0  0.17590250480E+03  0.77999520366E+03  0.45217096490E+03  0.91858194541E+03  0.00000000000E+00 0.  1.
          4    1    6    6  502    0 -0.58172944792E+02  0.25059006898E+01  0.16476673511E+02  0.60513236684E+02  0.00000000000E+00 0. -1.
          1    1    5    5  503    0  0.85643679413E+02 -0.18710966031E+03  0.13044108830E+03  0.24363854851E+03  0.00000000000E+00 0. -1.
         -2    1    5    5    0  503  0.20049338364E+03 -0.49461468604E+03  0.49618274736E+03  0.72872395550E+03  0.00000000000E+00 0.  1.
         -3    1    6    6    0  502 -0.39357304196E+03 -0.19621546917E+03  0.15599876306E+03  0.46662175664E+03  0.00000000000E+00 0.  1.
<mgrwt>
<rscale>  0 0.21653675E+04</rscale>
<asrwt>0</asrwt>
<pdfrwt beam="1">  1        1 0.29448900E+00 0.21653675E+04</pdfrwt>
<pdfrwt beam="2">  1       -1 0.94212260E-01 0.21653675E+04</pdfrwt>
<totfact> 0.33992788E+00</totfact>
</mgrwt>
</event>
<event>
12    1  0.1472088E-007  0.1691988E+04  0.7818608E-02  0.8765947E-01
          2   -1    0    0  501    0  0.00000000000E+00  0.00000000000E+00  0.39880419450E+03  0.39880419450E+03  0.00000000000E+00 0. -1.
         -2   -1    0    0    0  501 -0.00000000000E+00 -0.00000000000E+00 -0.17946294922E+04  0.17946294922E+04  0.00000000000E+00 0.  1.
         23    2    1    2    0    0  0.19438532085E+03 -0.44578664345E+03 -0.14829117645E+02  0.49493492172E+03  0.90715431779E+02 0.  0.
        254    2    1    2    0    0 -0.19438532085E+03  0.44578664345E+03 -0.13809961801E+04  0.16984987650E+04  0.86095076565E+03 0.  0.
        -24    2    4    4    0    0  0.18774732109E+03  0.53350775082E+03 -0.96679818898E+03  0.11227055391E+04  0.76742507866E+02 0.  0.
         24    2    4    4    0    0 -0.38213264194E+03 -0.87721107370E+02 -0.41419799108E+03  0.57579322590E+03  0.79104452868E+02 0.  0.
         13    1    3    3    0    0  0.16760309173E+03 -0.43434143730E+03 -0.15249287358E+02  0.46580663507E+03  0.00000000000E+00 0. -1.
        -13    1    3    3    0    0  0.26782229116E+02 -0.11445206156E+02  0.42016971285E+00  0.29128286647E+02  0.00000000000E+00 0.  1.
          2    1    6    6  502    0 -0.31045031755E+02 -0.30672734910E+02 -0.55951637467E+02  0.70959117799E+02  0.00000000000E+00 0. -1.
          3    1    5    5  503    0  0.28547896741E+02  0.17709195480E+03 -0.33634397909E+03  0.38118737536E+03  0.00000000000E+00 0. -1.
         -4    1    5    5    0  503  0.15919942435E+03  0.35641579602E+03 -0.63045420988E+03  0.74151816372E+03  0.00000000000E+00 0.  1.
         -1    1    6    6    0  502 -0.35108761018E+03 -0.57048372461E+02 -0.35824635361E+03  0.50483410810E+03  0.00000000000E+00 0.  1.
<mgrwt>
<rscale>  0 0.16919879E+04</rscale>
<asrwt>0</asrwt>
<pdfrwt beam="1">  1        2 0.61354491E-01 0.16919879E+04</pdfrwt>
<pdfrwt beam="2">  1       -2 0.27609685E+00 0.16919879E+04</pdfrwt>
<totfact> 0.33834755E+00</totfact>
</mgrwt>
</event>
<event>
12    1  0.1472088E-007  0.1265272E+04  0.7818608E-02  0.9057567E-01
         -2   -1    0    0    0  501 -0.00000000000E+00  0.00000000000E+00  0.45329343901E+03  0.45329343901E+03  0.00000000000E+00 0.  1.
          2   -1    0    0  501    0  0.00000000000E+00 -0.00000000000E+00 -0.88293440472E+03  0.88293440472E+03  0.00000000000E+00 0. -1.
         23    2    1    2    0    0  0.23687953534E+03 -0.17438644133E+03 -0.16303658823E+03  0.35015562110E+03  0.97496075337E+02 0.  0.
        254    2    1    2    0    0 -0.23687953534E+03  0.17438644133E+03 -0.26660437747E+03  0.98607222263E+03  0.90262837811E+03 0.  0.
        -24    2    4    4    0    0  0.13517225400E+03 -0.12619621264E+03  0.22033976189E+03  0.29889522715E+03  0.81189431621E+02 0.  0.
         24    2    4    4    0    0 -0.37205178934E+03  0.30058265398E+03 -0.48694413936E+03  0.68717699547E+03  0.79530889749E+02 0.  0.
         11    1    3    3    0    0  0.14992589853E+03 -0.85895054596E+02 -0.44181991234E+02  0.17834736837E+03  0.00000000000E+00 0.  1.
        -11    1    3    3    0    0  0.86953636803E+02 -0.88491386737E+02 -0.11885459700E+03  0.17180825273E+03  0.00000000000E+00 0. -1.
          2    1    6    6  502    0 -0.46624000107E+02  0.70249062882E+02 -0.63315705570E+02  0.10544006256E+03  0.00000000000E+00 0. -1.
          1    1    5    5  503    0  0.20059164548E+02 -0.57711795180E+02  0.35621199338E+02  0.70724049853E+02  0.00000000000E+00 0. -1.
         -2    1    5    5    0  503  0.11511308946E+03 -0.68484417464E+02  0.18471856255E+03  0.22817117730E+03  0.00000000000E+00 0.  1.
         -1    1    6    6    0  502 -0.32542778923E+03  0.23033359110E+03 -0.42362843379E+03  0.58173693291E+03  0.00000000000E+00 0.  1.
<mgrwt>
<rscale>  0 0.12652721E+04</rscale>
<asrwt>0</asrwt>
<pdfrwt beam="1">  1        2 0.13583606E+00 0.12652721E+04</pdfrwt>
<pdfrwt beam="2">  1       -2 0.69737452E-01 0.12652721E+04</pdfrwt>
<totfact> 0.55477835E+01</totfact>
</mgrwt>
</event>
<event>
12    1  0.1472088E-007  0.1498396E+04  0.7818608E-02  0.8885521E-01
          1   -1    0    0  501    0  0.00000000000E+00  0.00000000000E+00  0.45850667037E+03  0.45850667037E+03  0.00000000000E+00 0. -1.
         -1   -1    0    0    0  501 -0.00000000000E+00 -0.00000000000E+00 -0.12241856540E+04  0.12241856540E+04  0.00000000000E+00 0.  1.
         23    2    1    2    0    0  0.41705871272E+03  0.56830964315E+02 -0.53677638022E+03  0.68657887262E+03  0.78063676635E+02 0.  0.
        254    2    1    2    0    0 -0.41705871272E+03 -0.56830964315E+02 -0.22890260346E+03  0.99611345178E+03  0.87331430687E+03 0.  0.
        -24    2    4    4    0    0  0.14529629511E+03  0.26794943027E+03 -0.70927107773E+02  0.32268167441E+03  0.78644121411E+02 0.  0.
         24    2    4    4    0    0 -0.56235500783E+03 -0.32478039458E+03 -0.15797549568E+03  0.67343177737E+03  0.82635597658E+02 0.  0.
         13    1    3    3    0    0  0.30032116059E+03  0.58341690933E+02 -0.33670671504E+03  0.45493731914E+03  0.00000000000E+00 0. -1.
        -13    1    3    3    0    0  0.11673755213E+03 -0.15107266173E+01 -0.20006966518E+03  0.23164155348E+03  0.00000000000E+00 0.  1.
          4    1    6    6  502    0 -0.37548897439E+03 -0.21428892853E+03 -0.64676557259E+02  0.43714388002E+03  0.00000000000E+00 0. -1.
          3    1    5    5  503    0  0.12686506888E+03  0.26166816746E+03 -0.51783441497E+02  0.29537518578E+03  0.00000000000E+00 0. -1.
         -4    1    5    5    0  503  0.18431226228E+02  0.62812628059E+01 -0.19143666276E+02  0.27306488628E+02  0.00000000000E+00 0.  1.
         -3    1    6    6    0  502 -0.18686603344E+03 -0.11049146605E+03 -0.93298938425E+02  0.23628789735E+03  0.00000000000E+00 0.  1.
<mgrwt>
<rscale>  0 0.14983955E+04</rscale>
<asrwt>0</asrwt>
<pdfrwt beam="1">  1        1 0.70539487E-01 0.14983955E+04</pdfrwt>
<pdfrwt beam="2">  1       -1 0.18833626E+00 0.14983955E+04</pdfrwt>
<totfact> 0.87651797E+00</totfact>
</mgrwt>
</event>
<event>
12    1  0.1472088E-007  0.1796585E+04  0.7818608E-02  0.8708118E-01
          2   -1    0    0  501    0  0.00000000000E+00  0.00000000000E+00  0.24963850072E+04  0.24963850072E+04  0.00000000000E+00 0. -1.
         -2   -1    0    0    0  501 -0.00000000000E+00 -0.00000000000E+00 -0.32323916665E+03  0.32323916665E+03  0.00000000000E+00 0.  1.
         23    2    1    2    0    0 -0.28197147834E+03  0.31375173449E+03  0.16250585081E+04  0.16814355326E+04  0.91990380822E+02 0.  0.
        254    2    1    2    0    0  0.28197147834E+03 -0.31375173449E+03  0.54808733250E+03  0.11381886413E+04  0.90394999505E+03 0.  0.
        -24    2    4    4    0    0 -0.27293058228E+03  0.88376349536E+02  0.24048730868E+03  0.38289285316E+03  0.80444449528E+02 0.  0.
         24    2    4    4    0    0  0.55490206062E+03 -0.40212808403E+03  0.30760002382E+03  0.75529578811E+03  0.78934530041E+02 0.  0.
         13    1    3    3    0    0 -0.14654489706E+03  0.13021173335E+03  0.59643687960E+03  0.62782756686E+03  0.00000000000E+00 0. -1.
        -13    1    3    3    0    0 -0.13542658128E+03  0.18354000114E+03  0.10286216285E+04  0.10536079658E+04  0.00000000000E+00 0.  1.
          2    1    6    6  502    0  0.22474675253E+02 -0.61251187742E+01  0.24715698846E+02  0.33963125256E+02  0.00000000000E+00 0. -1.
          1    1    5    5  503    0  0.93610605460E+00  0.24573532374E-01 -0.47277195340E+01  0.48195674491E+01  0.00000000000E+00 0. -1.
         -2    1    5    5    0  503 -0.27386668833E+03  0.88351776003E+02  0.24521502821E+03  0.37807328571E+03  0.00000000000E+00 0.  1.
         -1    1    6    6    0  502  0.53242738537E+03 -0.39600296525E+03  0.28288432497E+03  0.72133266285E+03  0.00000000000E+00 0.  1.
<mgrwt>
<rscale>  0 0.17965850E+04</rscale>
<asrwt>0</asrwt>
<pdfrwt beam="1">  1        2 0.38405922E+00 0.17965850E+04</pdfrwt>
<pdfrwt beam="2">  1       -2 0.49729104E-01 0.17965850E+04</pdfrwt>
<totfact> 0.12654605E+01</totfact>
</mgrwt>
</event>
<event>
12    1  0.1472088E-007  0.1273763E+04  0.7818608E-02  0.9050634E-01
         -2   -1    0    0    0  501 -0.00000000000E+00  0.00000000000E+00  0.34264069383E+03  0.34264069383E+03  0.00000000000E+00 0.  1.
          2   -1    0    0  501    0  0.00000000000E+00 -0.00000000000E+00 -0.11838008330E+04  0.11838008330E+04  0.00000000000E+00 0. -1.
         23    2    1    2    0    0 -0.65703015980E+02  0.24187910645E+03  0.46243419615E+01  0.26621124486E+03  0.89580432603E+02 0.  0.
        254    2    1    2    0    0  0.65703015980E+02 -0.24187910645E+03 -0.84578448111E+03  0.12602302819E+04  0.90000365922E+03 0.  0.
        -24    2    4    4    0    0  0.43339104258E+02 -0.30475369597E+03 -0.10137162404E+04  0.10625544856E+04  0.81537265085E+02 0.  0.
         24    2    4    4    0    0  0.22363911722E+02  0.62874589520E+02  0.16793175931E+03  0.19767579635E+03  0.80132927829E+02 0.  0.
         13    1    3    3    0    0  0.32458555318E+01  0.12177217608E+03 -0.25563358690E+02  0.12446880634E+03  0.00000000000E+00 0. -1.
        -13    1    3    3    0    0 -0.68948871512E+02  0.12010693037E+03  0.30187700652E+02  0.14174243852E+03  0.00000000000E+00 0.  1.
          2    1    6    6  502    0 -0.68364838590E+01  0.70485191706E+02  0.13833883212E+03  0.15541084979E+03  0.00000000000E+00 0. -1.
          1    1    5    5  503    0  0.23347554924E+02 -0.29492115273E+03 -0.92980702285E+03  0.97573802549E+03  0.00000000000E+00 0. -1.
         -2    1    5    5    0  503  0.19991549334E+02 -0.98325432387E+01 -0.83909217574E+02  0.86816460105E+02  0.00000000000E+00 0.  1.
         -1    1    6    6    0  502  0.29200395581E+02 -0.76106021856E+01  0.29592927195E+02  0.42264946560E+02  0.00000000000E+00 0.  1.
<mgrwt>
<rscale>  0 0.12737635E+04</rscale>
<asrwt>0</asrwt>
<pdfrwt beam="1">  1        2 0.18212321E+00 0.12737635E+04</pdfrwt>
<pdfrwt beam="2">  1       -2 0.52713951E-01 0.12737635E+04</pdfrwt>
<totfact> 0.64559468E+01</totfact>
</mgrwt>
</event>
<event>
12    1  0.1472088E-007  0.1872987E+04  0.7818608E-02  0.8668420E-01
          1   -1    0    0  501    0  0.00000000000E+00  0.00000000000E+00  0.19271968080E+04  0.19271968080E+04  0.00000000000E+00 0. -1.
         -1   -1    0    0    0  501 -0.00000000000E+00 -0.00000000000E+00 -0.45507562564E+03  0.45507562564E+03  0.00000000000E+00 0.  1.
         23    2    1    2    0    0 -0.25978013447E+03  0.66904567037E+03  0.60778522361E+03  0.94481223800E+03  0.90329727784E+02 0.  0.
        254    2    1    2    0    0  0.25978013447E+03 -0.66904567037E+03  0.86433595879E+03  0.14374601957E+04  0.89672032275E+03 0.  0.
        -24    2    4    4    0    0  0.37950166799E+03 -0.81565823364E+03  0.83498190529E+03  0.12299639702E+04  0.79351848277E+02 0.  0.
         24    2    4    4    0    0 -0.11972153351E+03  0.14661256327E+03  0.29354053496E+02  0.20749622544E+03  0.79778028435E+02 0.  0.
         11    1    3    3    0    0 -0.23779363428E+03  0.50883052261E+03  0.47288722427E+03  0.73421838721E+03  0.00000000000E+00 0. -1.
        -11    1    3    3    0    0 -0.21986500198E+02  0.16021514776E+03  0.13489799935E+03  0.21059385079E+03  0.00000000000E+00 0.  1.
          2    1    6    6  502    0 -0.76023488266E+02  0.13041484321E+03 -0.26206559421E+01  0.15097837572E+03  0.00000000000E+00 0. -1.
          1    1    5    5  503    0  0.35451203076E+03 -0.71212472932E+03  0.71579499473E+03  0.10701228362E+04  0.00000000000E+00 0. -1.
         -2    1    5    5    0  503  0.24989637230E+02 -0.10353350432E+03  0.11918691056E+03  0.15984113406E+03  0.00000000000E+00 0.  1.
         -1    1    6    6    0  502 -0.43698045246E+02  0.16197720060E+02  0.31974709438E+02  0.56517849721E+02  0.00000000000E+00 0.  1.
<mgrwt>
<rscale>  0 0.18729872E+04</rscale>
<asrwt>0</asrwt>
<pdfrwt beam="1">  1        1 0.29649181E+00 0.18729872E+04</pdfrwt>
<pdfrwt beam="2">  1       -1 0.70011636E-01 0.18729872E+04</pdfrwt>
<totfact> 0.64582478E+00</totfact>
</mgrwt>
</event>
<event>
12    1  0.1472088E-007  0.2379439E+04  0.7818608E-02  0.8447241E-01
         -1   -1    0    0    0  501 -0.00000000000E+00  0.00000000000E+00  0.16352876334E+04  0.16352876334E+04  0.00000000000E+00 0.  1.
          1   -1    0    0  501    0  0.00000000000E+00 -0.00000000000E+00 -0.86555590785E+03  0.86555590785E+03  0.00000000000E+00 0. -1.
         23    2    1    2    0    0  0.80295593132E+03  0.61473037162E+03  0.23839739843E+03  0.10429586032E+04  0.91091552563E+02 0.  0.
        254    2    1    2    0    0 -0.80295593132E+03 -0.61473037162E+03  0.53133432713E+03  0.14578849381E+04  0.90580387948E+03 0.  0.
        -24    2    4    4    0    0 -0.58993667059E+03  0.10318117539E+03  0.22160420475E+03  0.64364262136E+03  0.80596341159E+02 0.  0.
         24    2    4    4    0    0 -0.21301926073E+03 -0.71791154701E+03  0.30973012237E+03  0.81424231672E+03  0.79269205005E+02 0.  0.
         13    1    3    3    0    0  0.66801491645E+03  0.48144251333E+03  0.22054671293E+03  0.85245039435E+03  0.00000000000E+00 0. -1.
        -13    1    3    3    0    0  0.13494101486E+03  0.13328785830E+03  0.17850685508E+02  0.19050820884E+03  0.00000000000E+00 0.  1.
          2    1    6    6  502    0 -0.22677028572E+02 -0.25662418632E+02  0.63344592535E+01  0.34827183764E+02  0.00000000000E+00 0. -1.
          1    1    5    5  503    0 -0.32054006227E+03  0.16974621999E+02  0.10542264899E+03  0.33785796459E+03  0.00000000000E+00 0. -1.
         -2    1    5    5    0  503 -0.26939660831E+03  0.86206553393E+02  0.11618155576E+03  0.30578465677E+03  0.00000000000E+00 0.  1.
         -1    1    6    6    0  502 -0.19034223216E+03 -0.69224912838E+03  0.30339566312E+03  0.77941513296E+03  0.00000000000E+00 0.  1.
<mgrwt>
<rscale>  0 0.23794393E+04</rscale>
<asrwt>0</asrwt>
<pdfrwt beam="1">  1        1 0.13316245E+00 0.23794393E+04</pdfrwt>
<pdfrwt beam="2">  1       -1 0.25158271E+00 0.23794393E+04</pdfrwt>
<totfact> 0.11876156E+00</totfact>
</mgrwt>
</event>
<event>
12    1  0.1472088E-007  0.1447310E+04  0.7818608E-02  0.8920267E-01
         -2   -1    0    0    0  501 -0.00000000000E+00  0.00000000000E+00  0.41364312100E+03  0.41364312100E+03  0.00000000000E+00 0.  1.
          2   -1    0    0  501    0  0.00000000000E+00 -0.00000000000E+00 -0.12660113120E+04  0.12660113120E+04  0.00000000000E+00 0. -1.
         23    2    1    2    0    0 -0.30757911784E+03  0.29481223782E+03 -0.34537035087E+03  0.55586726039E+03  0.90490676968E+02 0.  0.
        254    2    1    2    0    0  0.30757911784E+03 -0.29481223782E+03 -0.50699784012E+03  0.11237871726E+04  0.90792710617E+03 0.  0.
        -24    2    4    4    0    0  0.59552069395E+02 -0.83240432435E+01 -0.68880609460E+03  0.69576882910E+03  0.77618869675E+02 0.  0.
         24    2    4    4    0    0  0.24802704844E+03 -0.28648819458E+03  0.18180825448E+03  0.42801834350E+03  0.80947875691E+02 0.  0.
         13    1    3    3    0    0 -0.29467997882E+03  0.30101043623E+03 -0.33365434409E+03  0.53737211871E+03  0.00000000000E+00 0. -1.
        -13    1    3    3    0    0 -0.12899139022E+02 -0.61981984112E+01 -0.11716006781E+02  0.18495141685E+02  0.00000000000E+00 0.  1.
          4    1    6    6  502    0  0.16811693985E+03 -0.17531115204E+03  0.15604561144E+03  0.28869973735E+03  0.00000000000E+00 0. -1.
          1    1    5    5  503    0  0.68912579323E+02 -0.29549478947E+02 -0.52958332733E+03  0.53486504455E+03  0.00000000000E+00 0. -1.
         -2    1    5    5    0  503 -0.93605099281E+01  0.21225435703E+02 -0.15922276726E+03  0.16090378455E+03  0.00000000000E+00 0.  1.
         -3    1    6    6    0  502  0.79910108590E+02 -0.11117704254E+03  0.25762643044E+02  0.13931860615E+03  0.00000000000E+00 0.  1.
<mgrwt>
<rscale>  0 0.14473104E+04</rscale>
<asrwt>0</asrwt>
<pdfrwt beam="1">  1        2 0.19477097E+00 0.14473104E+04</pdfrwt>
<pdfrwt beam="2">  1       -2 0.63637404E-01 0.14473104E+04</pdfrwt>
<totfact> 0.38355837E+01</totfact>
</mgrwt>
</event>
<event>
12    1  0.1472088E-007  0.1382009E+04  0.7818608E-02  0.8966945E-01
          2   -1    0    0  501    0  0.00000000000E+00  0.00000000000E+00  0.18115087421E+04  0.18115087421E+04  0.00000000000E+00 0. -1.
         -2   -1    0    0    0  501 -0.00000000000E+00 -0.00000000000E+00 -0.26358529559E+03  0.26358529559E+03  0.00000000000E+00 0.  1.
         23    2    1    2    0    0 -0.55961938803E+02 -0.14445786653E+03  0.99850059907E+03  0.10141146951E+04  0.86170498230E+02 0.  0.
        254    2    1    2    0    0  0.55961938803E+02  0.14445786653E+03  0.54942284741E+03  0.10609793425E+04  0.89432202600E+03 0.  0.
        -24    2    4    4    0    0  0.26829384019E+03 -0.17198256909E+03  0.58480411719E+03  0.67075985555E+03  0.79770543366E+02 0.  0.
         24    2    4    4    0    0 -0.21233190138E+03  0.31644043562E+03 -0.35381269781E+02  0.39021948696E+03  0.76157915599E+02 0.  0.
         11    1    3    3    0    0 -0.46318349974E+02 -0.15416064692E+03  0.95628066739E+03  0.96973378276E+03  0.00000000000E+00 0. -1.
        -11    1    3    3    0    0 -0.96435888290E+01  0.97027803915E+01  0.42219931676E+02  0.44380912379E+02  0.00000000000E+00 0.  1.
          4    1    6    6  502    0 -0.13969433360E+03  0.14430440887E+03 -0.48162112606E+01  0.20090163054E+03  0.00000000000E+00 0. -1.
          1    1    5    5  503    0  0.13098462789E+03 -0.46248094306E+02  0.29857897121E+03  0.32931028077E+03  0.00000000000E+00 0. -1.
         -2    1    5    5    0  503  0.13730921230E+03 -0.12573447479E+03  0.28622514597E+03  0.34144957478E+03  0.00000000000E+00 0.  1.
         -3    1    6    6    0  502 -0.72637567780E+02  0.17213602675E+03 -0.30565058520E+02  0.18931785642E+03  0.00000000000E+00 0.  1.
<mgrwt>
<rscale>  0 0.13820088E+04</rscale>
<asrwt>0</asrwt>
<pdfrwt beam="1">  1        2 0.27869364E+00 0.13820088E+04</pdfrwt>
<pdfrwt beam="2">  1       -2 0.40551585E-01 0.13820088E+04</pdfrwt>
<totfact> 0.47711892E+01</totfact>
</mgrwt>
</event>
<event>
12    1  0.1472088E-007  0.2432576E+04  0.7818608E-02  0.8427407E-01
          1   -1    0    0  501    0  0.00000000000E+00  0.00000000000E+00  0.20242686549E+04  0.20242686549E+04  0.00000000000E+00 0. -1.
         -1   -1    0    0    0  501 -0.00000000000E+00 -0.00000000000E+00 -0.73081040220E+03  0.73081040220E+03  0.00000000000E+00 0.  1.
         23    2    1    2    0    0  0.32945667962E+03 -0.26796670618E+03  0.16382201884E+04  0.16948879160E+04  0.92367756905E+02 0.  0.
        254    2    1    2    0    0 -0.32945667962E+03  0.26796670618E+03 -0.34476193575E+03  0.10601911411E+04  0.90818313353E+03 0.  0.
        -24    2    4    4    0    0 -0.60798442121E+03  0.92359751959E+02 -0.36693480154E+03  0.72061950877E+03  0.80473272727E+02 0.  0.
         24    2    4    4    0    0  0.27852774160E+03  0.17560695422E+03  0.22172865789E+02  0.33957163236E+03  0.80010951233E+02 0.  0.
         11    1    3    3    0    0  0.14004113470E+03 -0.16443922153E+03  0.91455368401E+03  0.93971283801E+03  0.00000000000E+00 0. -1.
        -11    1    3    3    0    0  0.18941554491E+03 -0.10352748465E+03  0.72366650444E+03  0.75517507797E+03  0.00000000000E+00 0.  1.
          2    1    6    6  502    0  0.21316690275E+03  0.15141668999E+03  0.46855639074E+02  0.26563620489E+03  0.00000000000E+00 0. -1.
          3    1    5    5  503    0 -0.35399972476E+03  0.78368166206E+02 -0.17896506254E+03  0.40433385737E+03  0.00000000000E+00 0. -1.
         -4    1    5    5    0  503 -0.25398469645E+03  0.13991585753E+02 -0.18796973900E+03  0.31628565140E+03  0.00000000000E+00 0.  1.
         -1    1    6    6    0  502  0.65360838842E+02  0.24190264232E+02 -0.24682773284E+02  0.73935427467E+02  0.00000000000E+00 0.  1.
<mgrwt>
<rscale>  0 0.24325761E+04</rscale>
<asrwt>0</asrwt>
<pdfrwt beam="1">  1        1 0.31142595E+00 0.24325761E+04</pdfrwt>
<pdfrwt beam="2">  1       -1 0.11243237E+00 0.24325761E+04</pdfrwt>
<totfact> 0.18571644E+00</totfact>
</mgrwt>
</event>
<event>
12    1  0.1472088E-007  0.1837510E+04  0.7818608E-02  0.8686603E-01
          1   -1    0    0  501    0  0.00000000000E+00  0.00000000000E+00  0.22297565207E+04  0.22297565207E+04  0.00000000000E+00 0. -1.
         -1   -1    0    0    0  501 -0.00000000000E+00 -0.00000000000E+00 -0.37856620176E+03  0.37856620176E+03  0.00000000000E+00 0.  1.
         23    2    1    2    0    0 -0.58465870864E+03 -0.24968337059E+02  0.12226015497E+04  0.13584624376E+04  0.90644479617E+02 0.  0.
        254    2    1    2    0    0  0.58465870864E+03  0.24968337059E+02  0.62858876926E+03  0.12498602848E+04  0.90806258999E+03 0.  0.
        -24    2    4    4    0    0  0.27680656288E+03 -0.34564469929E+03  0.61407254804E+03  0.76142417883E+03  0.81176070738E+02 0.  0.
         24    2    4    4    0    0  0.30785214576E+03  0.37061303635E+03  0.14516221222E+02  0.48843610601E+03  0.78943920715E+02 0.  0.
         11    1    3    3    0    0 -0.13075573472E+02 -0.12617228792E+02  0.20906710781E+02  0.27699379771E+02  0.00000000000E+00 0.  1.
        -11    1    3    3    0    0 -0.57158313517E+03 -0.12351108267E+02  0.12016948389E+04  0.13307630579E+04  0.00000000000E+00 0. -1.
          2    1    6    6  502    0 -0.68655915279E+00  0.17525341699E+02  0.85181950232E+01  0.19497913006E+02  0.00000000000E+00 0. -1.
          1    1    5    5  503    0  0.12792058442E+02 -0.31538045234E+02  0.20172631597E+02  0.39562862913E+02  0.00000000000E+00 0. -1.
         -2    1    5    5    0  503  0.26401450444E+03 -0.31410665405E+03  0.59389991644E+03  0.72186131592E+03  0.00000000000E+00 0.  1.
         -1    1    6    6    0  502  0.30853870491E+03  0.35308769465E+03  0.59980261992E+01  0.46893819300E+03  0.00000000000E+00 0.  1.
<mgrwt>
<rscale>  0 0.18375097E+04</rscale>
<asrwt>0</asrwt>
<pdfrwt beam="1">  1        1 0.34303946E+00 0.18375097E+04</pdfrwt>
<pdfrwt beam="2">  1       -1 0.58240955E-01 0.18375097E+04</pdfrwt>
<totfact> 0.58432573E+00</totfact>
</mgrwt>
</event>
<event>
12    1  0.1472088E-007  0.1930304E+04  0.7818608E-02  0.8639918E-01
          2   -1    0    0  501    0  0.00000000000E+00  0.00000000000E+00  0.26716919728E+04  0.26716919728E+04  0.00000000000E+00 0. -1.
         -2   -1    0    0    0  501 -0.00000000000E+00 -0.00000000000E+00 -0.34866229829E+03  0.34866229829E+03  0.00000000000E+00 0.  1.
         23    2    1    2    0    0 -0.18812932060E+03 -0.67079568398E+03  0.48169916407E+03  0.85204133645E+03  0.92632950033E+02 0.  0.
        254    2    1    2    0    0  0.18812932060E+03  0.67079568398E+03  0.18413305105E+04  0.21683129347E+04  0.90869326124E+03 0.  0.
        -24    2    4    4    0    0 -0.10164235819E+03  0.41997579759E+03  0.20332405775E+03  0.48419413521E+03  0.79952789694E+02 0.  0.
         24    2    4    4    0    0  0.28977167879E+03  0.25081988639E+03  0.16380064527E+04  0.16841187995E+04  0.79452818215E+02 0.  0.
         13    1    3    3    0    0 -0.35326842221E+02 -0.11203977477E+03  0.41879726914E+02  0.12471891772E+03  0.00000000000E+00 0.  1.
        -13    1    3    3    0    0 -0.15280247838E+03 -0.55875590921E+03  0.43981943716E+03  0.72732241872E+03  0.00000000000E+00 0. -1.
          2    1    6    6  502    0  0.15231150573E+03  0.18264436727E+03  0.97355581768E+03  0.10021819644E+04  0.00000000000E+00 0. -1.
          3    1    5    5  503    0 -0.60176598449E+02  0.23255410662E+03  0.69059511634E+02  0.24994369697E+03  0.00000000000E+00 0. -1.
         -4    1    5    5    0  503 -0.41465759742E+02  0.18742169097E+03  0.13426454611E+03  0.23425043825E+03  0.00000000000E+00 0.  1.
         -1    1    6    6    0  502  0.13746017306E+03  0.68175519126E+02  0.66445063505E+03  0.68193683506E+03  0.00000000000E+00 0.  1.
<mgrwt>
<rscale>  0 0.19303039E+04</rscale>
<asrwt>0</asrwt>
<pdfrwt beam="1">  1        2 0.41102952E+00 0.19303039E+04</pdfrwt>
<pdfrwt beam="2">  1       -2 0.53640355E-01 0.19303039E+04</pdfrwt>
<totfact> 0.84573541E+00</totfact>
</mgrwt>
</event>
<event>
12    1  0.1472088E-007  0.1707078E+04  0.7818608E-02  0.8757338E-01
         -2   -1    0    0    0  501 -0.00000000000E+00  0.00000000000E+00  0.32330803337E+03  0.32330803337E+03  0.00000000000E+00 0.  1.
          2   -1    0    0  501    0  0.00000000000E+00 -0.00000000000E+00 -0.22533591133E+04  0.22533591133E+04  0.00000000000E+00 0. -1.
         23    2    1    2    0    0 -0.10690722305E+03 -0.59807245455E+03 -0.61633150196E+03  0.87033074263E+03  0.92148065765E+02 0.  0.
        254    2    1    2    0    0  0.10690722305E+03  0.59807245455E+03 -0.13137195780E+04  0.17063364041E+04  0.90366198271E+03 0.  0.
        -24    2    4    4    0    0 -0.25293102304E+03  0.51043192730E+03 -0.35620069883E+03  0.67650426465E+03  0.79146872419E+02 0.  0.
         24    2    4    4    0    0  0.35983824609E+03  0.87640527252E+02 -0.95751887918E+03  0.10298321394E+04  0.80916043239E+02 0.  0.
         11    1    3    3    0    0 -0.37845254292E+02 -0.56844778224E+02 -0.56975452485E+02  0.88937024178E+02  0.00000000000E+00 0. -1.
        -11    1    3    3    0    0 -0.69061968760E+02 -0.54122767633E+03 -0.55935604947E+03  0.78139371845E+03  0.00000000000E+00 0.  1.
          2    1    6    6  502    0  0.29544289496E+03  0.50802959376E+02 -0.82763613298E+03  0.88025508432E+03  0.00000000000E+00 0. -1.
          3    1    5    5  503    0 -0.16687442590E+03  0.33762025285E+03 -0.27851274654E+03  0.46840565661E+03  0.00000000000E+00 0. -1.
         -4    1    5    5    0  503 -0.86056597140E+02  0.17281167445E+03 -0.77687952287E+02  0.20809860804E+03  0.00000000000E+00 0.  1.
         -1    1    6    6    0  502  0.64395351131E+02  0.36837567877E+02 -0.12988274620E+03  0.14957705511E+03  0.00000000000E+00 0.  1.
<mgrwt>
<rscale>  0 0.17070783E+04</rscale>
<asrwt>0</asrwt>
<pdfrwt beam="1">  1        2 0.34667063E+00 0.17070783E+04</pdfrwt>
<pdfrwt beam="2">  1       -2 0.49739698E-01 0.17070783E+04</pdfrwt>
<totfact> 0.17536858E+01</totfact>
</mgrwt>
</event>
<event>
12    1  0.1472088E-007  0.1424607E+04  0.7818608E-02  0.8936197E-01
          1   -1    0    0  501    0  0.00000000000E+00  0.00000000000E+00  0.56180610045E+03  0.56180610045E+03  0.00000000000E+00 0. -1.
         -1   -1    0    0    0  501 -0.00000000000E+00 -0.00000000000E+00 -0.90311595358E+03  0.90311595358E+03  0.00000000000E+00 0.  1.
         23    2    1    2    0    0 -0.33701810630E+03 -0.19513612879E+03 -0.29661149261E+02  0.40188852308E+03  0.94737999104E+02 0.  0.
        254    2    1    2    0    0  0.33701810630E+03  0.19513612879E+03 -0.31164870386E+03  0.10630335309E+04  0.93875239577E+03 0.  0.
        -24    2    4    4    0    0 -0.19584580291E+03 -0.41708528007E+02  0.19158208049E+03  0.28891927944E+03  0.81703590158E+02 0.  0.
         24    2    4    4    0    0  0.53286390921E+03  0.23684465679E+03 -0.50323078435E+03  0.77411425150E+03  0.77280753577E+02 0.  0.
         13    1    3    3    0    0 -0.25004662679E+03 -0.14643170920E+03  0.20126119522E+02  0.29046621441E+03  0.00000000000E+00 0. -1.
        -13    1    3    3    0    0 -0.86971479519E+02 -0.48704419586E+02 -0.49787268784E+02  0.11142230867E+03  0.00000000000E+00 0.  1.
          2    1    6    6  502    0  0.46638105665E+03  0.20781603072E+03 -0.40343228562E+03  0.65073527774E+03  0.00000000000E+00 0. -1.
          3    1    5    5  503    0 -0.94749052414E+02 -0.22085312847E+02  0.38955180490E+02  0.10479813960E+03  0.00000000000E+00 0. -1.
         -4    1    5    5    0  503 -0.10109675049E+03 -0.19623215160E+02  0.15262690000E+03  0.18412113984E+03  0.00000000000E+00 0.  1.
         -1    1    6    6    0  502  0.66482852566E+02  0.29028626078E+02 -0.99798498733E+02  0.12337897376E+03  0.00000000000E+00 0.  1.
<mgrwt>
<rscale>  0 0.14246067E+04</rscale>
<asrwt>0</asrwt>
<pdfrwt beam="1">  1        1 0.86431709E-01 0.14246067E+04</pdfrwt>
<pdfrwt beam="2">  1       -1 0.13894091E+00 0.14246067E+04</pdfrwt>
<totfact> 0.15664523E+01</totfact>
</mgrwt>
</event>
<event>
12    1  0.1472088E-007  0.1549212E+04  0.7818608E-02  0.8852371E-01
          2   -1    0    0  501    0  0.00000000000E+00  0.00000000000E+00  0.76330340535E+03  0.76330340535E+03  0.00000000000E+00 0. -1.
         -2   -1    0    0    0  501 -0.00000000000E+00 -0.00000000000E+00 -0.78607611912E+03  0.78607611912E+03  0.00000000000E+00 0.  1.
         23    2    1    2    0    0  0.36319072798E+03 -0.13039117834E+02 -0.38498712237E+03  0.53728713352E+03  0.91568859186E+02 0.  0.
        254    2    1    2    0    0 -0.36319072798E+03  0.13039117834E+02  0.36221440859E+03  0.10120923909E+04  0.87238420809E+03 0.  0.
        -24    2    4    4    0    0 -0.49337985509E+03 -0.28555498525E+03  0.35536732589E+03  0.67642466976E+03  0.79366658863E+02 0.  0.
         24    2    4    4    0    0  0.13018912711E+03  0.29859410308E+03  0.68470827033E+01  0.33566772119E+03  0.80735923194E+02 0.  0.
         13    1    3    3    0    0  0.38302994464E+02 -0.30619861859E+02 -0.42518106326E+02  0.64903656990E+02  0.00000000000E+00 0. -1.
        -13    1    3    3    0    0  0.32488773352E+03  0.17580744025E+02 -0.34246901604E+03  0.47238347653E+03  0.00000000000E+00 0.  1.
          4    1    6    6  502    0  0.14387001989E+02  0.51648350367E+02  0.30862323872E+02  0.61862920693E+02  0.00000000000E+00 0. -1.
          3    1    5    5  503    0 -0.34295088850E+03 -0.23342086864E+03  0.23454616696E+03  0.47656323639E+03  0.00000000000E+00 0. -1.
         -4    1    5    5    0  503 -0.15042896659E+03 -0.52134116602E+02  0.12082115893E+03  0.19986143337E+03  0.00000000000E+00 0.  1.
         -3    1    6    6    0  502  0.11580212512E+03  0.24694575271E+03 -0.24015241169E+02  0.27380480049E+03  0.00000000000E+00 0.  1.
<mgrwt>
<rscale>  0 0.15492122E+04</rscale>
<asrwt>0</asrwt>
<pdfrwt beam="1">  1        2 0.11743129E+00 0.15492122E+04</pdfrwt>
<pdfrwt beam="2">  1       -2 0.12093479E+00 0.15492122E+04</pdfrwt>
<totfact> 0.18373674E+01</totfact>
</mgrwt>
</event>
<event>
12    1  0.1472088E-007  0.1261274E+04  0.7818608E-02  0.9060852E-01
          1   -1    0    0  501    0  0.00000000000E+00  0.00000000000E+00  0.33814934663E+04  0.33814934663E+04  0.00000000000E+00 0. -1.
         -1   -1    0    0    0  501 -0.00000000000E+00 -0.00000000000E+00 -0.11761169203E+03  0.11761169203E+03  0.00000000000E+00 0.  1.
         23    2    1    2    0    0 -0.29774617906E+02  0.12296872138E+03  0.15654429728E+04  0.15731126537E+04  0.89799141023E+02 0.  0.
        254    2    1    2    0    0  0.29774617906E+02 -0.12296872138E+03  0.16984388015E+04  0.19259925047E+04  0.89930246934E+03 0.  0.
        -24    2    4    4    0    0 -0.21073031597E+03 -0.32290856890E+03  0.14914687397E+04  0.15425962213E+04  0.80292532008E+02 0.  0.
         24    2    4    4    0    0  0.24050493388E+03  0.19993984752E+03  0.20697006180E+03  0.38339628334E+03  0.79608653738E+02 0.  0.
         13    1    3    3    0    0  0.96334162031E+01  0.17307569774E+02  0.70905793064E+03  0.70933454990E+03  0.00000000000E+00 0. -1.
        -13    1    3    3    0    0 -0.39408034109E+02  0.10566115160E+03  0.85638504219E+03  0.86377810379E+03  0.00000000000E+00 0.  1.
          2    1    6    6  502    0  0.67323861968E+02  0.47096388791E+02  0.98337413659E+02  0.12814374410E+03  0.00000000000E+00 0. -1.
          1    1    5    5  503    0 -0.79841797164E+02 -0.13946834764E+03  0.47505540882E+03  0.50150151946E+03  0.00000000000E+00 0. -1.
         -2    1    5    5    0  503 -0.13088851881E+03 -0.18344022126E+03  0.10164133308E+04  0.10410947019E+04  0.00000000000E+00 0.  1.
         -1    1    6    6    0  502  0.17318107191E+03  0.15284345873E+03  0.10863264814E+03  0.25525253924E+03  0.00000000000E+00 0.  1.
<mgrwt>
<rscale>  0 0.12612742E+04</rscale>
<asrwt>0</asrwt>
<pdfrwt beam="1">  1        1 0.52022969E+00 0.12612742E+04</pdfrwt>
<pdfrwt beam="2">  1       -1 0.18094109E-01 0.12612742E+04</pdfrwt>
<totfact> 0.74935708E+00</totfact>
</mgrwt>
</event>
<event>
12    1  0.1472088E-007  0.1428116E+04  0.7818608E-02  0.8933714E-01
         -2   -1    0    0    0  501 -0.00000000000E+00  0.00000000000E+00  0.20581020154E+03  0.20581020154E+03  0.00000000000E+00 0.  1.
          2   -1    0    0  501    0  0.00000000000E+00 -0.00000000000E+00 -0.24774231006E+04  0.24774231006E+04  0.00000000000E+00 0. -1.
         23    2    1    2    0    0 -0.24223203993E+03 -0.15058704630E+03 -0.12638341344E+04  0.12987066609E+04  0.89495542487E+02 0.  0.
        254    2    1    2    0    0  0.24223203993E+03  0.15058704630E+03 -0.10077787646E+04  0.13845266412E+04  0.90550712977E+03 0.  0.
        -24    2    4    4    0    0  0.38513040278E+03 -0.62304749286E+02 -0.66629449157E+02  0.40581317098E+03  0.89652313543E+02 0.  0.
         24    2    4    4    0    0 -0.14289836284E+03  0.21289179559E+03 -0.94114931546E+03  0.97871347021E+03  0.79844624341E+02 0.  0.
         11    1    3    3    0    0 -0.22960275946E+03 -0.13995616327E+03 -0.10377811224E+04  0.10720516838E+04  0.00000000000E+00 0. -1.
        -11    1    3    3    0    0 -0.12629280471E+02 -0.10630883038E+02 -0.22605301208E+03  0.22665497716E+03  0.00000000000E+00 0.  1.
          4    1    6    6  502    0  0.38326921334E+01 -0.10404443247E+01 -0.61016555114E+02  0.61145662572E+02  0.00000000000E+00 0. -1.
          1    1    5    5  503    0  0.11561148851E+03 -0.49365563352E+02  0.76627223039E+01  0.12594321114E+03  0.00000000000E+00 0. -1.
         -2    1    5    5    0  503  0.26951891427E+03 -0.12939185934E+02 -0.74292171461E+02  0.27986995984E+03  0.00000000000E+00 0.  1.
         -1    1    6    6    0  502 -0.14673105498E+03  0.21393223991E+03 -0.88013276035E+03  0.91756780764E+03  0.00000000000E+00 0.  1.
<mgrwt>
<rscale>  0 0.14281162E+04</rscale>
<asrwt>0</asrwt>
<pdfrwt beam="1">  1        2 0.38114202E+00 0.14281162E+04</pdfrwt>
<pdfrwt beam="2">  1       -2 0.31663108E-01 0.14281162E+04</pdfrwt>
<totfact> 0.32397829E+01</totfact>
</mgrwt>
</event>
<event>
12    1  0.1472088E-007  0.1970775E+04  0.7818608E-02  0.8620408E-01
         -2   -1    0    0    0  501 -0.00000000000E+00  0.00000000000E+00  0.93971876871E+03  0.93971876871E+03  0.00000000000E+00 0.  1.
          2   -1    0    0  501    0  0.00000000000E+00 -0.00000000000E+00 -0.10332754760E+04  0.10332754760E+04  0.00000000000E+00 0. -1.
         23    2    1    2    0    0 -0.25490680429E+03 -0.83608525072E+02 -0.71376722360E+03  0.76792677627E+03  0.90994614580E+02 0.  0.
        254    2    1    2    0    0  0.25490680429E+03  0.83608525072E+02  0.62021051635E+03  0.12050674684E+04  0.99777685605E+03 0.  0.
        -24    2    4    4    0    0  0.53746071912E+03  0.31663428183E+03  0.24634048643E+03  0.67559625312E+03  0.81396369397E+02 0.  0.
         24    2    4    4    0    0 -0.28255391483E+03 -0.23302575676E+03  0.37387002992E+03  0.52947121528E+03  0.80145183512E+02 0.  0.
         13    1    3    3    0    0 -0.22367686012E+03 -0.60730536329E+02 -0.50563840526E+03  0.55622813006E+03  0.00000000000E+00 0. -1.
        -13    1    3    3    0    0 -0.31229944168E+02 -0.22877988742E+02 -0.20812881834E+03  0.21169864621E+03  0.00000000000E+00 0.  1.
          4    1    6    6  502    0 -0.87494704620E+02 -0.63983259863E+02  0.62850053593E+02  0.12529688789E+03  0.00000000000E+00 0. -1.
          3    1    5    5  503    0  0.25709201291E+03  0.13719722725E+03  0.15668110333E+03  0.33086001633E+03  0.00000000000E+00 0. -1.
         -4    1    5    5    0  503  0.28036870621E+03  0.17943705458E+03  0.89659383102E+02  0.34473623679E+03  0.00000000000E+00 0.  1.
         -3    1    6    6    0  502 -0.19505921021E+03 -0.16904249690E+03  0.31101997633E+03  0.40417432739E+03  0.00000000000E+00 0.  1.
<mgrwt>
<rscale>  0 0.19707748E+04</rscale>
<asrwt>0</asrwt>
<pdfrwt beam="1">  1        2 0.15896546E+00 0.19707748E+04</pdfrwt>
<pdfrwt beam="2">  1       -2 0.14457212E+00 0.19707748E+04</pdfrwt>
<totfact> 0.73758080E+00</totfact>
</mgrwt>
</event>
<event>
12    1  0.1472088E-007  0.1057119E+04  0.7818608E-02  0.9248025E-01
         -2   -1    0    0    0  501 -0.00000000000E+00  0.00000000000E+00  0.91250060150E+03  0.91250060150E+03  0.00000000000E+00 0.  1.
          2   -1    0    0  501    0  0.00000000000E+00 -0.00000000000E+00 -0.30616413642E+03  0.30616413642E+03  0.00000000000E+00 0. -1.
         23    2    1    2    0    0  0.10402303765E+03  0.29726364115E+02  0.19152232957E+03  0.23099267989E+03  0.70515007980E+02 0.  0.
        254    2    1    2    0    0 -0.10402303765E+03 -0.29726364115E+02  0.41481413551E+03  0.98767205804E+03  0.88978698469E+03 0.  0.
        -24    2    4    4    0    0  0.32337254136E+03 -0.23252306640E+03  0.26482293502E+03  0.48490151654E+03  0.79759118096E+02 0.  0.
         24    2    4    4    0    0 -0.42739557901E+03  0.20279670228E+03  0.14999120048E+03  0.50277054150E+03  0.80544234804E+02 0.  0.
         13    1    3    3    0    0  0.11093830365E+02  0.13218908959E+02 -0.24255860623E+00  0.17258953065E+02  0.00000000000E+00 0. -1.
        -13    1    3    3    0    0  0.92929207286E+02  0.16507455156E+02  0.19176488818E+03  0.21373372682E+03  0.00000000000E+00 0.  1.
          4    1    6    6  502    0 -0.37192716338E+03  0.19084728991E+03  0.10679974954E+03  0.43146110998E+03  0.00000000000E+00 0. -1.
          3    1    5    5  503    0  0.30894817324E+03 -0.20181285987E+03  0.22347394020E+03  0.43141396141E+03  0.00000000000E+00 0. -1.
         -4    1    5    5    0  503  0.14424368124E+02 -0.30710206525E+02  0.41348994827E+02  0.53487555131E+02  0.00000000000E+00 0.  1.
         -3    1    6    6    0  502 -0.55468415630E+02  0.11949412374E+02  0.43191450937E+02  0.71309431513E+02  0.00000000000E+00 0.  1.
<mgrwt>
<rscale>  0 0.10571186E+04</rscale>
<asrwt>0</asrwt>
<pdfrwt beam="1">  1        2 0.47102175E-01 0.10571186E+04</pdfrwt>
<pdfrwt beam="2">  1       -2 0.14038471E+00 0.10571186E+04</pdfrwt>
<totfact> 0.38058554E+01</totfact>
</mgrwt>
</event>
<event>
12    1  0.1472088E-007  0.1796562E+04  0.7818608E-02  0.8708130E-01
         -1   -1    0    0    0  501 -0.00000000000E+00  0.00000000000E+00  0.46394876403E+03  0.46394876403E+03  0.00000000000E+00 0.  1.
          1   -1    0    0  501    0  0.00000000000E+00 -0.00000000000E+00 -0.17392190871E+04  0.17392190871E+04  0.00000000000E+00 0. -1.
         23    2    1    2    0    0 -0.39568655535E+03 -0.31013470472E+02 -0.11361430933E+04  0.12070708924E+04  0.93109212568E+02 0.  0.
        254    2    1    2    0    0  0.39568655535E+03  0.31013470472E+02 -0.13912722976E+03  0.99609695868E+03  0.90295242377E+03 0.  0.
        -24    2    4    4    0    0  0.56575498635E+03 -0.20440395214E+01 -0.38017092523E+03  0.68738547131E+03  0.88802990352E+02 0.  0.
         24    2    4    4    0    0 -0.17006843100E+03  0.33057509993E+02  0.24104369547E+03  0.30871148737E+03  0.84762309526E+02 0.  0.
         13    1    3    3    0    0 -0.25372038327E+02 -0.52236315886E+01 -0.17191433252E+03  0.17385500966E+03  0.00000000000E+00 0.  1.
        -13    1    3    3    0    0 -0.37031451702E+03 -0.25789838883E+02 -0.96422876079E+03  0.10332158828E+04  0.00000000000E+00 0. -1.
          2    1    6    6  502    0 -0.14280860780E+03  0.92520877145E+01  0.13528299805E+03  0.19692990924E+03  0.00000000000E+00 0. -1.
          1    1    5    5  503    0  0.53794683843E+03  0.44075143226E+01 -0.38034401798E+03  0.65883821927E+03  0.00000000000E+00 0. -1.
         -2    1    5    5    0  503  0.27808147921E+02 -0.64515538439E+01  0.17309274736E+00  0.28547252037E+02  0.00000000000E+00 0.  1.
         -1    1    6    6    0  502 -0.27259823197E+02  0.23805422279E+02  0.10576069742E+03  0.11178157813E+03  0.00000000000E+00 0.  1.
<mgrwt>
<rscale>  0 0.17965618E+04</rscale>
<asrwt>0</asrwt>
<pdfrwt beam="1">  1        1 0.26757217E+00 0.17965618E+04</pdfrwt>
<pdfrwt beam="2">  1       -1 0.71376733E-01 0.17965618E+04</pdfrwt>
<totfact> 0.83829272E+00</totfact>
</mgrwt>
</event>
<event>
12    1  0.1472088E-007  0.1322384E+04  0.7818608E-02  0.9012001E-01
         -2   -1    0    0    0  501 -0.00000000000E+00  0.00000000000E+00  0.13762476914E+04  0.13762476914E+04  0.00000000000E+00 0.  1.
          2   -1    0    0  501    0  0.00000000000E+00 -0.00000000000E+00 -0.31765687779E+03  0.31765687779E+03  0.00000000000E+00 0. -1.
         23    2    1    2    0    0  0.20067274215E+02  0.27996828876E+03  0.54570009032E+03  0.62107312044E+03  0.95698976733E+02 0.  0.
        254    2    1    2    0    0 -0.20067274215E+02 -0.27996828876E+03  0.51289072325E+03  0.10728314487E+04  0.89951402720E+03 0.  0.
        -24    2    4    4    0    0  0.20643362882E+03  0.22690165787E+03  0.61183754700E+01  0.31690957598E+03  0.79341284215E+02 0.  0.
         24    2    4    4    0    0 -0.22650090303E+03 -0.50686994663E+03  0.50677234778E+03  0.75592187273E+03  0.79874046593E+02 0.  0.
         13    1    3    3    0    0  0.30926941565E+02  0.13417816625E+03  0.35510062347E+03  0.38086311032E+03  0.00000000000E+00 0.  1.
        -13    1    3    3    0    0 -0.10859667350E+02  0.14579012252E+03  0.19059946685E+03  0.24021001012E+03  0.00000000000E+00 0. -1.
          4    1    6    6  502    0 -0.16858347363E+03 -0.31028427006E+03  0.28343380803E+03  0.45280397454E+03  0.00000000000E+00 0. -1.
          3    1    5    5  503    0  0.10846053674E+03  0.12726298935E+03  0.42471588838E+02  0.17252070121E+03  0.00000000000E+00 0. -1.
         -4    1    5    5    0  503  0.97973092077E+02  0.99638668515E+02 -0.36353213368E+02  0.14438887477E+03  0.00000000000E+00 0.  1.
         -3    1    6    6    0  502 -0.57917429408E+02 -0.19658567657E+03  0.22333853976E+03  0.30311789819E+03  0.00000000000E+00 0.  1.
<mgrwt>
<rscale>  0 0.13223835E+04</rscale>
<asrwt>0</asrwt>
<pdfrwt beam="1">  1        2 0.48870290E-01 0.13223835E+04</pdfrwt>
<pdfrwt beam="2">  1       -2 0.21173041E+00 0.13223835E+04</pdfrwt>
<totfact> 0.11244745E+01</totfact>
</mgrwt>
</event>
<event>
12    1  0.1472088E-007  0.1084423E+04  0.7818608E-02  0.9220508E-01
         -2   -1    0    0    0  501 -0.00000000000E+00  0.00000000000E+00  0.46120053386E+03  0.46120053386E+03  0.00000000000E+00 0. -1.
          2   -1    0    0  501    0  0.00000000000E+00 -0.00000000000E+00 -0.63745242316E+03  0.63745242316E+03  0.00000000000E+00 0.  1.
         23    2    1    2    0    0  0.80667202056E+02 -0.11074764795E+03 -0.85559134374E+02  0.18650586813E+03  0.93230007810E+02 0.  0.
        254    2    1    2    0    0 -0.80667202056E+02  0.11074764795E+03 -0.90692754924E+02  0.91214708889E+03  0.89722622396E+03 0.  0.
        -24    2    4    4    0    0  0.22183473059E+02  0.19638374712E+03  0.36955706620E+03  0.42654072836E+03  0.79409603684E+02 0.  0.
         24    2    4    4    0    0 -0.10285067512E+03 -0.85636099170E+02 -0.46024982112E+03  0.48560636054E+03  0.77921991094E+02 0.  0.
         13    1    3    3    0    0  0.93038392900E+02 -0.98853350266E+02 -0.45912297625E+02  0.14330410491E+03  0.00000000000E+00 0.  1.
        -13    1    3    3    0    0 -0.12371190844E+02 -0.11894297684E+02 -0.39646836749E+02  0.43201763210E+02  0.00000000000E+00 0. -1.
          2    1    6    6  502    0 -0.26708785201E+02 -0.38330463784E+02 -0.28456130395E+03  0.28837080186E+03  0.00000000000E+00 0. -1.
          3    1    5    5  503    0 -0.69404776208E+01  0.17845308997E+03  0.30312132047E+03  0.35181843396E+03  0.00000000000E+00 0. -1.
         -4    1    5    5    0  503  0.29123950680E+02  0.17930657146E+02  0.66435745728E+02  0.74722294393E+02  0.00000000000E+00 0.  1.
         -1    1    6    6    0  502 -0.76141889914E+02 -0.47305635386E+02 -0.17568851718E+03  0.19723555868E+03  0.00000000000E+00 0.  1.
<mgrwt>
<rscale>  0 0.10844232E+04</rscale>
<asrwt>0</asrwt>
<pdfrwt beam="1">  1        2 0.98069603E-01 0.10844232E+04</pdfrwt>
<pdfrwt beam="2">  1       -2 0.70953929E-01 0.10844232E+04</pdfrwt>
<totfact> 0.82655094E+01</totfact>
</mgrwt>
</event>
<event>
12    1  0.1472088E-007  0.1559743E+04  0.7818608E-02  0.8845668E-01
         -2   -1    0    0    0  501 -0.00000000000E+00  0.00000000000E+00  0.16921782401E+04  0.16921782401E+04  0.00000000000E+00 0.  1.
          2   -1    0    0  501    0  0.00000000000E+00 -0.00000000000E+00 -0.35941807363E+03  0.35941807363E+03  0.00000000000E+00 0. -1.
         23    2    1    2    0    0 -0.16370755227E+02  0.22748300071E+03  0.10488984470E+04  0.10770042328E+04  0.87941163118E+02 0.  0.
        254    2    1    2    0    0  0.16370755227E+02 -0.22748300071E+03  0.28386171954E+03  0.97459208097E+03  0.90401091322E+03 0.  0.
        -24    2    4    4    0    0  0.53055943237E+02 -0.12734790268E+03 -0.31934468352E+03  0.35698789254E+03  0.80167993001E+02 0.  0.
         24    2    4    4    0    0 -0.36685188010E+02 -0.10013509803E+03  0.60320640306E+03  0.61760418843E+03  0.78766287132E+02 0.  0.
         13    1    3    3    0    0  0.33224058049E+02  0.13891832000E+03  0.59813867073E+03  0.61495691483E+03  0.00000000000E+00 0. -1.
        -13    1    3    3    0    0 -0.49594813275E+02  0.88564680712E+02  0.45075977624E+03  0.46204731798E+03  0.00000000000E+00 0.  1.
          4    1    6    6  502    0 -0.25681505780E+02 -0.55089477223E+02  0.50887240384E+03  0.51248952538E+03  0.00000000000E+00 0. -1.
          1    1    5    5  503    0 -0.56005007645E+01 -0.88195705396E+02 -0.19362115887E+03  0.21283562019E+03  0.00000000000E+00 0. -1.
         -2    1    5    5    0  503  0.58656444001E+02 -0.39152197280E+02 -0.12572352465E+03  0.14415227236E+03  0.00000000000E+00 0.  1.
         -3    1    6    6    0  502 -0.11003682230E+02 -0.45045620812E+02  0.94333999224E+02  0.10511466304E+03  0.00000000000E+00 0.  1.
<mgrwt>
<rscale>  0 0.15597429E+04</rscale>
<asrwt>0</asrwt>
<pdfrwt beam="1">  1        2 0.55295089E-01 0.15597429E+04</pdfrwt>
<pdfrwt beam="2">  1       -2 0.26033511E+00 0.15597429E+04</pdfrwt>
<totfact> 0.47952620E+00</totfact>
</mgrwt>
</event>
<event>
12    1  0.1472088E-007  0.2178832E+04  0.7818608E-02  0.8527291E-01
          1   -1    0    0  501    0  0.00000000000E+00  0.00000000000E+00  0.14901941851E+04  0.14901941851E+04  0.00000000000E+00 0. -1.
         -1   -1    0    0    0  501 -0.00000000000E+00 -0.00000000000E+00 -0.79642439844E+03  0.79642439844E+03  0.00000000000E+00 0.  1.
         23    2    1    2    0    0 -0.28532121572E+03  0.20187349277E+03  0.11620148802E+04  0.12168208247E+04  0.90626896854E+02 0.  0.
        254    2    1    2    0    0  0.28532121572E+03 -0.20187349277E+03 -0.46824509350E+03  0.10697977589E+04  0.89613206285E+03 0.  0.
        -24    2    4    4    0    0  0.41910901301E+03 -0.29547970759E+03  0.48957936403E+02  0.52120813985E+03  0.79375204701E+02 0.  0.
         24    2    4    4    0    0 -0.13378779729E+03  0.93606214823E+02 -0.51720302990E+03  0.54858961902E+03  0.82403263308E+02 0.  0.
         11    1    3    3    0    0 -0.13284271847E+02 -0.86032045517E+01  0.76371933630E+02  0.77994610413E+02  0.00000000000E+00 0.  1.
        -11    1    3    3    0    0 -0.27203694387E+03  0.21047669732E+03  0.10856429466E+04  0.11388262143E+04  0.00000000000E+00 0. -1.
          4    1    6    6  502    0 -0.10137219076E+03  0.36954178792E+02 -0.40150747890E+03  0.41575255621E+03  0.00000000000E+00 0. -1.
          1    1    5    5  503    0  0.26076242137E+03 -0.22439823865E+03  0.15007573432E+02  0.34434987610E+03  0.00000000000E+00 0. -1.
         -2    1    5    5    0  503  0.15834659164E+03 -0.71081468942E+02  0.33950362971E+02  0.17685826375E+03  0.00000000000E+00 0.  1.
         -1    1    6    6    0  502 -0.32415606530E+02  0.56652036031E+02 -0.11569555101E+03  0.13283706281E+03  0.00000000000E+00 0.  1.
<mgrwt>
<rscale>  0 0.21788318E+04</rscale>
<asrwt>0</asrwt>
<pdfrwt beam="1">  1        1 0.22926064E+00 0.21788318E+04</pdfrwt>
<pdfrwt beam="2">  1       -1 0.12252683E+00 0.21788318E+04</pdfrwt>
<totfact> 0.35695309E+00</totfact>
</mgrwt>
</event>
<event>
12    1  0.1472088E-007  0.1732550E+04  0.7818608E-02  0.8743014E-01
          2   -1    0    0  501    0  0.00000000000E+00  0.00000000000E+00  0.20584291103E+04  0.20584291103E+04  0.00000000000E+00 0. -1.
         -2   -1    0    0    0  501 -0.00000000000E+00 -0.00000000000E+00 -0.36456575113E+03  0.36456575113E+03  0.00000000000E+00 0.  1.
         23    2    1    2    0    0  0.20349643995E+03  0.21167355480E+03  0.14002838989E+04  0.14336099762E+04  0.90697693475E+02 0.  0.
        254    2    1    2    0    0 -0.20349643995E+03 -0.21167355480E+03  0.29357946025E+03  0.98938488517E+03  0.89804067650E+03 0.  0.
        -24    2    4    4    0    0  0.38751510789E+02  0.16568566725E+03  0.46598136818E+03  0.50232494731E+03  0.78982892376E+02 0.  0.
         24    2    4    4    0    0 -0.24224795074E+03 -0.37735922205E+03 -0.17240190792E+03  0.48705993786E+03  0.80130600332E+02 0.  0.
         13    1    3    3    0    0  0.12597687383E+03  0.11343876878E+03  0.99853667786E+03  0.10128247746E+04  0.00000000000E+00 0. -1.
        -13    1    3    3    0    0  0.77519566120E+02  0.98234786016E+02  0.40174722103E+03  0.42078520164E+03  0.00000000000E+00 0.  1.
          2    1    6    6  502    0 -0.59323500466E+00  0.36024511019E+01 -0.42425146917E+01  0.55971879209E+01  0.00000000000E+00 0. -1.
          3    1    5    5  503    0  0.41668013575E+02  0.44397838746E+02  0.10353288563E+03  0.12011015714E+03  0.00000000000E+00 0. -1.
         -4    1    5    5    0  503 -0.29165027858E+01  0.12128782850E+03  0.36244848254E+03  0.38221479018E+03  0.00000000000E+00 0.  1.
         -1    1    6    6    0  502 -0.24165471574E+03 -0.38096167315E+03 -0.16815939323E+03  0.48146274994E+03  0.00000000000E+00 0.  1.
<mgrwt>
<rscale>  0 0.17325504E+04</rscale>
<asrwt>0</asrwt>
<pdfrwt beam="1">  1        2 0.31668139E+00 0.17325504E+04</pdfrwt>
<pdfrwt beam="2">  1       -2 0.56087040E-01 0.17325504E+04</pdfrwt>
<totfact> 0.17561929E+01</totfact>
</mgrwt>
</event>
<event>
12    1  0.1472088E-007  0.2526479E+04  0.7818608E-02  0.8393613E-01
         -1   -1    0    0    0  501 -0.00000000000E+00  0.00000000000E+00  0.11865816997E+04  0.11865816997E+04  0.00000000000E+00 0.  1.
          1   -1    0    0  501    0  0.00000000000E+00 -0.00000000000E+00 -0.13448493723E+04  0.13448493723E+04  0.00000000000E+00 0. -1.
         23    2    1    2    0    0  0.30665945882E+03  0.75422416201E+03  0.67304777160E+03  0.10602944556E+04  0.91306732638E+02 0.  0.
        254    2    1    2    0    0 -0.30665945882E+03 -0.75422416201E+03 -0.83131544420E+03  0.14711366164E+04  0.90014635816E+03 0.  0.
        -24    2    4    4    0    0 -0.49175143738E+03 -0.50130126479E+03 -0.15791851772E+03  0.72422138839E+03  0.80224228991E+02 0.  0.
         24    2    4    4    0    0  0.18509197856E+03 -0.25292289722E+03 -0.67339692648E+03  0.74691522801E+03  0.78675947891E+02 0.  0.
         13    1    3    3    0    0  0.18737123482E+03  0.40257846115E+03  0.41779486674E+03  0.60969660299E+03  0.00000000000E+00 0. -1.
        -13    1    3    3    0    0  0.11928822400E+03  0.35164570085E+03  0.25525290486E+03  0.45059785258E+03  0.00000000000E+00 0.  1.
          2    1    6    6  502    0  0.51492447892E+02 -0.23538754875E+02 -0.96672116456E+02  0.11203143876E+03  0.00000000000E+00 0. -1.
          3    1    5    5  503    0 -0.83714775650E+02 -0.11457797255E+03 -0.67181035988E+01  0.14206128386E+03  0.00000000000E+00 0. -1.
         -4    1    5    5    0  503 -0.40803666173E+03 -0.38672329224E+03 -0.15120041412E+03  0.58216010453E+03  0.00000000000E+00 0.  1.
         -1    1    6    6    0  502  0.13359953067E+03 -0.22938414234E+03 -0.57672481003E+03  0.63488378925E+03  0.00000000000E+00 0.  1.
<mgrwt>
<rscale>  0 0.25264787E+04</rscale>
<asrwt>0</asrwt>
<pdfrwt beam="1">  1        1 0.20689990E+00 0.25264787E+04</pdfrwt>
<pdfrwt beam="2">  1       -1 0.18255103E+00 0.25264787E+04</pdfrwt>
<totfact> 0.14863669E+00</totfact>
</mgrwt>
</event>
<event>
12    1  0.1472088E-007  0.3082130E+04  0.7818608E-02  0.8220659E-01
         -1   -1    0    0    0  501 -0.00000000000E+00  0.00000000000E+00  0.13034463769E+04  0.13034463769E+04  0.00000000000E+00 0.  1.
          1   -1    0    0  501    0  0.00000000000E+00 -0.00000000000E+00 -0.18220010510E+04  0.18220010510E+04  0.00000000000E+00 0. -1.
         23    2    1    2    0    0  0.77425395714E+03  0.18468006347E+03 -0.14173038589E+04  0.16281015776E+04  0.91589314294E+02 0.  0.
        254    2    1    2    0    0 -0.77425395714E+03 -0.18468006347E+03  0.89874918484E+03  0.14973458503E+04  0.89482880046E+03 0.  0.
        -24    2    4    4    0    0  0.18527678254E+03 -0.88638052986E+02  0.24732083461E+03  0.33091801272E+03  0.78453459606E+02 0.  0.
         24    2    4    4    0    0 -0.95953073968E+03 -0.96042010481E+02  0.65142835023E+03  0.11664278376E+04  0.79194043899E+02 0.  0.
         13    1    3    3    0    0  0.55437796513E+03  0.12805787040E+03 -0.92535928610E+03  0.10862888910E+04  0.00000000000E+00 0. -1.
        -13    1    3    3    0    0  0.21987599201E+03  0.56622193065E+02 -0.49194457279E+03  0.54181268655E+03  0.00000000000E+00 0.  1.
          4    1    6    6  502    0 -0.47833318400E+03 -0.47505584351E+02  0.27699078291E+03  0.55478221788E+03  0.00000000000E+00 0. -1.
          3    1    5    5  503    0  0.24510137187E+00 -0.20892958192E+02  0.12383237231E+02  0.24288275793E+02  0.00000000000E+00 0. -1.
         -4    1    5    5    0  503  0.18503168117E+03 -0.67745094793E+02  0.23493759738E+03  0.30662973693E+03  0.00000000000E+00 0.  1.
         -3    1    6    6    0  502 -0.48119755568E+03 -0.48536426130E+02  0.37443756733E+03  0.61164561968E+03  0.00000000000E+00 0.  1.
<mgrwt>
<rscale>  0 0.30821296E+04</rscale>
<asrwt>0</asrwt>
<pdfrwt beam="1">  1        1 0.28030786E+00 0.30821296E+04</pdfrwt>
<pdfrwt beam="2">  1       -1 0.20053021E+00 0.30821296E+04</pdfrwt>
<totfact> 0.49647026E-01</totfact>
</mgrwt>
</event>
<event>
12    1  0.1472088E-007  0.1528291E+04  0.7818608E-02  0.8865855E-01
          2   -1    0    0  501    0  0.00000000000E+00  0.00000000000E+00  0.13341612635E+04  0.13341612635E+04  0.00000000000E+00 0. -1.
         -2   -1    0    0    0  501 -0.00000000000E+00 -0.00000000000E+00 -0.43766691973E+03  0.43766691973E+03  0.00000000000E+00 0.  1.
         23    2    1    2    0    0 -0.47681174948E+03  0.93831658432E+02  0.42110588167E+03  0.64940749383E+03  0.90808066258E+02 0.  0.
        254    2    1    2    0    0  0.47681174948E+03 -0.93831658432E+02  0.47538846209E+03  0.11224206894E+04  0.89312943603E+03 0.  0.
        -24    2    4    4    0    0 -0.24239507476E+03 -0.13772580068E+03  0.16605608310E+03  0.33416101917E+03  0.79782175668E+02 0.  0.
         24    2    4    4    0    0  0.71920682424E+03  0.43894142253E+02  0.30933237899E+03  0.78825967022E+03  0.80508603553E+02 0.  0.
         11    1    3    3    0    0 -0.15244371560E+02 -0.12840540189E+02  0.10684602537E+02  0.22614841763E+02  0.00000000000E+00 0.  1.
        -11    1    3    3    0    0 -0.46156737792E+03  0.10667219862E+03  0.41042127913E+03  0.62679265206E+03  0.00000000000E+00 0. -1.
          4    1    6    6  502    0  0.18083629968E+03 -0.98143387920E+01  0.10867043809E+03  0.21120452798E+03  0.00000000000E+00 0. -1.
          1    1    5    5  503    0 -0.10943797528E+03 -0.79395502182E+02  0.37682949061E+02  0.14035783145E+03  0.00000000000E+00 0. -1.
         -2    1    5    5    0  503 -0.13295709948E+03 -0.58330298502E+02  0.12837313404E+03  0.19380318772E+03  0.00000000000E+00 0.  1.
         -3    1    6    6    0  502  0.53837052456E+03  0.53708481045E+02  0.20066194091E+03  0.57705514224E+03  0.00000000000E+00 0.  1.
<mgrwt>
<rscale>  0 0.15282909E+04</rscale>
<asrwt>0</asrwt>
<pdfrwt beam="1">  1        2 0.20525558E+00 0.15282909E+04</pdfrwt>
<pdfrwt beam="2">  1       -2 0.67333373E-01 0.15282909E+04</pdfrwt>
<totfact> 0.30800602E+01</totfact>
</mgrwt>
</event>
<event>
12    1  0.1472088E-007  0.2880858E+04  0.7818608E-02  0.8278596E-01
          2   -1    0    0  501    0  0.00000000000E+00  0.00000000000E+00  0.15176061960E+04  0.15176061960E+04  0.00000000000E+00 0. -1.
         -2   -1    0    0    0  501 -0.00000000000E+00 -0.00000000000E+00 -0.13671769090E+04  0.13671769090E+04  0.00000000000E+00 0.  1.
         23    2    1    2    0    0  0.10800610035E+04 -0.37696931376E+03  0.68097349638E+03  0.13361135483E+04  0.11329993994E+03 0.  0.
        254    2    1    2    0    0 -0.10800610035E+04  0.37696931376E+03 -0.53054420934E+03  0.15486695566E+04  0.89903426119E+03 0.  0.
        -24    2    4    4    0    0 -0.11317816452E+04  0.16601189819E+03 -0.61726121621E+03  0.13022332028E+04  0.79437162231E+02 0.  0.
         24    2    4    4    0    0  0.51720641657E+02  0.21095741557E+03  0.86717006873E+02  0.24643635385E+03  0.77672268290E+02 0.  0.
         13    1    3    3    0    0  0.10722501156E+04 -0.37760689383E+03  0.66180775246E+03  0.13154074570E+04  0.00000000000E+00 0. -1.
        -13    1    3    3    0    0  0.78108879166E+01  0.63758006334E+00  0.19165743919E+02  0.20706091334E+02  0.00000000000E+00 0.  1.
          2    1    6    6  502    0  0.45257969607E+02  0.12965205137E+03  0.91038286852E+02  0.16476015268E+03  0.00000000000E+00 0. -1.
          1    1    5    5  503    0 -0.79207578973E+03  0.13114467602E+03 -0.47027830190E+03  0.93045400959E+03  0.00000000000E+00 0. -1.
         -4    1    5    5    0  503 -0.33970585543E+03  0.34867222176E+02 -0.14698291431E+03  0.37177919320E+03  0.00000000000E+00 0.  1.
         -1    1    6    6    0  502  0.64626720508E+01  0.81305364195E+02 -0.43212799793E+01  0.81676201170E+02  0.00000000000E+00 0.  1.
<mgrwt>
<rscale>  0 0.28808583E+04</rscale>
<asrwt>0</asrwt>
<pdfrwt beam="1">  1        2 0.23347788E+00 0.28808583E+04</pdfrwt>
<pdfrwt beam="2">  1       -2 0.21033491E+00 0.28808583E+04</pdfrwt>
<totfact> 0.12220746E+00</totfact>
</mgrwt>
</event>
<event>
12    1  0.1472088E-007  0.1885238E+04  0.7818608E-02  0.8662240E-01
          1   -1    0    0  501    0  0.00000000000E+00  0.00000000000E+00  0.29054598692E+04  0.29054598692E+04  0.00000000000E+00 0. -1.
         -1   -1    0    0    0  501 -0.00000000000E+00 -0.00000000000E+00 -0.30581402396E+03  0.30581402396E+03  0.00000000000E+00 0.  1.
         23    2    1    2    0    0 -0.30535352166E+03  0.53350999013E+03  0.33584260614E+03  0.70682483236E+03  0.94537848429E+02 0.  0.
        254    2    1    2    0    0  0.30535352166E+03 -0.53350999013E+03  0.22638032391E+04  0.25044490608E+04  0.87726068534E+03 0.  0.
        -24    2    4    4    0    0 -0.23123586254E+03  0.73754417950E+02  0.57846477483E+03  0.63273448838E+03  0.82593575890E+02 0.  0.
         24    2    4    4    0    0  0.53658938419E+03 -0.60726440808E+03  0.16853384642E+04  0.18717145724E+04  0.79066256516E+02 0.  0.
         11    1    3    3    0    0 -0.81314844708E+02  0.11334047858E+03  0.35813752835E+02  0.14401664121E+03  0.00000000000E+00 0. -1.
        -11    1    3    3    0    0 -0.22403867695E+03  0.42016951155E+03  0.30002885330E+03  0.56280819114E+03  0.00000000000E+00 0.  1.
          4    1    6    6  502    0  0.29809519849E+03 -0.28350801097E+03  0.89148454068E+03  0.98182596519E+03  0.00000000000E+00 0. -1.
          1    1    5    5  503    0 -0.16041641495E+03  0.94589125610E+01  0.35758845755E+03  0.39203622560E+03  0.00000000000E+00 0. -1.
         -2    1    5    5    0  503 -0.70819447592E+02  0.64295505389E+02  0.22087631727E+03  0.24069826278E+03  0.00000000000E+00 0.  1.
         -3    1    6    6    0  502  0.23849418570E+03 -0.32375639711E+03  0.79385392357E+03  0.88988860721E+03  0.00000000000E+00 0.  1.
<mgrwt>
<rscale>  0 0.18852378E+04</rscale>
<asrwt>0</asrwt>
<pdfrwt beam="1">  1        1 0.44699381E+00 0.18852378E+04</pdfrwt>
<pdfrwt beam="2">  1       -1 0.47048313E-01 0.18852378E+04</pdfrwt>
<totfact> 0.29607412E+00</totfact>
</mgrwt>
</event>
<event>
12    1  0.1472088E-007  0.1580641E+04  0.7818608E-02  0.8832530E-01
         -1   -1    0    0    0  501 -0.00000000000E+00  0.00000000000E+00  0.50072473942E+03  0.50072473942E+03  0.00000000000E+00 0.  1.
          1   -1    0    0  501    0  0.00000000000E+00 -0.00000000000E+00 -0.12474047976E+04  0.12474047976E+04  0.00000000000E+00 0. -1.
         23    2    1    2    0    0  0.12844415655E+03  0.45322278578E+03  0.15913749803E+02  0.48005587283E+03  0.91058215976E+02 0.  0.
        254    2    1    2    0    0 -0.12844415655E+03 -0.45322278578E+03 -0.76259380801E+03  0.12680736642E+04  0.89696862095E+03 0.  0.
        -24    2    4    4    0    0  0.27600803772E+02 -0.58000026964E+03 -0.13115639263E+03  0.60063286510E+03  0.79973259044E+02 0.  0.
         24    2    4    4    0    0 -0.15604496032E+03  0.12677748386E+03 -0.63143741538E+03  0.66744079912E+03  0.79633226306E+02 0.  0.
         13    1    3    3    0    0  0.11774152314E+03  0.44332531126E+03  0.29935935345E+00  0.45869432904E+03  0.00000000000E+00 0.  1.
        -13    1    3    3    0    0  0.10702633412E+02  0.98974745213E+01  0.15614390449E+02  0.21361543787E+02  0.00000000000E+00 0. -1.
          4    1    6    6  502    0 -0.13475133809E+03  0.92161370010E+02 -0.57608913859E+03  0.59877402820E+03  0.00000000000E+00 0. -1.
          3    1    5    5  503    0  0.35075337535E+02 -0.22948227619E+03 -0.84003769326E+02  0.24687856863E+03  0.00000000000E+00 0. -1.
         -4    1    5    5    0  503 -0.74745337629E+01 -0.35051799345E+03 -0.47152623307E+02  0.35375429648E+03  0.00000000000E+00 0.  1.
         -3    1    6    6    0  502 -0.21293622225E+02  0.34616113845E+02 -0.55348276786E+02  0.68666770918E+02  0.00000000000E+00 0.  1.
<mgrwt>
<rscale>  0 0.15806409E+04</rscale>
<asrwt>0</asrwt>
<pdfrwt beam="1">  1        1 0.19190843E+00 0.15806409E+04</pdfrwt>
<pdfrwt beam="2">  1       -1 0.77034576E-01 0.15806409E+04</pdfrwt>
<totfact> 0.16031094E+01</totfact>
</mgrwt>
</event>
<event>
12    1  0.1472088E-007  0.1861154E+04  0.7818608E-02  0.8674438E-01
         -2   -1    0    0    0  501 -0.00000000000E+00  0.00000000000E+00  0.28274561816E+03  0.28274561816E+03  0.00000000000E+00 0.  1.
          2   -1    0    0  501    0  0.00000000000E+00 -0.00000000000E+00 -0.30627305179E+04  0.30627305179E+04  0.00000000000E+00 0. -1.
         23    2    1    2    0    0 -0.54523441394E+03 -0.43902583168E+03 -0.92009076986E+03  0.11608648137E+04  0.10495639072E+03 0.  0.
        254    2    1    2    0    0  0.54523441394E+03  0.43902583168E+03 -0.18598941299E+04  0.21846113223E+04  0.90735671498E+03 0.  0.
        -24    2    4    4    0    0  0.61945537178E+03  0.58940993353E+03 -0.10675017340E+04  0.13700528984E+04  0.79724305239E+02 0.  0.
         24    2    4    4    0    0 -0.74220957843E+02 -0.15038410185E+03 -0.79239239591E+03  0.81455842399E+03  0.86577065754E+02 0.  0.
         13    1    3    3    0    0 -0.38516027431E+02 -0.44430736445E+02 -0.12995687093E+03  0.14264067797E+03  0.00000000000E+00 0. -1.
        -13    1    3    3    0    0 -0.50671838651E+03 -0.39459509524E+03 -0.79013389894E+03  0.10182241358E+04  0.00000000000E+00 0.  1.
          4    1    6    6  502    0 -0.37707991610E+02 -0.25482990639E+02 -0.36411082162E+03  0.36694409092E+03  0.00000000000E+00 0. -1.
          1    1    5    5  503    0  0.42191638751E+03  0.35658338529E+03 -0.65523002759E+03  0.85702481747E+03  0.00000000000E+00 0. -1.
         -2    1    5    5    0  503  0.19753898427E+03  0.23282654824E+03 -0.41227170640E+03  0.51302808088E+03  0.00000000000E+00 0.  1.
         -3    1    6    6    0  502 -0.36512966233E+02 -0.12490111121E+03 -0.42828157429E+03  0.44761433306E+03  0.00000000000E+00 0.  1.
<mgrwt>
<rscale>  0 0.18611541E+04</rscale>
<asrwt>0</asrwt>
<pdfrwt beam="1">  1        2 0.47118932E+00 0.18611541E+04</pdfrwt>
<pdfrwt beam="2">  1       -2 0.43499325E-01 0.18611541E+04</pdfrwt>
<totfact> 0.75112173E+00</totfact>
</mgrwt>
</event>
<event>
12    1  0.1472088E-007  0.2019546E+04  0.7818608E-02  0.8597537E-01
          1   -1    0    0  501    0  0.00000000000E+00  0.00000000000E+00  0.82182433140E+03  0.82182433140E+03  0.00000000000E+00 0. -1.
         -1   -1    0    0    0  501 -0.00000000000E+00 -0.00000000000E+00 -0.12407044267E+04  0.12407044267E+04  0.00000000000E+00 0.  1.
         23    2    1    2    0    0 -0.69709753334E+03 -0.16508722571E+02  0.24858289553E+03  0.74544652227E+03  0.87633057129E+02 0.  0.
        254    2    1    2    0    0  0.69709753334E+03  0.16508722571E+02 -0.66746299081E+03  0.13170822358E+04  0.89609221784E+03 0.  0.
        -24    2    4    4    0    0  0.90053575493E+03  0.74131926499E+02 -0.56989838733E+03  0.10712796710E+04  0.79973577521E+02 0.  0.
         24    2    4    4    0    0 -0.20343822159E+03 -0.57623203928E+02 -0.97564603480E+02  0.24580256485E+03  0.78692473608E+02 0.  0.
         11    1    3    3    0    0 -0.54774930611E+03 -0.42074158123E+02  0.17191692019E+03  0.57563440184E+03  0.00000000000E+00 0. -1.
        -11    1    3    3    0    0 -0.14934822722E+03  0.25565435552E+02  0.76665975342E+02  0.16981212043E+03  0.00000000000E+00 0.  1.
          2    1    6    6  502    0 -0.15914413384E+03 -0.43875729887E+02 -0.36407330170E+02  0.16904859863E+03  0.00000000000E+00 0. -1.
          3    1    5    5  503    0  0.59863434750E+03  0.54149741410E+02 -0.42258503261E+03  0.73476076806E+03  0.00000000000E+00 0. -1.
         -4    1    5    5    0  503  0.30190140742E+03  0.19982185089E+02 -0.14731335473E+03  0.33651890290E+03  0.00000000000E+00 0.  1.
         -1    1    6    6    0  502 -0.44294087742E+02 -0.13747474041E+02 -0.61157273310E+02  0.76753966217E+02  0.00000000000E+00 0.  1.
<mgrwt>
<rscale>  0 0.20195456E+04</rscale>
<asrwt>0</asrwt>
<pdfrwt beam="1">  1        1 0.12643451E+00 0.20195456E+04</pdfrwt>
<pdfrwt beam="2">  1       -1 0.19087760E+00 0.20195456E+04</pdfrwt>
<totfact> 0.34146879E+00</totfact>
</mgrwt>
</event>
<event>
12    1  0.1472088E-007  0.3618543E+04  0.7818608E-02  0.8086257E-01
          2   -1    0    0  501    0  0.00000000000E+00  0.00000000000E+00  0.37944410138E+04  0.37944410138E+04  0.00000000000E+00 0. -1.
         -2   -1    0    0    0  501 -0.00000000000E+00 -0.00000000000E+00 -0.86269962342E+03  0.86269962342E+03  0.00000000000E+00 0.  1.
         23    2    1    2    0    0 -0.13568144729E+04  0.77866313767E+03  0.22264154070E+04  0.27225936995E+04  0.91263860524E+02 0.  0.
        254    2    1    2    0    0  0.13568144729E+04 -0.77866313767E+03  0.70532598341E+03  0.19345469377E+04  0.89315469862E+03 0.  0.
        -24    2    4    4    0    0  0.13097940351E+04 -0.73659144456E+03  0.87212036293E+03  0.17392118693E+04  0.78336633818E+02 0.  0.
         24    2    4    4    0    0  0.47020437746E+02 -0.42071693110E+02 -0.16679437952E+03  0.19533506844E+03  0.79714960926E+02 0.  0.
         13    1    3    3    0    0 -0.12452631675E+04  0.70520807683E+03  0.19914514567E+04  0.24523208787E+04  0.00000000000E+00 0. -1.
        -13    1    3    3    0    0 -0.11155130539E+03  0.73455060848E+02  0.23496395030E+03  0.27027282076E+03  0.00000000000E+00 0.  1.
          4    1    6    6  502    0  0.18661988293E+02 -0.46992198541E+02 -0.15698578394E+03  0.16492747767E+03  0.00000000000E+00 0. -1.
          1    1    5    5  503    0  0.81829196796E+03 -0.46738393635E+03  0.58978728219E+03  0.11117097315E+04  0.00000000000E+00 0. -1.
         -2    1    5    5    0  503  0.49150206718E+03 -0.26920750821E+03  0.28233308074E+03  0.62750213784E+03  0.00000000000E+00 0.  1.
         -3    1    6    6    0  502  0.28358449453E+02  0.49205054313E+01 -0.98085955775E+01  0.30407590767E+02  0.00000000000E+00 0.  1.
<mgrwt>
<rscale>  0 0.36185427E+04</rscale>
<asrwt>0</asrwt>
<pdfrwt beam="1">  1        2 0.58376015E+00 0.36185427E+04</pdfrwt>
<pdfrwt beam="2">  1       -2 0.13272302E+00 0.36185427E+04</pdfrwt>
<totfact> 0.16588550E-01</totfact>
</mgrwt>
</event>
<event>
12    1  0.1472088E-007  0.1086431E+04  0.7818608E-02  0.9218519E-01
          2   -1    0    0  501    0  0.00000000000E+00  0.00000000000E+00  0.19446820361E+04  0.19446820361E+04  0.00000000000E+00 0.  1.
         -2   -1    0    0    0  501 -0.00000000000E+00 -0.00000000000E+00 -0.15173857270E+03  0.15173857270E+03  0.00000000000E+00 0. -1.
         23    2    1    2    0    0  0.50069648085E+02  0.66092549187E+02  0.51020934189E+02  0.13445857455E+03  0.92740378623E+02 0.  0.
        254    2    1    2    0    0 -0.50069648085E+02 -0.66092549187E+02  0.17419225292E+04  0.19619620343E+04  0.89895813659E+03 0.  0.
        -24    2    4    4    0    0 -0.27690911522E+02  0.29203817472E+03  0.14800727444E+04  0.15109650887E+04  0.79668616315E+02 0.  0.
         24    2    4    4    0    0 -0.22378736564E+02 -0.35813072391E+03  0.26184978485E+03  0.45099694560E+03  0.77939154868E+02 0.  0.
         11    1    3    3    0    0  0.72645577015E+02  0.55268736952E+02  0.58392837591E+02  0.10835929414E+03  0.00000000000E+00 0.  1.
        -11    1    3    3    0    0 -0.22575928929E+02  0.10823812235E+02 -0.73719034017E+01  0.26099280413E+02  0.00000000000E+00 0. -1.
          4    1    6    6  502    0 -0.24161495256E+02 -0.36217990390E+02  0.17836399850E+02  0.47049525402E+02  0.00000000000E+00 0. -1.
          3    1    5    5  503    0 -0.41361302518E+02  0.14931237744E+03  0.62264528072E+03  0.64163236281E+03  0.00000000000E+00 0. -1.
         -4    1    5    5    0  503  0.13670390996E+02  0.14272579728E+03  0.85742746367E+03  0.86933272586E+03  0.00000000000E+00 0.  1.
         -3    1    6    6    0  502  0.17827586923E+01 -0.32191273352E+03  0.24401338500E+03  0.40394742020E+03  0.00000000000E+00 0.  1.
<mgrwt>
<rscale>  0 0.10864314E+04</rscale>
<asrwt>0</asrwt>
<pdfrwt beam="1">  1        2 0.29918183E+00 0.10864314E+04</pdfrwt>
<pdfrwt beam="2">  1       -2 0.23344397E-01 0.10864314E+04</pdfrwt>
<totfact> 0.11591340E+02</totfact>
</mgrwt>
</event>
<event>
12    1  0.1472088E-007  0.1730054E+04  0.7818608E-02  0.8744407E-01
          1   -1    0    0  501    0  0.00000000000E+00  0.00000000000E+00  0.11412700060E+04  0.11412700060E+04  0.00000000000E+00 0. -1.
         -1   -1    0    0    0  501 -0.00000000000E+00 -0.00000000000E+00 -0.65564830089E+03  0.65564830089E+03  0.00000000000E+00 0.  1.
         23    2    1    2    0    0 -0.26059954344E+03 -0.57144894230E+03  0.24575340756E+03  0.68087513866E+03  0.93435546818E+02 0.  0.
        254    2    1    2    0    0  0.26059954344E+03  0.57144894230E+03  0.23986829754E+03  0.11160431682E+04  0.89081397467E+03 0.  0.
        -24    2    4    4    0    0  0.42038019722E+02 -0.17731555543E+03  0.26568540797E+03  0.33154921994E+03  0.78282488069E+02 0.  0.
         24    2    4    4    0    0  0.21856152372E+03  0.74876449773E+03 -0.25817110426E+02  0.78449394828E+03  0.79666925313E+02 0.  0.
         11    1    3    3    0    0 -0.22004951707E+03 -0.38759626535E+03  0.19008482494E+03  0.48454607165E+03  0.00000000000E+00 0. -1.
        -11    1    3    3    0    0 -0.40550026375E+02 -0.18385267695E+03  0.55668582623E+02  0.19632906701E+03  0.00000000000E+00 0.  1.
          4    1    6    6  502    0  0.19285880491E+03  0.70321835657E+03 -0.40081156743E+02  0.73028561178E+03  0.00000000000E+00 0. -1.
          3    1    5    5  503    0 -0.50219447975E+00 -0.11514552562E+03  0.20370792464E+03  0.23399927955E+03  0.00000000000E+00 0. -1.
         -4    1    5    5    0  503  0.42540214201E+02 -0.62170029809E+02  0.61977483331E+02  0.97549940393E+02  0.00000000000E+00 0.  1.
         -3    1    6    6    0  502  0.25702718813E+02  0.45546141158E+02  0.14264046317E+02  0.54208336500E+02  0.00000000000E+00 0.  1.
<mgrwt>
<rscale>  0 0.17300540E+04</rscale>
<asrwt>0</asrwt>
<pdfrwt beam="1">  1        1 0.17558000E+00 0.17300540E+04</pdfrwt>
<pdfrwt beam="2">  1       -1 0.10086897E+00 0.17300540E+04</pdfrwt>
<totfact> 0.10473610E+01</totfact>
</mgrwt>
</event>
<event>
12    1  0.1472088E-007  0.2022285E+04  0.7818608E-02  0.8596272E-01
          1   -1    0    0  501    0  0.00000000000E+00  0.00000000000E+00  0.32062763213E+04  0.32062763213E+04  0.00000000000E+00 0. -1.
         -1   -1    0    0    0  501 -0.00000000000E+00 -0.00000000000E+00 -0.31887736295E+03  0.31887736295E+03  0.00000000000E+00 0.  1.
         23    2    1    2    0    0 -0.64385719387E+03 -0.14472578365E+03  0.19640728540E+04  0.20735059325E+04  0.79668298347E+02 0.  0.
        254    2    1    2    0    0  0.64385719387E+03  0.14472578365E+03  0.92332610432E+03  0.14516477517E+04  0.90512566065E+03 0.  0.
        -24    2    4    4    0    0  0.52552387000E+03 -0.30847825657E+03  0.68399938238E+03  0.91944689725E+03  0.78697325543E+02 0.  0.
         24    2    4    4    0    0  0.11833332387E+03  0.45320404022E+03  0.23932672194E+03  0.53220085446E+03  0.81017233024E+02 0.  0.
         11    1    3    3    0    0 -0.34193008565E+03 -0.42553602086E+02  0.95290386261E+03  0.10132880952E+04  0.00000000000E+00 0.  1.
        -11    1    3    3    0    0 -0.30192710822E+03 -0.10217218156E+03  0.10111689914E+04  0.10602178373E+04  0.00000000000E+00 0. -1.
          2    1    6    6  502    0 -0.73617392363E+01  0.94695873881E+02  0.57447859677E+02  0.11100342479E+03  0.00000000000E+00 0. -1.
          1    1    5    5  503    0  0.38517806736E+03 -0.18960659417E+03  0.45206515427E+03  0.62343861593E+03  0.00000000000E+00 0. -1.
         -2    1    5    5    0  503  0.14034580264E+03 -0.11887166240E+03  0.23193422811E+03  0.29600828132E+03  0.00000000000E+00 0.  1.
         -1    1    6    6    0  502  0.12569506311E+03  0.35850816633E+03  0.18187886226E+03  0.42119742966E+03  0.00000000000E+00 0.  1.
<mgrwt>
<rscale>  0 0.20222848E+04</rscale>
<asrwt>0</asrwt>
<pdfrwt beam="1">  1        1 0.49327326E+00 0.20222848E+04</pdfrwt>
<pdfrwt beam="2">  1       -1 0.49058058E-01 0.20222848E+04</pdfrwt>
<totfact> 0.16245688E+00</totfact>
</mgrwt>
</event>
<event>
12    1  0.1472088E-007  0.1972116E+04  0.7818608E-02  0.8619769E-01
          2   -1    0    0  501    0  0.00000000000E+00  0.00000000000E+00  0.19301641118E+04  0.19301641118E+04  0.00000000000E+00 0. -1.
         -2   -1    0    0    0  501 -0.00000000000E+00 -0.00000000000E+00 -0.50374509431E+03  0.50374509431E+03  0.00000000000E+00 0.  1.
         23    2    1    2    0    0  0.23619190040E+03  0.30485355139E+03 -0.26856130418E+03  0.47930024702E+03  0.94240389854E+02 0.  0.
        254    2    1    2    0    0 -0.23619190040E+03 -0.30485355139E+03  0.16949803216E+04  0.19546089590E+04  0.89376484071E+03 0.  0.
        -24    2    4    4    0    0 -0.56254132426E+03 -0.16553737415E+03  0.86025292375E+03  0.10440096160E+04  0.77882102128E+02 0.  0.
         24    2    4    4    0    0  0.32634942386E+03 -0.13931617725E+03  0.83472739787E+03  0.91059934301E+03  0.80674599630E+02 0.  0.
         13    1    3    3    0    0  0.10250733221E+03  0.20401893944E+03 -0.13624926459E+03  0.26588595846E+03  0.00000000000E+00 0. -1.
        -13    1    3    3    0    0  0.13368456819E+03  0.10083461195E+03 -0.13231203959E+03  0.21341428855E+03  0.00000000000E+00 0.  1.
          4    1    6    6  502    0  0.32107692483E+03 -0.14417094720E+03  0.83112763937E+03  0.90257897528E+03  0.00000000000E+00 0. -1.
          1    1    5    5  503    0 -0.26841603616E+03 -0.78912204355E+02  0.34212348534E+03  0.44195337275E+03  0.00000000000E+00 0. -1.
         -2    1    5    5    0  503 -0.29412528809E+03 -0.86625169793E+02  0.51812943840E+03  0.60205624328E+03  0.00000000000E+00 0.  1.
         -3    1    6    6    0  502  0.52724990247E+01  0.48547699535E+01  0.35997584991E+01  0.80203677297E+01  0.00000000000E+00 0.  1.
<mgrwt>
<rscale>  0 0.19721163E+04</rscale>
<asrwt>0</asrwt>
<pdfrwt beam="1">  1        2 0.29694832E+00 0.19721163E+04</pdfrwt>
<pdfrwt beam="2">  1       -2 0.77499246E-01 0.19721163E+04</pdfrwt>
<totfact> 0.10097457E+01</totfact>
</mgrwt>
</event>
<event>
12    1  0.1472088E-007  0.1150365E+04  0.7818608E-02  0.9157447E-01
          2   -1    0    0  501    0  0.00000000000E+00  0.00000000000E+00  0.27205694290E+04  0.27205694290E+04  0.00000000000E+00 0.  1.
         -2   -1    0    0    0  501 -0.00000000000E+00 -0.00000000000E+00 -0.12160509493E+03  0.12160509493E+03  0.00000000000E+00 0. -1.
         23    2    1    2    0    0  0.10623040306E+03 -0.70087778301E+02  0.97780976243E+02  0.18299524824E+03  0.87914426358E+02 0.  0.
        254    2    1    2    0    0 -0.10623040306E+03  0.70087778301E+02  0.25011833579E+04  0.26591792757E+04  0.89393458128E+03 0.  0.
        -24    2    4    4    0    0  0.21804525990E+03  0.26941320494E+03  0.19636995381E+04  0.19958750612E+04  0.85288764181E+02 0.  0.
         24    2    4    4    0    0 -0.32427566296E+03 -0.19932542664E+03  0.53748381971E+03  0.66330421456E+03  0.78729240493E+02 0.  0.
         11    1    3    3    0    0 -0.13340189718E+02 -0.18344944677E+01 -0.10642680811E+01  0.13507727352E+02  0.00000000000E+00 0.  1.
        -11    1    3    3    0    0  0.11957059278E+03 -0.68253283833E+02  0.98845244324E+02  0.16948752089E+03  0.00000000000E+00 0. -1.
          4    1    6    6  502    0 -0.24761092308E+03 -0.18638702065E+03  0.40954275635E+03  0.51359182233E+03  0.00000000000E+00 0. -1.
          3    1    5    5  503    0  0.21157671546E+03  0.21338384697E+03  0.16636554768E+04  0.16905759132E+04  0.00000000000E+00 0. -1.
         -4    1    5    5    0  503  0.64685444400E+01  0.56029357970E+02  0.30004406130E+03  0.30529914795E+03  0.00000000000E+00 0.  1.
         -3    1    6    6    0  502 -0.76664739883E+02 -0.12938405992E+02  0.12794106337E+03  0.14971239223E+03  0.00000000000E+00 0.  1.
<mgrwt>
<rscale>  0 0.11503653E+04</rscale>
<asrwt>0</asrwt>
<pdfrwt beam="1">  1        2 0.41854910E+00 0.11503653E+04</pdfrwt>
<pdfrwt beam="2">  1       -2 0.18708478E-01 0.11503653E+04</pdfrwt>
<totfact> 0.62075250E+01</totfact>
</mgrwt>
</event>
<event>
12    1  0.1472088E-007  0.1616655E+04  0.7818608E-02  0.8810381E-01
         -2   -1    0    0    0  501 -0.00000000000E+00  0.00000000000E+00  0.25444790160E+03  0.25444790160E+03  0.00000000000E+00 0.  1.
          2   -1    0    0  501    0  0.00000000000E+00 -0.00000000000E+00 -0.25678851542E+04  0.25678851542E+04  0.00000000000E+00 0. -1.
         23    2    1    2    0    0  0.10433873196E+03 -0.12898429277E+03 -0.17171893225E+04  0.17276132713E+04  0.91569246113E+02 0.  0.
        254    2    1    2    0    0 -0.10433873196E+03  0.12898429277E+03 -0.59624793004E+03  0.10947197845E+04  0.90298189005E+03 0.  0.
        -24    2    4    4    0    0 -0.31918501449E+03  0.35196873574E+03 -0.60652438169E+03  0.77485354208E+03  0.82250359761E+02 0.  0.
         24    2    4    4    0    0  0.21484628252E+03 -0.22298444297E+03  0.10276451647E+02  0.31986624243E+03  0.79547600003E+02 0.  0.
         11    1    3    3    0    0  0.11555164688E+03 -0.13384858878E+03 -0.16320016132E+04  0.16415531953E+04  0.00000000000E+00 0. -1.
        -11    1    3    3    0    0 -0.11212914919E+02  0.48642960041E+01 -0.85187709389E+02  0.86060075921E+02  0.00000000000E+00 0.  1.
          4    1    6    6  502    0  0.19894091145E+03 -0.20319655759E+03  0.32376062478E+02  0.28620715694E+03  0.00000000000E+00 0. -1.
          3    1    5    5  503    0 -0.14356700878E+03  0.17868071776E+03 -0.23012307694E+03  0.32479980826E+03  0.00000000000E+00 0. -1.
         -4    1    5    5    0  503 -0.17561800571E+03  0.17328801798E+03 -0.37640130475E+03  0.45005373382E+03  0.00000000000E+00 0.  1.
         -3    1    6    6    0  502  0.15905371074E+02 -0.19787885383E+02 -0.22099610830E+02  0.33659085486E+02  0.00000000000E+00 0.  1.
<mgrwt>
<rscale>  0 0.16166546E+04</rscale>
<asrwt>0</asrwt>
<pdfrwt beam="1">  1        2 0.39505920E+00 0.16166546E+04</pdfrwt>
<pdfrwt beam="2">  1       -2 0.39145836E-01 0.16166546E+04</pdfrwt>
<totfact> 0.18824020E+01</totfact>
</mgrwt>
</event>
<event>
12    1  0.1472088E-007  0.2139910E+04  0.7818608E-02  0.8543864E-01
         -2   -1    0    0    0  501 -0.00000000000E+00  0.00000000000E+00  0.60661684563E+03  0.60661684563E+03  0.00000000000E+00 0.  1.
          2   -1    0    0  501    0  0.00000000000E+00 -0.00000000000E+00 -0.18871944700E+04  0.18871944700E+04  0.00000000000E+00 0. -1.
         23    2    1    2    0    0 -0.65209351519E+03  0.58841042369E+03 -0.49801034542E+03  0.10137712089E+04  0.90911938182E+02 0.  0.
        254    2    1    2    0    0  0.65209351519E+03 -0.58841042369E+03 -0.78256727898E+03  0.14800401068E+04  0.89813940585E+03 0.  0.
        -24    2    4    4    0    0 -0.13633259865E+03  0.11065592765E+03 -0.75827808576E+02  0.20881469090E+03  0.83799801919E+02 0.  0.
         24    2    4    4    0    0  0.78842611384E+03 -0.69906635134E+03 -0.70673947040E+03  0.12712254159E+04  0.78891561269E+02 0.  0.
         11    1    3    3    0    0 -0.51820819761E+03  0.45052701493E+03 -0.42849018065E+03  0.80939370036E+03  0.00000000000E+00 0. -1.
        -11    1    3    3    0    0 -0.13388531758E+03  0.13788340875E+03 -0.69520164770E+02  0.20437750850E+03  0.00000000000E+00 0.  1.
          4    1    6    6  502    0  0.27991480210E+03 -0.22398542839E+03 -0.20143760476E+03  0.41121633866E+03  0.00000000000E+00 0. -1.
          3    1    5    5  503    0 -0.35849656225E+02  0.52101612629E+02  0.10325409335E+02  0.64081120215E+02  0.00000000000E+00 0. -1.
         -4    1    5    5    0  503 -0.10048294242E+03  0.58554315025E+02 -0.86153217911E+02  0.14473357068E+03  0.00000000000E+00 0.  1.
         -3    1    6    6    0  502  0.50851131174E+03 -0.47508092295E+03 -0.50530186564E+03  0.86000907724E+03  0.00000000000E+00 0.  1.
<mgrwt>
<rscale>  0 0.21399102E+04</rscale>
<asrwt>0</asrwt>
<pdfrwt beam="1">  1        2 0.29033761E+00 0.21399102E+04</pdfrwt>
<pdfrwt beam="2">  1       -2 0.93325669E-01 0.21399102E+04</pdfrwt>
<totfact> 0.68877455E+00</totfact>
</mgrwt>
</event>
<event>
12    1  0.1472088E-007  0.1865726E+04  0.7818608E-02  0.8672108E-01
          2   -1    0    0  501    0  0.00000000000E+00  0.00000000000E+00  0.14391758796E+04  0.14391758796E+04  0.00000000000E+00 0. -1.
         -2   -1    0    0    0  501 -0.00000000000E+00 -0.00000000000E+00 -0.60467451958E+03  0.60467451958E+03  0.00000000000E+00 0.  1.
         23    2    1    2    0    0  0.28387217931E+02  0.71410372992E+03  0.34990717709E+03  0.79982876404E+03  0.80876745635E+02 0.  0.
        254    2    1    2    0    0 -0.28387217931E+02 -0.71410372992E+03  0.48459418291E+03  0.12440216351E+04  0.89554918085E+03 0.  0.
        -24    2    4    4    0    0 -0.15429933751E+03 -0.70646465934E+03 -0.99359842026E+01  0.72743927237E+03  0.78540249233E+02 0.  0.
         24    2    4    4    0    0  0.12591211958E+03 -0.76390705785E+01  0.49453016712E+03  0.51658236276E+03  0.79906408196E+02 0.  0.
         11    1    3    3    0    0  0.17275664527E+02  0.49822746121E+03  0.28446922488E+03  0.57397891214E+03  0.00000000000E+00 0. -1.
        -11    1    3    3    0    0  0.11111553404E+02  0.21587626871E+03  0.65437952211E+02  0.22584985189E+03  0.00000000000E+00 0.  1.
          4    1    6    6  502    0  0.10092480127E+02 -0.12302031513E+02  0.10979015650E+02  0.19332276615E+02  0.00000000000E+00 0. -1.
          3    1    5    5  503    0 -0.31278035056E+02 -0.13854645742E+03 -0.33282686097E+02  0.14588068253E+03  0.00000000000E+00 0. -1.
         -4    1    5    5    0  503 -0.12302130246E+03 -0.56791820192E+03  0.23346701894E+02  0.58155858984E+03  0.00000000000E+00 0.  1.
         -3    1    6    6    0  502  0.11581963946E+03  0.46629609349E+01  0.48355115147E+03  0.49725008615E+03  0.00000000000E+00 0.  1.
<mgrwt>
<rscale>  0 0.18657256E+04</rscale>
<asrwt>0</asrwt>
<pdfrwt beam="1">  1        2 0.22141167E+00 0.18657256E+04</pdfrwt>
<pdfrwt beam="2">  1       -2 0.93026850E-01 0.18657256E+04</pdfrwt>
<totfact> 0.12634497E+01</totfact>
</mgrwt>
</event>
<event>
12    1  0.1472088E-007  0.1384812E+04  0.7818608E-02  0.8964886E-01
          1   -1    0    0  501    0  0.00000000000E+00  0.00000000000E+00  0.11276699555E+04  0.11276699555E+04  0.00000000000E+00 0. -1.
         -1   -1    0    0    0  501 -0.00000000000E+00 -0.00000000000E+00 -0.42514757363E+03  0.42514757363E+03  0.00000000000E+00 0.  1.
         23    2    1    2    0    0  0.20363114643E+03 -0.25917708153E+03  0.43210358820E+03  0.55162496355E+03  0.94541980582E+02 0.  0.
        254    2    1    2    0    0 -0.20363114643E+03  0.25917708153E+03  0.27041879364E+03  0.10011925655E+04  0.90588179470E+03 0.  0.
        -24    2    4    4    0    0 -0.25468495820E+03  0.36565974542E+02  0.56086473821E+03  0.62231571714E+03  0.80660391802E+02 0.  0.
         24    2    4    4    0    0  0.51053811772E+02  0.22261110699E+03 -0.29044594457E+03  0.37887684841E+03  0.83824953861E+02 0.  0.
         11    1    3    3    0    0  0.36664931822E+02 -0.37708206527E+02  0.23089271440E+02  0.57439886148E+02  0.00000000000E+00 0.  1.
        -11    1    3    3    0    0  0.16696621461E+03 -0.22146887500E+03  0.40901431676E+03  0.49418507740E+03  0.00000000000E+00 0. -1.
          4    1    6    6  502    0  0.22787571268E+02  0.20912815828E+02 -0.81126443955E+02  0.86822342625E+02  0.00000000000E+00 0. -1.
          3    1    5    5  503    0 -0.24981109034E+03  0.34744059532E+02  0.48853638729E+03  0.54980044765E+03  0.00000000000E+00 0. -1.
         -4    1    5    5    0  503 -0.48738678552E+01  0.18219150104E+01  0.72328350925E+02  0.72515269493E+02  0.00000000000E+00 0.  1.
         -3    1    6    6    0  502  0.28266240504E+02  0.20169829116E+03 -0.20931950062E+03  0.29205450578E+03  0.00000000000E+00 0.  1.
<mgrwt>
<rscale>  0 0.13848121E+04</rscale>
<asrwt>0</asrwt>
<pdfrwt beam="1">  1        1 0.17348768E+00 0.13848121E+04</pdfrwt>
<pdfrwt beam="2">  1       -1 0.65407320E-01 0.13848121E+04</pdfrwt>
<totfact> 0.27959993E+01</totfact>
</mgrwt>
</event>
<event>
12    1  0.1546730E-007  0.1569827E+04  0.7818608E-02  0.8839302E-01
          1   -1    0    0  501    0  0.00000000000E+00  0.00000000000E+00  0.95357103868E+03  0.95357103868E+03  0.00000000000E+00 0. -1.
         -1   -1    0    0    0  501 -0.00000000000E+00 -0.00000000000E+00 -0.64608628440E+03  0.64608628440E+03  0.00000000000E+00 0.  1.
         23    2    1    2    0    0  0.42023358856E+03 -0.25024943669E+01  0.42262253719E+03  0.60104161364E+03  0.77708950290E+02 0.  0.
        254    2    1    2    0    0 -0.42023358856E+03  0.25024943669E+01 -0.11513778291E+03  0.99861570944E+03  0.89853997944E+03 0.  0.
        -24    2    4    4    0    0  0.25398956509E+03 -0.24200783230E+02 -0.17049569412E+03  0.31724345348E+03  0.80487576560E+02 0.  0.
         24    2    4    4    0    0 -0.67422315365E+03  0.26703277597E+02  0.55357911205E+02  0.68137225595E+03  0.76900760084E+02 0.  0.
         11    1    3    3    0    0  0.33047699628E+03 -0.11099163323E+02  0.37168288550E+03  0.49748005374E+03  0.00000000000E+00 0. -1.
        -11    1    3    3    0    0  0.89756592274E+02  0.85966689560E+01  0.50939651691E+02  0.10356155990E+03  0.00000000000E+00 0.  1.
          2    1    6    6  502    0 -0.18673028416E+01  0.48253974254E+01 -0.32536006575E+01  0.61120534564E+01  0.00000000000E+00 0. -1.
          1    1    5    5  503    0  0.14135954022E+01 -0.14710841689E+02 -0.91719109815E+01  0.17393420198E+02  0.00000000000E+00 0. -1.
         -2    1    5    5    0  503  0.25257596969E+03 -0.94899415410E+01 -0.16132378314E+03  0.29985003328E+03  0.00000000000E+00 0.  1.
         -1    1    6    6    0  502 -0.67235585081E+03  0.21877880171E+02  0.58611511863E+02  0.67526020250E+03  0.00000000000E+00 0.  1.
<mgrwt>
<rscale>  0 0.15698270E+04</rscale>
<asrwt>0</asrwt>
<pdfrwt beam="1">  1        1 0.14670324E+00 0.15698270E+04</pdfrwt>
<pdfrwt beam="2">  1       -1 0.99397890E-01 0.15698270E+04</pdfrwt>
<totfact> 0.15310326E+01</totfact>
</mgrwt>
</event>
<event>
12    1  0.1472088E-007  0.1396413E+04  0.7818608E-02  0.8956419E-01
          2   -1    0    0  501    0  0.00000000000E+00  0.00000000000E+00  0.16279491671E+04  0.16279491671E+04  0.00000000000E+00 0. -1.
         -2   -1    0    0    0  501 -0.00000000000E+00 -0.00000000000E+00 -0.29945177889E+03  0.29945177889E+03  0.00000000000E+00 0.  1.
         23    2    1    2    0    0 -0.42263671653E+03 -0.41758306388E+02  0.28922810456E+03  0.52173866017E+03  0.90513991924E+02 0.  0.
        254    2    1    2    0    0  0.42263671653E+03  0.41758306388E+02  0.10392692837E+04  0.14056622858E+04  0.84583702185E+03 0.  0.
        -24    2    4    4    0    0  0.30210560235E+03 -0.10884603552E+03 -0.15044070328E+02  0.33086684784E+03  0.78302570378E+02 0.  0.
         24    2    4    4    0    0  0.12053111418E+03  0.15060434191E+03  0.10543133540E+04  0.10747954380E+04  0.79994798832E+02 0.  0.
         13    1    3    3    0    0 -0.11994639332E+02  0.15121457036E+02  0.86368089777E+01  0.21145314018E+02  0.00000000000E+00 0.  1.
        -13    1    3    3    0    0 -0.41064207720E+03 -0.56879763424E+02  0.28059129558E+03  0.50059334615E+03  0.00000000000E+00 0. -1.
          4    1    6    6  502    0  0.35692546598E+02  0.37732015696E+02  0.13401380546E+03  0.14372669531E+03  0.00000000000E+00 0. -1.
          3    1    5    5  503    0  0.64547520546E+02  0.92916242100E+01 -0.29815868812E+01  0.65280981529E+02  0.00000000000E+00 0. -1.
         -4    1    5    5    0  503  0.23755808180E+03 -0.11813765973E+03 -0.12062483447E+02  0.26558586631E+03  0.00000000000E+00 0.  1.
         -3    1    6    6    0  502  0.84838567582E+02  0.11287232621E+03  0.92029954852E+03  0.93106874268E+03  0.00000000000E+00 0.  1.
<mgrwt>
<rscale>  0 0.13964129E+04</rscale>
<asrwt>0</asrwt>
<pdfrwt beam="1">  1        2 0.25045371E+00 0.13964129E+04</pdfrwt>
<pdfrwt beam="2">  1       -2 0.46069505E-01 0.13964129E+04</pdfrwt>
<totfact> 0.46779514E+01</totfact>
</mgrwt>
</event>
<event>
12    1  0.1472088E-007  0.1103796E+04  0.7818608E-02  0.9201500E-01
          1   -1    0    0  501    0  0.00000000000E+00  0.00000000000E+00  0.42310466896E+03  0.42310466896E+03  0.00000000000E+00 0. -1.
         -1   -1    0    0    0  501 -0.00000000000E+00 -0.00000000000E+00 -0.71989642840E+03  0.71989642840E+03  0.00000000000E+00 0.  1.
         23    2    1    2    0    0 -0.30686501427E+02  0.12039724226E+03  0.60684048983E+02  0.16637025763E+03  0.92516763403E+02 0.  0.
        254    2    1    2    0    0  0.30686501427E+02 -0.12039724226E+03 -0.35747580842E+03  0.97663083973E+03  0.90032310099E+03 0.  0.
        -24    2    4    4    0    0 -0.28851102588E+03 -0.38124112658E+03 -0.23853786561E+03  0.54016818818E+03  0.79359621576E+02 0.  0.
         24    2    4    4    0    0  0.31919752731E+03  0.26084388432E+03 -0.11893794282E+03  0.43646265155E+03  0.80167440587E+02 0.  0.
         11    1    3    3    0    0 -0.36120571065E+02  0.83252747506E+02 -0.48124030408E+01  0.90878351902E+02  0.00000000000E+00 0. -1.
        -11    1    3    3    0    0  0.54340696380E+01  0.37144494755E+02  0.65496452024E+02  0.75491905733E+02  0.00000000000E+00 0.  1.
          4    1    6    6  502    0  0.56528085429E+02  0.15934938641E+02 -0.32304600609E+02  0.67029351275E+02  0.00000000000E+00 0. -1.
          3    1    5    5  503    0 -0.20670212021E+02 -0.33368830869E+02  0.24707518540E+01  0.39329901517E+02  0.00000000000E+00 0. -1.
         -4    1    5    5    0  503 -0.26784081386E+03 -0.34787229571E+03 -0.24100861746E+03  0.50083828666E+03  0.00000000000E+00 0.  1.
         -3    1    6    6    0  502  0.26266944188E+03  0.24490894568E+03 -0.86633342208E+02  0.36943330028E+03  0.00000000000E+00 0.  1.
<mgrwt>
<rscale>  0 0.11037962E+04</rscale>
<asrwt>0</asrwt>
<pdfrwt beam="1">  1        1 0.65093026E-01 0.11037962E+04</pdfrwt>
<pdfrwt beam="2">  1       -1 0.11075330E+00 0.11037962E+04</pdfrwt>
<totfact> 0.41651674E+01</totfact>
</mgrwt>
</event>
<event>
12    1  0.1472088E-007  0.1310259E+04  0.7818608E-02  0.9021469E-01
          1   -1    0    0  501    0  0.00000000000E+00  0.00000000000E+00  0.14045534523E+04  0.14045534523E+04  0.00000000000E+00 0. -1.
         -1   -1    0    0    0  501 -0.00000000000E+00 -0.00000000000E+00 -0.30557356329E+03  0.30557356329E+03  0.00000000000E+00 0.  1.
         23    2    1    2    0    0  0.25400826367E+03 -0.13611577186E+03  0.60542942108E+02  0.30797110781E+03  0.90183446626E+02 0.  0.
        254    2    1    2    0    0 -0.25400826367E+03  0.13611577186E+03  0.10384369469E+04  0.14021559077E+04  0.89701850350E+03 0.  0.
        -24    2    4    4    0    0 -0.27625012871E+03  0.45801720446E+03  0.36945109409E+03  0.65502566949E+03  0.80440186257E+02 0.  0.
         24    2    4    4    0    0  0.22241865039E+02 -0.32190143260E+03  0.66898585278E+03  0.74713023825E+03  0.80909139278E+02 0.  0.
         13    1    3    3    0    0  0.11102633158E+03 -0.10839137601E+03  0.44662188680E+02  0.16146283720E+03  0.00000000000E+00 0.  1.
        -13    1    3    3    0    0  0.14298193209E+03 -0.27724395848E+02  0.15880753428E+02  0.14650827061E+03  0.00000000000E+00 0. -1.
          2    1    6    6  502    0 -0.76945019575E+01 -0.25828030451E+03  0.47401864028E+03  0.53987182960E+03  0.00000000000E+00 0. -1.
          3    1    5    5  503    0 -0.23298238127E+03  0.43073712326E+03  0.33661662516E+03  0.59424406743E+03  0.00000000000E+00 0. -1.
         -4    1    5    5    0  503 -0.43267747442E+02  0.27280081201E+02  0.32834468934E+02  0.60781602062E+02  0.00000000000E+00 0.  1.
         -1    1    6    6    0  502  0.29936366996E+02 -0.63621128092E+02  0.19496721250E+03  0.20725840865E+03  0.00000000000E+00 0.  1.
<mgrwt>
<rscale>  0 0.13102586E+04</rscale>
<asrwt>0</asrwt>
<pdfrwt beam="1">  1        1 0.21608514E+00 0.13102586E+04</pdfrwt>
<pdfrwt beam="2">  1       -1 0.47011318E-01 0.13102586E+04</pdfrwt>
<totfact> 0.33772266E+01</totfact>
</mgrwt>
</event>
<event>
12    1  0.1472088E-007  0.1774329E+04  0.7818608E-02  0.8720071E-01
         -1   -1    0    0    0  501 -0.00000000000E+00  0.00000000000E+00  0.16980027433E+03  0.16980027433E+03  0.00000000000E+00 0.  1.
          1   -1    0    0  501    0  0.00000000000E+00 -0.00000000000E+00 -0.46352159925E+04  0.46352159925E+04  0.00000000000E+00 0. -1.
         23    2    1    2    0    0 -0.37864648915E+02  0.65238350330E+03 -0.18750865950E+04  0.19878310599E+04  0.92111980363E+02 0.  0.
        254    2    1    2    0    0  0.37864648915E+02 -0.65238350330E+03 -0.25903291232E+04  0.28171852069E+04  0.89425363114E+03 0.  0.
        -24    2    4    4    0    0 -0.68917746251E+02 -0.34949612335E+03 -0.24156117780E+04  0.24431578184E+04  0.83322672630E+02 0.  0.
         24    2    4    4    0    0  0.10678239517E+03 -0.30288737995E+03 -0.17471734519E+03  0.37402738852E+03  0.78911924331E+02 0.  0.
         11    1    3    3    0    0 -0.12013458279E+02  0.52060213827E+02 -0.94080105656E+02  0.10819267685E+03  0.00000000000E+00 0. -1.
        -11    1    3    3    0    0 -0.25851190636E+02  0.60032328947E+03 -0.17810064893E+04  0.18796383830E+04  0.00000000000E+00 0.  1.
          2    1    6    6  502    0  0.62287173410E+02 -0.72554649964E+02 -0.41403373265E+02  0.10420224815E+03  0.00000000000E+00 0. -1.
          1    1    5    5  503    0 -0.30175141632E+02 -0.25956447737E+02 -0.28828132906E+03  0.29101615254E+03  0.00000000000E+00 0. -1.
         -4    1    5    5    0  503 -0.38742604619E+02 -0.32353967561E+03 -0.21273304489E+04  0.21521416659E+04  0.00000000000E+00 0.  1.
         -1    1    6    6    0  502  0.44495221756E+02 -0.23033272999E+03 -0.13331397192E+03  0.26982514036E+03  0.00000000000E+00 0.  1.
<mgrwt>
<rscale>  0 0.17743291E+04</rscale>
<asrwt>0</asrwt>
<pdfrwt beam="1">  1        1 0.71311019E+00 0.17743291E+04</pdfrwt>
<pdfrwt beam="2">  1       -1 0.26123118E-01 0.17743291E+04</pdfrwt>
<totfact> 0.29121886E-01</totfact>
</mgrwt>
</event>
<event>
12    1  0.1472088E-007  0.2192836E+04  0.7818608E-02  0.8521416E-01
          1   -1    0    0  501    0  0.00000000000E+00  0.00000000000E+00  0.24722020050E+04  0.24722020050E+04  0.00000000000E+00 0. -1.
         -1   -1    0    0    0  501 -0.00000000000E+00 -0.00000000000E+00 -0.48625970428E+03  0.48625970428E+03  0.00000000000E+00 0.  1.
         23    2    1    2    0    0  0.70633591388E+03  0.35091250082E+03  0.20980244667E+03  0.82231247336E+03  0.10065153127E+03 0.  0.
        254    2    1    2    0    0 -0.70633591388E+03 -0.35091250082E+03  0.17761398540E+04  0.21361492359E+04  0.88679804383E+03 0.  0.
        -24    2    4    4    0    0 -0.80586702293E+03  0.18003819458E+01  0.11600362680E+04  0.14149987660E+04  0.84335429226E+02 0.  0.
         24    2    4    4    0    0  0.99531109056E+02 -0.35271288276E+03  0.61610358605E+03  0.72115046995E+03  0.78495555453E+02 0.  0.
         13    1    3    3    0    0  0.63329859881E+03  0.34350292064E+03  0.20340502515E+03  0.74862205151E+03  0.00000000000E+00 0.  1.
        -13    1    3    3    0    0  0.73037315067E+02  0.74095801798E+01  0.63974215132E+01  0.73690421852E+02  0.00000000000E+00 0. -1.
          4    1    6    6  502    0  0.16245603110E+02 -0.65492725182E+02  0.62689017831E+02  0.92103906697E+02  0.00000000000E+00 0. -1.
          3    1    5    5  503    0 -0.29886657337E+03  0.41075971520E+02  0.42269690645E+03  0.51930832733E+03  0.00000000000E+00 0. -1.
         -4    1    5    5    0  503 -0.50700044956E+03 -0.39275589574E+02  0.73733936155E+03  0.89569043865E+03  0.00000000000E+00 0.  1.
         -3    1    6    6    0  502  0.83285505946E+02 -0.28722015758E+03  0.55341456822E+03  0.62904656325E+03  0.00000000000E+00 0.  1.
<mgrwt>
<rscale>  0 0.21928358E+04</rscale>
<asrwt>0</asrwt>
<pdfrwt beam="1">  1        1 0.38033876E+00 0.21928358E+04</pdfrwt>
<pdfrwt beam="2">  1       -1 0.74809187E-01 0.21928358E+04</pdfrwt>
<totfact> 0.23224152E+00</totfact>
</mgrwt>
</event>
<event>
12    1  0.1472088E-007  0.3981431E+04  0.7818608E-02  0.8008303E-01
         -2   -1    0    0    0  501 -0.00000000000E+00  0.00000000000E+00  0.15704972168E+04  0.15704972168E+04  0.00000000000E+00 0. -1.
          2   -1    0    0  501    0  0.00000000000E+00 -0.00000000000E+00 -0.25233714679E+04  0.25233714679E+04  0.00000000000E+00 0.  1.
         23    2    1    2    0    0  0.60632368926E+03 -0.15878902005E+04 -0.12998898826E+04  0.21416503812E+04  0.89044613704E+02 0.  0.
        254    2    1    2    0    0 -0.60632368926E+03  0.15878902005E+04  0.34701563149E+03  0.19522183035E+04  0.89538413602E+03 0.  0.
        -24    2    4    4    0    0 -0.28647543729E+03  0.50442398799E+03 -0.28991030623E+03  0.65347197860E+03  0.80410853249E+02 0.  0.
         24    2    4    4    0    0 -0.31984825197E+03  0.10834662125E+04  0.63692593772E+03  0.12987463249E+04  0.69752622768E+02 0.  0.
         11    1    3    3    0    0  0.54580005815E+03 -0.14506564684E+04 -0.12142551057E+04  0.19689381287E+04  0.00000000000E+00 0.  1.
        -11    1    3    3    0    0  0.60523631115E+02 -0.13723373210E+03 -0.85634776940E+02  0.17271225252E+03  0.00000000000E+00 0. -1.
          4    1    6    6  502    0 -0.19699133817E+02  0.51356204767E+02  0.15397757993E+02  0.57119231371E+02  0.00000000000E+00 0. -1.
          3    1    5    5  503    0 -0.21473791155E+03  0.35461901978E+03 -0.24443049625E+03  0.48126218150E+03  0.00000000000E+00 0. -1.
         -4    1    5    5    0  503 -0.71737525746E+02  0.14980496821E+03 -0.45479809987E+02  0.17220979710E+03  0.00000000000E+00 0.  1.
         -3    1    6    6    0  502 -0.30014911815E+03  0.10321100078E+04  0.62152817972E+03  0.12416270936E+04  0.00000000000E+00 0.  1.
<mgrwt>
<rscale>  0 0.39814308E+04</rscale>
<asrwt>0</asrwt>
<pdfrwt beam="1">  1        2 0.38821099E+00 0.39814308E+04</pdfrwt>
<pdfrwt beam="2">  1       -2 0.24161496E+00 0.39814308E+04</pdfrwt>
<totfact> 0.19296241E-01</totfact>
</mgrwt>
</event>
<event>
12    1  0.1472088E-007  0.2822027E+04  0.7818608E-02  0.8296462E-01
         -2   -1    0    0    0  501 -0.00000000000E+00  0.00000000000E+00  0.14633515277E+04  0.14633515277E+04  0.00000000000E+00 0.  1.
          2   -1    0    0  501    0  0.00000000000E+00 -0.00000000000E+00 -0.13605469838E+04  0.13605469838E+04  0.00000000000E+00 0. -1.
         23    2    1    2    0    0 -0.93506951193E+02  0.11734950047E+04 -0.41887711287E+03  0.12530488140E+04  0.94017118323E+02 0.  0.
        254    2    1    2    0    0  0.93506951193E+02 -0.11734950047E+04  0.52168165677E+03  0.15708496975E+04  0.89976827301E+03 0.  0.
        -24    2    4    4    0    0  0.50180596726E+02 -0.12097026071E+04  0.67566272258E+03  0.13887769559E+04  0.79264296657E+02 0.  0.
         24    2    4    4    0    0  0.43326354467E+02  0.36207602395E+02 -0.15398106581E+03  0.18207274156E+03  0.79070545276E+02 0.  0.
         13    1    3    3    0    0 -0.22751190243E+02  0.40390202957E+03 -0.19064850852E+03  0.44721507125E+03  0.00000000000E+00 0.  1.
        -13    1    3    3    0    0 -0.70755760950E+02  0.76959297512E+03 -0.22822860435E+03  0.80583374272E+03  0.00000000000E+00 0. -1.
          2    1    6    6  502    0  0.38608611776E+02  0.40257957506E+02 -0.16233959077E+03  0.17165509249E+03  0.00000000000E+00 0. -1.
          1    1    5    5  503    0  0.38221666726E+02 -0.68666637799E+03  0.42709933745E+03  0.80955880238E+03  0.00000000000E+00 0. -1.
         -2    1    5    5    0  503  0.11958930000E+02 -0.52303622910E+03  0.24856338513E+03  0.57921815353E+03  0.00000000000E+00 0.  1.
         -1    1    6    6    0  502  0.47177426914E+01 -0.40503551111E+01  0.83585249638E+01  0.10417649073E+02  0.00000000000E+00 0.  1.
<mgrwt>
<rscale>  0 0.28220266E+04</rscale>
<asrwt>0</asrwt>
<pdfrwt beam="1">  1        2 0.20931492E+00 0.28220266E+04</pdfrwt>
<pdfrwt beam="2">  1       -2 0.22513101E+00 0.28220266E+04</pdfrwt>
<totfact> 0.12148217E+00</totfact>
</mgrwt>
</event>
<event>
12    1  0.1472088E-007  0.1513611E+04  0.7818608E-02  0.8875452E-01
         -2   -1    0    0    0  501 -0.00000000000E+00  0.00000000000E+00  0.48778277108E+03  0.48778277108E+03  0.00000000000E+00 0.  1.
          2   -1    0    0  501    0  0.00000000000E+00 -0.00000000000E+00 -0.11742006375E+04  0.11742006375E+04  0.00000000000E+00 0. -1.
         23    2    1    2    0    0  0.36670712769E+02 -0.15606417264E+03  0.28746557610E+03  0.34179892389E+03  0.92137287609E+02 0.  0.
        254    2    1    2    0    0 -0.36670712769E+02  0.15606417264E+03 -0.97388344250E+03  0.13201844847E+04  0.87677668015E+03 0.  0.
        -24    2    4    4    0    0 -0.19643223137E+03 -0.86164433857E+02  0.65348629034E+02  0.23832748719E+03  0.80744143140E+02 0.  0.
         24    2    4    4    0    0  0.15976151861E+03  0.24222860650E+03 -0.10392320715E+04  0.10818569975E+04  0.78821468281E+02 0.  0.
         11    1    3    3    0    0  0.31295861704E+02 -0.27080365810E+02  0.13912666643E+03  0.14515166717E+03  0.00000000000E+00 0.  1.
        -11    1    3    3    0    0  0.53748510656E+01 -0.12898380683E+03  0.14833890968E+03  0.19664725671E+03  0.00000000000E+00 0. -1.
          2    1    6    6  502    0  0.12879379891E+03  0.21257618752E+03 -0.96127222588E+03  0.99288507411E+03  0.00000000000E+00 0. -1.
          3    1    5    5  503    0 -0.16288876710E+03 -0.32846109225E+02  0.49205510019E+02  0.17329973905E+03  0.00000000000E+00 0. -1.
         -4    1    5    5    0  503 -0.33543464271E+02 -0.53318324632E+02  0.16143119015E+02  0.65027748142E+02  0.00000000000E+00 0.  1.
         -1    1    6    6    0  502  0.30967719696E+02  0.29652418980E+02 -0.77959845658E+02  0.88971923378E+02  0.00000000000E+00 0.  1.
<mgrwt>
<rscale>  0 0.15136114E+04</rscale>
<asrwt>0</asrwt>
<pdfrwt beam="1">  1        2 0.18064625E+00 0.15136114E+04</pdfrwt>
<pdfrwt beam="2">  1       -2 0.75043504E-01 0.15136114E+04</pdfrwt>
<totfact> 0.30218322E+01</totfact>
</mgrwt>
</event>
<event>
12    1  0.1472088E-007  0.2604223E+04  0.7818608E-02  0.8366768E-01
          2   -1    0    0  501    0  0.00000000000E+00  0.00000000000E+00  0.16566461334E+04  0.16566461334E+04  0.00000000000E+00 0. -1.
         -2   -1    0    0    0  501 -0.00000000000E+00 -0.00000000000E+00 -0.10234499237E+04  0.10234499237E+04  0.00000000000E+00 0.  1.
         23    2    1    2    0    0 -0.53858408606E+03 -0.95474307011E+02 -0.75403636955E+03  0.93590072022E+03  0.90283722016E+02 0.  0.
        254    2    1    2    0    0  0.53858408606E+03  0.95474307011E+02  0.13872325792E+04  0.17441953368E+04  0.90477344294E+03 0.  0.
        -24    2    4    4    0    0  0.23826657528E+03 -0.38244956780E+03  0.41650585261E+03  0.61858433349E+03  0.78299550248E+02 0.  0.
         24    2    4    4    0    0  0.30031751078E+03  0.47792387481E+03  0.97072672663E+03  0.11256110033E+04  0.78025096341E+02 0.  0.
         13    1    3    3    0    0 -0.79857104658E+01 -0.12633909569E+02 -0.88514982453E+01  0.17370557384E+02  0.00000000000E+00 0. -1.
        -13    1    3    3    0    0 -0.53059837559E+03 -0.82840397442E+02 -0.74518487130E+03  0.91853016284E+03  0.00000000000E+00 0.  1.
          4    1    6    6  502    0  0.24534065262E+03  0.33998795055E+03  0.75725864621E+03  0.86557755263E+03  0.00000000000E+00 0. -1.
          3    1    5    5  503    0  0.18855371841E+03 -0.33939333894E+03  0.32760426109E+03  0.50800088103E+03  0.00000000000E+00 0. -1.
         -4    1    5    5    0  503  0.49712856872E+02 -0.43056228859E+02  0.88901591525E+02  0.11058345246E+03  0.00000000000E+00 0.  1.
         -1    1    6    6    0  502  0.54976858152E+02  0.13793592426E+03  0.21346808042E+03  0.26003345071E+03  0.00000000000E+00 0.  1.
<mgrwt>
<rscale>  0 0.26042230E+04</rscale>
<asrwt>0</asrwt>
<pdfrwt beam="1">  1        2 0.25486863E+00 0.26042230E+04</pdfrwt>
<pdfrwt beam="2">  1       -2 0.15745384E+00 0.26042230E+04</pdfrwt>
<totfact> 0.24126281E+00</totfact>
</mgrwt>
</event>
<event>
12    1  0.1472088E-007  0.2346830E+04  0.7818608E-02  0.8459682E-01
          1   -1    0    0  501    0  0.00000000000E+00  0.00000000000E+00  0.11172845928E+04  0.11172845928E+04  0.00000000000E+00 0. -1.
         -1   -1    0    0    0  501 -0.00000000000E+00 -0.00000000000E+00 -0.12323652829E+04  0.12323652829E+04  0.00000000000E+00 0.  1.
         23    2    1    2    0    0 -0.24960892789E+03 -0.41522367681E+03  0.84717541668E+03  0.97974798277E+03  0.86513608451E+02 0.  0.
        254    2    1    2    0    0  0.24960892789E+03  0.41522367681E+03 -0.96225610673E+03  0.13699018930E+04  0.84615546016E+03 0.  0.
        -24    2    4    4    0    0 -0.11571791301E+01  0.53412538700E+03 -0.23588376908E+03  0.58918182704E+03  0.78757886568E+02 0.  0.
         24    2    4    4    0    0  0.25076610702E+03 -0.11890171019E+03 -0.72637233765E+03  0.78072006593E+03  0.69898435748E+02 0.  0.
         11    1    3    3    0    0 -0.16557507219E+03 -0.29579124630E+03  0.66365779740E+03  0.74521757760E+03  0.00000000000E+00 0. -1.
        -11    1    3    3    0    0 -0.84033855705E+02 -0.11943243051E+03  0.18351761929E+03  0.23453040517E+03  0.00000000000E+00 0.  1.
          2    1    6    6  502    0  0.17135422894E+03 -0.49681291358E+02 -0.50427053414E+03  0.53490118161E+03  0.00000000000E+00 0. -1.
          3    1    5    5  503    0 -0.23272684626E+02  0.16729365613E+03 -0.43701202488E+02  0.17446655934E+03  0.00000000000E+00 0. -1.
         -4    1    5    5    0  503  0.22115505496E+02  0.36683173088E+03 -0.19218256659E+03  0.41471526770E+03  0.00000000000E+00 0.  1.
         -1    1    6    6    0  502  0.79411878086E+02 -0.69220418834E+02 -0.22210180351E+03  0.24581888432E+03  0.00000000000E+00 0.  1.
<mgrwt>
<rscale>  0 0.23468300E+04</rscale>
<asrwt>0</asrwt>
<pdfrwt beam="1">  1        1 0.17188994E+00 0.23468300E+04</pdfrwt>
<pdfrwt beam="2">  1       -1 0.18959466E+00 0.23468300E+04</pdfrwt>
<totfact> 0.19702936E+00</totfact>
</mgrwt>
</event>
<event>
12    1  0.1472088E-007  0.1599073E+04  0.7818608E-02  0.8821118E-01
         -2   -1    0    0    0  501 -0.00000000000E+00  0.00000000000E+00  0.49976802050E+03  0.49976802050E+03  0.00000000000E+00 0.  1.
          2   -1    0    0  501    0  0.00000000000E+00 -0.00000000000E+00 -0.12791111788E+04  0.12791111788E+04  0.00000000000E+00 0. -1.
         23    2    1    2    0    0  0.26049340043E+03  0.31214575637E+03  0.12888529709E+03  0.43596630759E+03  0.90351627898E+02 0.  0.
        254    2    1    2    0    0 -0.26049340043E+03 -0.31214575637E+03 -0.90822845542E+03  0.13429128917E+04  0.90180060027E+03 0.  0.
        -24    2    4    4    0    0  0.12019403912E+02 -0.58426786605E+03 -0.47452085607E+03  0.75732136605E+03  0.82778036098E+02 0.  0.
         24    2    4    4    0    0 -0.27251280434E+03  0.27212210968E+03 -0.43370759935E+03  0.58559152568E+03  0.80631768598E+02 0.  0.
         13    1    3    3    0    0  0.25342964881E+03  0.31146294623E+03  0.13783893781E+03  0.42454131312E+03  0.00000000000E+00 0.  1.
        -13    1    3    3    0    0  0.70637516219E+01  0.68281014754E+00 -0.89536407214E+01  0.11424994479E+02  0.00000000000E+00 0. -1.
          4    1    6    6  502    0 -0.14313724921E+03  0.18952175780E+03 -0.29485652933E+03  0.37861212564E+03  0.00000000000E+00 0. -1.
          3    1    5    5  503    0 -0.27007881419E+02 -0.42633578291E+03 -0.33183667230E+03  0.54093179102E+03  0.00000000000E+00 0. -1.
         -4    1    5    5    0  503  0.39027285331E+02 -0.15793208314E+03 -0.14268418376E+03  0.21638957503E+03  0.00000000000E+00 0.  1.
         -3    1    6    6    0  502 -0.12937555513E+03  0.82600351881E+02 -0.13885107002E+03  0.20697940004E+03  0.00000000000E+00 0.  1.
<mgrwt>
<rscale>  0 0.15990733E+04</rscale>
<asrwt>0</asrwt>
<pdfrwt beam="1">  1        2 0.19678633E+00 0.15990733E+04</pdfrwt>
<pdfrwt beam="2">  1       -2 0.76887390E-01 0.15990733E+04</pdfrwt>
<totfact> 0.24638666E+01</totfact>
</mgrwt>
</event>
<event>
12    1  0.1472088E-007  0.3454140E+04  0.7818608E-02  0.8124745E-01
         -2   -1    0    0    0  501 -0.00000000000E+00  0.00000000000E+00  0.87949699542E+03  0.87949699542E+03  0.00000000000E+00 0.  1.
          2   -1    0    0  501    0  0.00000000000E+00 -0.00000000000E+00 -0.33914510417E+04  0.33914510417E+04  0.00000000000E+00 0. -1.
         23    2    1    2    0    0 -0.39763583262E+02 -0.43477070722E+03  0.74071186545E+03  0.86419132855E+03  0.86982034395E+02 0.  0.
        254    2    1    2    0    0  0.39763583262E+02  0.43477070722E+03 -0.32526659117E+04  0.34067567086E+04  0.91408370937E+03 0.  0.
        -24    2    4    4    0    0  0.31130506342E+03  0.44725635353E+03 -0.10486163841E+04  0.11845661476E+04  0.81557027488E+02 0.  0.
         24    2    4    4    0    0 -0.27154148016E+03 -0.12485646307E+02 -0.22040495276E+04  0.22221905610E+04  0.80036880896E+02 0.  0.
         13    1    3    3    0    0 -0.40404601855E+02 -0.73364721549E+02  0.13790638654E+03  0.16134771665E+03  0.00000000000E+00 0. -1.
        -13    1    3    3    0    0  0.64101859319E+00 -0.36140598567E+03  0.60280547891E+03  0.70284361190E+03  0.00000000000E+00 0.  1.
          2    1    6    6  502    0 -0.20612710400E+03 -0.42883564970E+02 -0.17067713773E+04  0.17197080908E+04  0.00000000000E+00 0. -1.
          1    1    5    5  503    0  0.77791271132E+02  0.17520809051E+03 -0.39572261964E+03  0.43971098296E+03  0.00000000000E+00 0. -1.
         -2    1    5    5    0  503  0.23351379229E+03  0.27204826302E+03 -0.65289376445E+03  0.74485516462E+03  0.00000000000E+00 0.  1.
         -1    1    6    6    0  502 -0.65414376161E+02  0.30397918662E+02 -0.49727815034E+03  0.50248247021E+03  0.00000000000E+00 0.  1.
<mgrwt>
<rscale>  0 0.34541401E+04</rscale>
<asrwt>0</asrwt>
<pdfrwt beam="1">  1        2 0.52176170E+00 0.34541401E+04</pdfrwt>
<pdfrwt beam="2">  1       -2 0.13530723E+00 0.34541401E+04</pdfrwt>
<totfact> 0.31217564E-01</totfact>
</mgrwt>
</event>
<event>
12    1  0.1472088E-007  0.1676370E+04  0.7818608E-02  0.8774958E-01
         -1   -1    0    0    0  501 -0.00000000000E+00  0.00000000000E+00  0.90887985572E+03  0.90887985572E+03  0.00000000000E+00 0.  1.
          1   -1    0    0  501    0  0.00000000000E+00 -0.00000000000E+00 -0.77298867466E+03  0.77298867466E+03  0.00000000000E+00 0. -1.
         23    2    1    2    0    0 -0.35945644380E+03  0.38851953110E+03  0.30602941874E+03  0.61820993742E+03  0.91504975637E+02 0.  0.
        254    2    1    2    0    0  0.35945644380E+03 -0.38851953110E+03 -0.17013823768E+03  0.10636585930E+04  0.90678896190E+03 0.  0.
        -24    2    4    4    0    0  0.36808547198E+03 -0.64626549043E+03 -0.23817358914E+03  0.78501913270E+03  0.79889807546E+02 0.  0.
         24    2    4    4    0    0 -0.86290281813E+01  0.25774595933E+03  0.68035351460E+02  0.27863946025E+03  0.80645521162E+02 0.  0.
         13    1    3    3    0    0 -0.53070839341E+02  0.63279198939E+02  0.89167444887E+02  0.12153848870E+03  0.00000000000E+00 0.  1.
        -13    1    3    3    0    0 -0.30638560445E+03  0.32524033216E+03  0.21686197385E+03  0.49667144873E+03  0.00000000000E+00 0. -1.
          4    1    6    6  502    0 -0.12399694196E+02  0.26231669641E+03  0.70965475182E+02  0.27202922692E+03  0.00000000000E+00 0. -1.
          3    1    5    5  503    0  0.14780436639E+03 -0.33331496742E+03 -0.99277020259E+02  0.37789009643E+03  0.00000000000E+00 0. -1.
         -4    1    5    5    0  503  0.22028110558E+03 -0.31295052301E+03 -0.13889656888E+03  0.40712903627E+03  0.00000000000E+00 0.  1.
         -3    1    6    6    0  502  0.37706660147E+01 -0.45707370808E+01 -0.29301237225E+01  0.66102333306E+01  0.00000000000E+00 0.  1.
<mgrwt>
<rscale>  0 0.16763697E+04</rscale>
<asrwt>0</asrwt>
<pdfrwt beam="1">  1        1 0.11892134E+00 0.16763697E+04</pdfrwt>
<pdfrwt beam="2">  1       -1 0.13982767E+00 0.16763697E+04</pdfrwt>
<totfact> 0.93661268E+00</totfact>
</mgrwt>
</event>
<event>
12    1  0.1472088E-007  0.2555440E+04  0.7818608E-02  0.8383497E-01
         -2   -1    0    0    0  501 -0.00000000000E+00  0.00000000000E+00  0.58956452946E+03  0.58956452946E+03  0.00000000000E+00 0.  1.
          2   -1    0    0  501    0  0.00000000000E+00 -0.00000000000E+00 -0.27691084137E+04  0.27691084137E+04  0.00000000000E+00 0. -1.
         23    2    1    2    0    0  0.16087120145E+03  0.83723385582E+03 -0.19074709407E+04  0.20913911628E+04  0.92906048383E+02 0.  0.
        254    2    1    2    0    0 -0.16087120145E+03 -0.83723385582E+03 -0.27207294361E+03  0.12672817803E+04  0.89729557634E+03 0.  0.
        -24    2    4    4    0    0 -0.10726208655E+02 -0.38558151147E+03 -0.57580709058E+03  0.69761338746E+03  0.79514019271E+02 0.  0.
         24    2    4    4    0    0 -0.15014499279E+03 -0.45165234435E+03  0.30373414698E+03  0.56966839287E+03  0.75725073630E+02 0.  0.
         13    1    3    3    0    0  0.34425163864E+02  0.53166122672E+02 -0.13453004759E+03  0.14869452650E+03  0.00000000000E+00 0.  1.
        -13    1    3    3    0    0  0.12644603759E+03  0.78406773315E+03 -0.17729408931E+04  0.19426966363E+04  0.00000000000E+00 0. -1.
          2    1    6    6  502    0 -0.88723211852E+02 -0.25912499163E+03  0.21837448477E+03  0.35029271361E+03  0.00000000000E+00 0. -1.
          1    1    5    5  503    0  0.13696123552E+02 -0.35217486316E+03 -0.51323815220E+03  0.62259787899E+03  0.00000000000E+00 0. -1.
         -2    1    5    5    0  503 -0.24422332207E+02 -0.33406648308E+02 -0.62568938380E+02  0.75015508474E+02  0.00000000000E+00 0.  1.
         -1    1    6    6    0  502 -0.61421780942E+02 -0.19252735272E+03  0.85359662209E+02  0.21937567926E+03  0.00000000000E+00 0.  1.
<mgrwt>
<rscale>  0 0.25554398E+04</rscale>
<asrwt>0</asrwt>
<pdfrwt beam="1">  1        2 0.42601669E+00 0.25554398E+04</pdfrwt>
<pdfrwt beam="2">  1       -2 0.90702234E-01 0.25554398E+04</pdfrwt>
<totfact> 0.22242245E+00</totfact>
</mgrwt>
</event>
<event>
12    1  0.1472088E-007  0.1220133E+04  0.7818608E-02  0.9095414E-01
          2   -1    0    0  501    0  0.00000000000E+00  0.00000000000E+00  0.26783852319E+04  0.26783852319E+04  0.00000000000E+00 0. -1.
         -2   -1    0    0    0  501 -0.00000000000E+00 -0.00000000000E+00 -0.13895738473E+03  0.13895738473E+03  0.00000000000E+00 0.  1.
         23    2    1    2    0    0  0.81414460666E+01 -0.98095309223E+01 -0.27829899815E+02  0.97796586082E+02  0.92882500422E+02 0.  0.
        254    2    1    2    0    0 -0.81414460666E+01  0.98095309223E+01  0.25672577470E+04  0.27195460305E+04  0.89719326949E+03 0.  0.
        -24    2    4    4    0    0  0.33814833476E+03 -0.36937906909E+02  0.43826343606E+03  0.56059341520E+03  0.80507344434E+02 0.  0.
         24    2    4    4    0    0 -0.34628978083E+03  0.46747437831E+02  0.21289943109E+04  0.21589526153E+04  0.79735087366E+02 0.  0.
         13    1    3    3    0    0 -0.13788798098E+02 -0.37838741110E+02 -0.43173371971E+02  0.59041013958E+02  0.00000000000E+00 0. -1.
        -13    1    3    3    0    0  0.21930244164E+02  0.28029210188E+02  0.15343472156E+02  0.38755572124E+02  0.00000000000E+00 0.  1.
          2    1    6    6  502    0 -0.35068129314E+03  0.47691496681E+02  0.21041639408E+04  0.21337192266E+04  0.00000000000E+00 0. -1.
          3    1    5    5  503    0  0.32490225849E+03 -0.47209446033E+02  0.39164910036E+03  0.51105697058E+03  0.00000000000E+00 0. -1.
         -4    1    5    5    0  503  0.13246076272E+02  0.10271539124E+02  0.46614335701E+02  0.49536444618E+02  0.00000000000E+00 0.  1.
         -1    1    6    6    0  502  0.43915123096E+01 -0.94405885030E+00  0.24830370134E+02  0.25233388763E+02  0.00000000000E+00 0.  1.
<mgrwt>
<rscale>  0 0.12201334E+04</rscale>
<asrwt>0</asrwt>
<pdfrwt beam="1">  1        2 0.41205923E+00 0.12201334E+04</pdfrwt>
<pdfrwt beam="2">  1       -2 0.21378061E-01 0.12201334E+04</pdfrwt>
<totfact> 0.51652529E+01</totfact>
</mgrwt>
</event>
<event>
12    1  0.1472088E-007  0.1677090E+04  0.7818608E-02  0.8774540E-01
         -2   -1    0    0    0  501 -0.00000000000E+00  0.00000000000E+00  0.87842938260E+03  0.87842938260E+03  0.00000000000E+00 0.  1.
          2   -1    0    0  501    0  0.00000000000E+00 -0.00000000000E+00 -0.80047110333E+03  0.80047110333E+03  0.00000000000E+00 0. -1.
         23    2    1    2    0    0 -0.47691940249E+03  0.24322452855E+03  0.26474182437E+03  0.60438999008E+03  0.92675448580E+02 0.  0.
        254    2    1    2    0    0  0.47691940249E+03 -0.24322452855E+03 -0.18678354510E+03  0.10745104959E+04  0.91272910834E+03 0.  0.
        -24    2    4    4    0    0  0.47330665451E+03  0.26197383442E+03 -0.88367444482E+02  0.55354624901E+03  0.77169718294E+02 0.  0.
         24    2    4    4    0    0  0.36127479802E+01 -0.50519836297E+03 -0.98416100618E+02  0.52096424685E+03  0.80495836751E+02 0.  0.
         11    1    3    3    0    0 -0.46052591782E+03  0.21833384605E+03  0.26530888087E+03  0.57458036130E+03  0.00000000000E+00 0.  1.
        -11    1    3    3    0    0 -0.16393484671E+02  0.24890682498E+02 -0.56705650083E+00  0.29809628779E+02  0.00000000000E+00 0. -1.
          4    1    6    6  502    0 -0.64857517808E+01 -0.16562797545E+03 -0.70415529941E+02  0.18009174907E+03  0.00000000000E+00 0. -1.
          1    1    5    5  503    0  0.35589186340E+03  0.18170493438E+03 -0.33125390657E+02  0.40096507718E+03  0.00000000000E+00 0. -1.
         -2    1    5    5    0  503  0.11741479111E+03  0.80268900042E+02 -0.55242053826E+02  0.15258117183E+03  0.00000000000E+00 0.  1.
         -3    1    6    6    0  502  0.10098499761E+02 -0.33957038752E+03 -0.28000570677E+02  0.34087249777E+03  0.00000000000E+00 0.  1.
<mgrwt>
<rscale>  0 0.16770895E+04</rscale>
<asrwt>0</asrwt>
<pdfrwt beam="1">  1        2 0.12314940E+00 0.16770895E+04</pdfrwt>
<pdfrwt beam="2">  1       -2 0.13514298E+00 0.16770895E+04</pdfrwt>
<totfact> 0.12905798E+01</totfact>
</mgrwt>
</event>
<event>
12    1  0.1472088E-007  0.1314687E+04  0.7818608E-02  0.9017999E-01
         -2   -1    0    0    0  501 -0.00000000000E+00  0.00000000000E+00  0.53578698728E+03  0.53578698728E+03  0.00000000000E+00 0.  1.
          2   -1    0    0  501    0  0.00000000000E+00 -0.00000000000E+00 -0.80647802694E+03  0.80647802694E+03  0.00000000000E+00 0. -1.
         23    2    1    2    0    0  0.16627841234E+03 -0.20814163150E+03 -0.29074891033E+03  0.40517287126E+03  0.93052015413E+02 0.  0.
        254    2    1    2    0    0 -0.16627841234E+03  0.20814163150E+03  0.20057870667E+02  0.93709214296E+03  0.89820260357E+03 0.  0.
        -24    2    4    4    0    0 -0.36075173883E+03  0.45083677063E+03  0.13037027588E+03  0.59743968469E+03  0.80883602720E+02 0.  0.
         24    2    4    4    0    0  0.19447332649E+03 -0.24269513913E+03 -0.11031240521E+03  0.33965245827E+03  0.80462167463E+02 0.  0.
         11    1    3    3    0    0  0.21041527746E+02 -0.47996048236E+02 -0.14485004607E+02  0.54370781626E+02  0.00000000000E+00 0.  1.
        -11    1    3    3    0    0  0.14523688460E+03 -0.16014558326E+03 -0.27626390572E+03  0.35080208963E+03  0.00000000000E+00 0. -1.
          2    1    6    6  502    0  0.15974576206E+03 -0.18793588974E+03 -0.11964521223E+03  0.27414154001E+03  0.00000000000E+00 0. -1.
          3    1    5    5  503    0 -0.26090289863E+03  0.32835897357E+03  0.13113846939E+03  0.43941692752E+03  0.00000000000E+00 0. -1.
         -4    1    5    5    0  503 -0.99848840205E+02  0.12247779706E+03 -0.76819351291E+00  0.15802275717E+03  0.00000000000E+00 0.  1.
         -1    1    6    6    0  502  0.34727564428E+02 -0.54759249394E+02  0.93328070149E+01  0.65510918266E+02  0.00000000000E+00 0.  1.
<mgrwt>
<rscale>  0 0.13146869E+04</rscale>
<asrwt>0</asrwt>
<pdfrwt beam="1">  1        2 0.12407354E+00 0.13146869E+04</pdfrwt>
<pdfrwt beam="2">  1       -2 0.82428768E-01 0.13146869E+04</pdfrwt>
<totfact> 0.43128707E+01</totfact>
</mgrwt>
</event>
<event>
12    1  0.1472088E-007  0.2619068E+04  0.7818608E-02  0.8361753E-01
          2   -1    0    0  501    0  0.00000000000E+00  0.00000000000E+00  0.32573764833E+04  0.32573764833E+04  0.00000000000E+00 0. -1.
         -2   -1    0    0    0  501 -0.00000000000E+00 -0.00000000000E+00 -0.52646011068E+03  0.52646011068E+03  0.00000000000E+00 0.  1.
         23    2    1    2    0    0  0.62121569776E+03  0.87623955784E+03  0.53544189365E+03  0.12034026847E+04  0.88177629192E+02 0.  0.
        254    2    1    2    0    0 -0.62121569776E+03 -0.87623955784E+03  0.21954744790E+04  0.25804339093E+04  0.82754230485E+03 0.  0.
        -24    2    4    4    0    0 -0.51330781659E+03 -0.82255184864E+03  0.10719587734E+04  0.14476455010E+04  0.80656223943E+02 0.  0.
         24    2    4    4    0    0 -0.10790788117E+03 -0.53687709207E+02  0.11235157056E+04  0.11327884083E+04  0.79972221470E+02 0.  0.
         11    1    3    3    0    0  0.57122157303E+03  0.83396124507E+03  0.48747211089E+03  0.11222363845E+04  0.00000000000E+00 0.  1.
        -11    1    3    3    0    0  0.49994124738E+02  0.42278312779E+02  0.47969782762E+02  0.81166300260E+02  0.00000000000E+00 0. -1.
          4    1    6    6  502    0 -0.37791083341E+02  0.36415638274E+00  0.13130130056E+03  0.13663209769E+03  0.00000000000E+00 0. -1.
          3    1    5    5  503    0 -0.32713911129E+03 -0.58511025772E+03  0.71093600309E+03  0.97714073312E+03  0.00000000000E+00 0. -1.
         -4    1    5    5    0  503 -0.18616870530E+03 -0.23744159091E+03  0.36102277028E+03  0.47050476787E+03  0.00000000000E+00 0.  1.
         -3    1    6    6    0  502 -0.70116797829E+02 -0.54051865590E+02  0.99221440506E+03  0.99615631058E+03  0.00000000000E+00 0.  1.
<mgrwt>
<rscale>  0 0.26190676E+04</rscale>
<asrwt>0</asrwt>
<pdfrwt beam="1">  1        2 0.50113483E+00 0.26190676E+04</pdfrwt>
<pdfrwt beam="2">  1       -2 0.80993865E-01 0.26190676E+04</pdfrwt>
<totfact> 0.14118225E+00</totfact>
</mgrwt>
</event>
<event>
12    1  0.1472088E-007  0.1035514E+04  0.7818608E-02  0.9270429E-01
          2   -1    0    0  501    0  0.00000000000E+00  0.00000000000E+00  0.32659422763E+04  0.32659422763E+04  0.00000000000E+00 0. -1.
         -2   -1    0    0    0  501 -0.00000000000E+00 -0.00000000000E+00 -0.82081148036E+02  0.82081148036E+02  0.00000000000E+00 0.  1.
         23    2    1    2    0    0 -0.44048222906E+02  0.75625335359E+02  0.32259363267E+03  0.34621868941E+03  0.90229107106E+02 0.  0.
        254    2    1    2    0    0  0.44048222906E+02 -0.75625335359E+02  0.28612674956E+04  0.30018047349E+04  0.90350459212E+03 0.  0.
        -24    2    4    4    0    0 -0.10518492109E+03 -0.36862833000E+03  0.60737432087E+03  0.72263037336E+03  0.79626487684E+02 0.  0.
         24    2    4    4    0    0  0.14923314400E+03  0.29300299464E+03  0.22538931747E+04  0.22791743616E+04  0.80498703293E+02 0.  0.
         11    1    3    3    0    0  0.12667958924E+02 -0.17325613077E+01  0.38474793439E+01  0.13352230125E+02  0.00000000000E+00 0.  1.
        -11    1    3    3    0    0 -0.56716181831E+02  0.77357896666E+02  0.31874615332E+03  0.33286645928E+03  0.00000000000E+00 0. -1.
          4    1    6    6  502    0  0.45670025954E+01  0.52557850385E+02  0.23337477108E+03  0.23926338819E+03  0.00000000000E+00 0. -1.
          3    1    5    5  503    0 -0.76484295035E+02 -0.12743614881E+03  0.23211960120E+03  0.27562534113E+03  0.00000000000E+00 0. -1.
         -4    1    5    5    0  503 -0.28700626059E+02 -0.24119218119E+03  0.37525471967E+03  0.44700503223E+03  0.00000000000E+00 0.  1.
         -3    1    6    6    0  502  0.14466614140E+03  0.24044514425E+03  0.20205184036E+04  0.20399109734E+04  0.00000000000E+00 0.  1.
<mgrwt>
<rscale>  0 0.10355140E+04</rscale>
<asrwt>0</asrwt>
<pdfrwt beam="1">  1        2 0.50245256E+00 0.10355140E+04</pdfrwt>
<pdfrwt beam="2">  1       -2 0.12627871E-01 0.10355140E+04</pdfrwt>
<totfact> 0.56452522E+01</totfact>
</mgrwt>
</event>
<event>
12    1  0.1472088E-007  0.1936533E+04  0.7818608E-02  0.8636882E-01
         -2   -1    0    0    0  501 -0.00000000000E+00  0.00000000000E+00  0.86994782935E+03  0.86994782935E+03  0.00000000000E+00 0.  1.
          2   -1    0    0  501    0  0.00000000000E+00 -0.00000000000E+00 -0.10776968753E+04  0.10776968753E+04  0.00000000000E+00 0. -1.
         23    2    1    2    0    0  0.70503413376E+03  0.20679335578E+03  0.10179254920E+03  0.74783862815E+03  0.95206454135E+02 0.  0.
        254    2    1    2    0    0 -0.70503413376E+03 -0.20679335578E+03 -0.30954159517E+03  0.11998060765E+04  0.89659466891E+03 0.  0.
        -24    2    4    4    0    0 -0.80808903876E+03  0.37474309047E+02 -0.40340738294E+03  0.90745429764E+03  0.79520860764E+02 0.  0.
         24    2    4    4    0    0  0.10305490499E+03 -0.24426766483E+03  0.93865787777E+02  0.29235177887E+03  0.79823373580E+02 0.  0.
         11    1    3    3    0    0  0.29463922534E+03  0.10015588550E+03  0.88792286626E+02  0.32361635415E+03  0.00000000000E+00 0.  1.
        -11    1    3    3    0    0  0.41039490843E+03  0.10663747028E+03  0.13000262577E+02  0.42422227400E+03  0.00000000000E+00 0. -1.
          2    1    6    6  502    0  0.44495227052E+02 -0.15462978640E+03  0.91823631965E+02  0.18526137066E+03  0.00000000000E+00 0. -1.
          3    1    5    5  503    0 -0.36664314028E+03  0.24262205475E+02 -0.22683185197E+03  0.43182002733E+03  0.00000000000E+00 0. -1.
         -4    1    5    5    0  503 -0.44144589847E+03  0.13212103572E+02 -0.17657553097E+03  0.47563427031E+03  0.00000000000E+00 0.  1.
         -1    1    6    6    0  502  0.58559677941E+02 -0.89637878431E+02  0.20421558115E+01  0.10709040821E+03  0.00000000000E+00 0.  1.
<mgrwt>
<rscale>  0 0.19365330E+04</rscale>
<asrwt>0</asrwt>
<pdfrwt beam="1">  1        2 0.16579952E+00 0.19365330E+04</pdfrwt>
<pdfrwt beam="2">  1       -2 0.13383813E+00 0.19365330E+04</pdfrwt>
<totfact> 0.84715017E+00</totfact>
</mgrwt>
</event>
<event>
12    1  0.1472088E-007  0.1758115E+04  0.7818608E-02  0.8728896E-01
          1   -1    0    0  501    0  0.00000000000E+00  0.00000000000E+00  0.83780164899E+03  0.83780164899E+03  0.00000000000E+00 0. -1.
         -1   -1    0    0    0  501 -0.00000000000E+00 -0.00000000000E+00 -0.92234474644E+03  0.92234474644E+03  0.00000000000E+00 0.  1.
         23    2    1    2    0    0 -0.35258513451E+03 -0.38884832392E+02 -0.56024651483E+03  0.66944267062E+03  0.91918575954E+02 0.  0.
        254    2    1    2    0    0  0.35258513451E+03  0.38884832392E+02  0.47570341739E+03  0.10907037248E+04  0.91515712680E+03 0.  0.
        -24    2    4    4    0    0  0.57581131674E+03 -0.88211176601E+02  0.52319229599E+02  0.58899051895E+03  0.69517231356E+02 0.  0.
         24    2    4    4    0    0 -0.22322618224E+03  0.12709600899E+03  0.42338418779E+03  0.50171320586E+03  0.80490039939E+02 0.  0.
         13    1    3    3    0    0 -0.61073740895E+02 -0.24809937580E+02 -0.16847292187E+03  0.18091064157E+03  0.00000000000E+00 0. -1.
        -13    1    3    3    0    0 -0.29151139361E+03 -0.14074894813E+02 -0.39177359296E+03  0.48853202905E+03  0.00000000000E+00 0.  1.
          4    1    6    6  502    0 -0.55425755741E+02 -0.47531860674E+01  0.94574976208E+02  0.10972252869E+03  0.00000000000E+00 0. -1.
          1    1    5    5  503    0  0.32898979994E+02  0.80008063140E+01  0.12828069342E+02  0.36206562242E+02  0.00000000000E+00 0. -1.
         -2    1    5    5    0  503  0.54291233675E+03 -0.96211982915E+02  0.39491160256E+02  0.55278395670E+03  0.00000000000E+00 0.  1.
         -3    1    6    6    0  502 -0.16780042650E+03  0.13184919506E+03  0.32880921158E+03  0.39199067717E+03  0.00000000000E+00 0.  1.
<mgrwt>
<rscale>  0 0.17581148E+04</rscale>
<asrwt>0</asrwt>
<pdfrwt beam="1">  1        1 0.12889256E+00 0.17581148E+04</pdfrwt>
<pdfrwt beam="2">  1       -1 0.14189919E+00 0.17581148E+04</pdfrwt>
<totfact> 0.78592111E+00</totfact>
</mgrwt>
</event>
<event>
12    1  0.1472088E-007  0.2073784E+04  0.7818608E-02  0.8572881E-01
          2   -1    0    0  501    0  0.00000000000E+00  0.00000000000E+00  0.18720310727E+04  0.18720310727E+04  0.00000000000E+00 0. -1.
         -2   -1    0    0    0  501 -0.00000000000E+00 -0.00000000000E+00 -0.57431981641E+03  0.57431981641E+03  0.00000000000E+00 0.  1.
         23    2    1    2    0    0 -0.27741990521E+03 -0.23617721455E+03 -0.36534651120E+03  0.52386371079E+03  0.90629099976E+02 0.  0.
        254    2    1    2    0    0  0.27741990521E+03  0.23617721455E+03  0.16630577675E+04  0.19224871784E+04  0.89300298561E+03 0.  0.
        -24    2    4    4    0    0 -0.23580555836E+03  0.33545162549E+03  0.55458808101E+03  0.69441043040E+03  0.80658860980E+02 0.  0.
         24    2    4    4    0    0  0.51322546357E+03 -0.99274410938E+02  0.11084696865E+04  0.12280767480E+04  0.78814134483E+02 0.  0.
         11    1    3    3    0    0 -0.19076134576E+03 -0.12760943160E+03 -0.27485176233E+03  0.35807478175E+03  0.00000000000E+00 0. -1.
        -11    1    3    3    0    0 -0.86658559444E+02 -0.10856778295E+03 -0.90494748871E+02  0.16578892905E+03  0.00000000000E+00 0.  1.
          2    1    6    6  502    0  0.15128125731E+03 -0.62661281059E+02  0.30812672087E+03  0.34893341925E+03  0.00000000000E+00 0. -1.
          3    1    5    5  503    0 -0.15259867571E+03  0.26472753648E+03  0.44407384985E+03  0.53904416194E+03  0.00000000000E+00 0. -1.
         -4    1    5    5    0  503 -0.83206882656E+02  0.70724089010E+02  0.11051423115E+03  0.15536626846E+03  0.00000000000E+00 0.  1.
         -1    1    6    6    0  502  0.36194420626E+03 -0.36613129879E+02  0.80034296566E+03  0.87914332870E+03  0.00000000000E+00 0.  1.
<mgrwt>
<rscale>  0 0.20737835E+04</rscale>
<asrwt>0</asrwt>
<pdfrwt beam="1">  1        2 0.28800478E+00 0.20737835E+04</pdfrwt>
<pdfrwt beam="2">  1       -2 0.88356896E-01 0.20737835E+04</pdfrwt>
<totfact> 0.80135530E+00</totfact>
</mgrwt>
</event>
<event>
12    1  0.1802974E-007  0.1958155E+04  0.7818608E-02  0.8626439E-01
         -1   -1    0    0    0  501 -0.00000000000E+00  0.00000000000E+00  0.84472168462E+03  0.84472168462E+03  0.00000000000E+00 0.  1.
          1   -1    0    0  501    0  0.00000000000E+00 -0.00000000000E+00 -0.11348025933E+04  0.11348025933E+04  0.00000000000E+00 0. -1.
         23    2    1    2    0    0 -0.38107080640E+03 -0.41634341128E+02  0.55979941626E+03  0.68480647077E+03  0.92930824342E+02 0.  0.
        254    2    1    2    0    0  0.38107080640E+03  0.41634341128E+02 -0.84988032498E+03  0.12947178072E+04  0.89835920188E+03 0.  0.
        -24    2    4    4    0    0  0.25501596246E+03  0.14739337600E+03 -0.10078723474E+04  0.10529746631E+04  0.78683060975E+02 0.  0.
         24    2    4    4    0    0  0.12605484394E+03 -0.10575903488E+03  0.15799202243E+03  0.24174314408E+03  0.80021693434E+02 0.  0.
         11    1    3    3    0    0 -0.17824188490E+02  0.19029087292E+02  0.33454783732E+02  0.42414978641E+02  0.00000000000E+00 0. -1.
        -11    1    3    3    0    0 -0.36324661791E+03 -0.60663428420E+02  0.52634463252E+03  0.64239149213E+03  0.00000000000E+00 0.  1.
          4    1    6    6  502    0  0.12800321542E+03 -0.10925355430E+03  0.16369903067E+03  0.23477336929E+03  0.00000000000E+00 0. -1.
          1    1    5    5  503    0  0.15621853108E+03  0.12729194318E+03 -0.73300753793E+03  0.76020228815E+03  0.00000000000E+00 0. -1.
         -2    1    5    5    0  503  0.98797431378E+02  0.20101432821E+02 -0.27486480948E+03  0.29277237495E+03  0.00000000000E+00 0.  1.
         -3    1    6    6    0  502 -0.19483714738E+01  0.34945194286E+01 -0.57070082486E+01  0.69697747874E+01  0.00000000000E+00 0.  1.
<mgrwt>
<rscale>  0 0.19581546E+04</rscale>
<asrwt>0</asrwt>
<pdfrwt beam="1">  1        1 0.17458501E+00 0.19581546E+04</pdfrwt>
<pdfrwt beam="2">  1       -1 0.12995718E+00 0.19581546E+04</pdfrwt>
<totfact> 0.56423397E+00</totfact>
</mgrwt>
</event>
<event>
12    1  0.1472088E-007  0.1532408E+04  0.7818608E-02  0.8863183E-01
         -1   -1    0    0    0  501 -0.00000000000E+00  0.00000000000E+00  0.68156084220E+03  0.68156084220E+03  0.00000000000E+00 0.  1.
          1   -1    0    0  501    0  0.00000000000E+00 -0.00000000000E+00 -0.86135954222E+03  0.86135954222E+03  0.00000000000E+00 0. -1.
         23    2    1    2    0    0 -0.34264244057E+02 -0.40859951528E+03  0.20345176628E+03  0.46663479965E+03  0.90707291501E+02 0.  0.
        254    2    1    2    0    0  0.34264244057E+02  0.40859951528E+03 -0.38325046631E+03  0.10762855848E+04  0.91835839287E+03 0.  0.
        -24    2    4    4    0    0  0.37753040955E+03  0.20556145368E+02  0.57928917502E+02  0.39074102077E+03  0.79818673137E+02 0.  0.
         24    2    4    4    0    0 -0.34326616549E+03  0.38804336991E+03 -0.44117938381E+03  0.68554456400E+03  0.83203264541E+02 0.  0.
         13    1    3    3    0    0  0.90061270020E+01 -0.12517230580E+03  0.10456541352E+03  0.16334975411E+03  0.00000000000E+00 0. -1.
        -13    1    3    3    0    0 -0.43270371059E+02 -0.28342720948E+03  0.98886352761E+02  0.30328504554E+03  0.00000000000E+00 0.  1.
          4    1    6    6  502    0 -0.29034934094E+03  0.36571252803E+03 -0.40022723573E+03  0.61500425459E+03  0.00000000000E+00 0. -1.
          3    1    5    5  503    0  0.29350965709E+03  0.46692206713E+02  0.31496362952E+02  0.29886468820E+03  0.00000000000E+00 0. -1.
         -4    1    5    5    0  503  0.84020752462E+02 -0.26136061345E+02  0.26432554551E+02  0.91876332572E+02  0.00000000000E+00 0.  1.
         -3    1    6    6    0  502 -0.52916824550E+02  0.22330841880E+02 -0.40952148079E+02  0.70540309411E+02  0.00000000000E+00 0.  1.
<mgrwt>
<rscale>  0 0.15324085E+04</rscale>
<asrwt>0</asrwt>
<pdfrwt beam="1">  1        1 0.13251685E+00 0.15324085E+04</pdfrwt>
<pdfrwt beam="2">  1       -1 0.10485551E+00 0.15324085E+04</pdfrwt>
<totfact> 0.16149531E+01</totfact>
</mgrwt>
</event>
<event>
12    1  0.1472088E-007  0.1543161E+04  0.7818608E-02  0.8856248E-01
         -2   -1    0    0    0  501 -0.00000000000E+00  0.00000000000E+00  0.34353506321E+03  0.34353506321E+03  0.00000000000E+00 0. -1.
          2   -1    0    0  501    0  0.00000000000E+00 -0.00000000000E+00 -0.17329724565E+04  0.17329724565E+04  0.00000000000E+00 0.  1.
         23    2    1    2    0    0  0.10041172862E+03 -0.41269307294E+03 -0.82524494273E+03  0.93221960236E+03  0.87212864978E+02 0.  0.
        254    2    1    2    0    0 -0.10041172862E+03  0.41269307294E+03 -0.56419245054E+03  0.11442879173E+04  0.90037971369E+03 0.  0.
        -24    2    4    4    0    0 -0.15991971493E+03  0.86365695913E+02  0.21593067278E+03  0.29291888813E+03  0.78371365466E+02 0.  0.
         24    2    4    4    0    0  0.59507986311E+02  0.32632737703E+03 -0.78012312332E+03  0.85136902921E+03  0.78780574514E+02 0.  0.
         13    1    3    3    0    0  0.30233859933E+02 -0.75986568173E+02 -0.97247747661E+02  0.12706364254E+03  0.00000000000E+00 0. -1.
        -13    1    3    3    0    0  0.70177868682E+02 -0.33670650477E+03 -0.72799719507E+03  0.80515595982E+03  0.00000000000E+00 0.  1.
          4    1    6    6  502    0  0.49385826737E+02  0.26152327723E+03 -0.69275558556E+03  0.74212107216E+03  0.00000000000E+00 0. -1.
          3    1    5    5  503    0 -0.57388211109E+02  0.75471737626E+02  0.10222709937E+03  0.13942657494E+03  0.00000000000E+00 0. -1.
         -4    1    5    5    0  503 -0.10253150382E+03  0.10893958287E+02  0.11370357341E+03  0.15349231319E+03  0.00000000000E+00 0.  1.
         -3    1    6    6    0  502  0.10122159574E+02  0.64804099799E+02 -0.87367537758E+02  0.10924795705E+03  0.00000000000E+00 0.  1.
<mgrwt>
<rscale>  0 0.15431614E+04</rscale>
<asrwt>0</asrwt>
<pdfrwt beam="1">  1        2 0.26661115E+00 0.15431614E+04</pdfrwt>
<pdfrwt beam="2">  1       -2 0.52851548E-01 0.15431614E+04</pdfrwt>
<totfact> 0.30570177E+01</totfact>
</mgrwt>
</event>
<event>
12    1  0.1472088E-007  0.3644095E+04  0.7818608E-02  0.8080465E-01
          2   -1    0    0  501    0  0.00000000000E+00  0.00000000000E+00  0.19026416298E+04  0.19026416298E+04  0.00000000000E+00 0. -1.
         -2   -1    0    0    0  501 -0.00000000000E+00 -0.00000000000E+00 -0.17448673019E+04  0.17448673019E+04  0.00000000000E+00 0.  1.
         23    2    1    2    0    0 -0.27660769159E+03 -0.16611689848E+04  0.36110175741E+03  0.17246295249E+04  0.89209348834E+02 0.  0.
        254    2    1    2    0    0  0.27660769159E+03  0.16611689848E+04 -0.20332742945E+03  0.19228794069E+04  0.90560971662E+03 0.  0.
        -24    2    4    4    0    0 -0.22640362965E+03  0.86404938726E+03 -0.35599531613E+03  0.96470591761E+03  0.78005738371E+02 0.  0.
         24    2    4    4    0    0  0.50301132124E+03  0.79711959750E+03  0.15266788668E+03  0.95817348926E+03  0.79805450256E+02 0.  0.
         11    1    3    3    0    0 -0.18791133617E+03 -0.10554213906E+04  0.18758091470E+03  0.10883067497E+04  0.00000000000E+00 0. -1.
        -11    1    3    3    0    0 -0.88696355417E+02 -0.60574759416E+03  0.17352084271E+03  0.63632277513E+03  0.00000000000E+00 0.  1.
          2    1    6    6  502    0  0.38270503255E+02  0.10043127328E+03  0.35837078055E+01  0.10753564541E+03  0.00000000000E+00 0. -1.
          1    1    5    5  503    0 -0.84891223954E+01  0.81629801348E+02 -0.53686522853E+02  0.98070038255E+02  0.00000000000E+00 0. -1.
         -2    1    5    5    0  503 -0.21791450726E+03  0.78241958591E+03 -0.30230879327E+03  0.86663587935E+03  0.00000000000E+00 0.  1.
         -1    1    6    6    0  502  0.46474081798E+03  0.69668832421E+03  0.14908417887E+03  0.85063784385E+03  0.00000000000E+00 0.  1.
<mgrwt>
<rscale>  0 0.36440950E+04</rscale>
<asrwt>0</asrwt>
<pdfrwt beam="1">  1        2 0.29271410E+00 0.36440950E+04</pdfrwt>
<pdfrwt beam="2">  1       -2 0.26844112E+00 0.36440950E+04</pdfrwt>
<totfact> 0.30448998E-01</totfact>
</mgrwt>
</event>
<event>
12    1  0.1472088E-007  0.2002939E+04  0.7818608E-02  0.8605248E-01
         -2   -1    0    0    0  501 -0.00000000000E+00  0.00000000000E+00  0.91550948265E+03  0.91550948265E+03  0.00000000000E+00 0. -1.
          2   -1    0    0  501    0  0.00000000000E+00 -0.00000000000E+00 -0.10955001625E+04  0.10955001625E+04  0.00000000000E+00 0.  1.
         23    2    1    2    0    0  0.46893964456E+03  0.27301033478E+03  0.53282699824E+03  0.76577845742E+03  0.89849889609E+02 0.  0.
        254    2    1    2    0    0 -0.46893964456E+03 -0.27301033478E+03 -0.71281767809E+03  0.12452311877E+04  0.86490036163E+03 0.  0.
        -24    2    4    4    0    0 -0.27723216128E+03  0.18637489657E+03 -0.65276838470E+03  0.73753546110E+03  0.79112066131E+02 0.  0.
         24    2    4    4    0    0 -0.19170748328E+03 -0.45938523135E+03 -0.60049293391E+02  0.50769572662E+03  0.79765175736E+02 0.  0.
         11    1    3    3    0    0  0.44734352550E+03  0.26877888056E+03  0.48207596116E+03  0.71046150407E+03  0.00000000000E+00 0. -1.
        -11    1    3    3    0    0  0.21596119059E+02  0.42314542273E+01  0.50751037084E+02  0.55316953355E+02  0.00000000000E+00 0.  1.
          4    1    6    6  502    0 -0.19280479956E+03 -0.41307924337E+03 -0.67339168410E+02  0.46080659244E+03  0.00000000000E+00 0. -1.
          3    1    5    5  503    0 -0.79966517788E+01 -0.89018198064E+00 -0.12668687951E+01  0.81451715865E+01  0.00000000000E+00 0. -1.
         -2    1    5    5    0  503 -0.26923550950E+03  0.18726507855E+03 -0.65150151590E+03  0.72939028952E+03  0.00000000000E+00 0.  1.
         -3    1    6    6    0  502  0.10973162793E+01 -0.46305987981E+02  0.72898750191E+01  0.46889134175E+02  0.00000000000E+00 0.  1.
<mgrwt>
<rscale>  0 0.20029386E+04</rscale>
<asrwt>0</asrwt>
<pdfrwt beam="1">  1        2 0.16853849E+00 0.20029386E+04</pdfrwt>
<pdfrwt beam="2">  1       -2 0.14084761E+00 0.20029386E+04</pdfrwt>
<totfact> 0.72008382E+00</totfact>
</mgrwt>
</event>
<event>
12    1  0.1472088E-007  0.1934036E+04  0.7818608E-02  0.8638098E-01
          2   -1    0    0  501    0  0.00000000000E+00  0.00000000000E+00  0.29159244931E+04  0.29159244931E+04  0.00000000000E+00 0. -1.
         -2   -1    0    0    0  501 -0.00000000000E+00 -0.00000000000E+00 -0.32069545522E+03  0.32069545522E+03  0.00000000000E+00 0.  1.
         23    2    1    2    0    0 -0.20305438094E+03 -0.53963079903E+03  0.18204969929E+04  0.19114822128E+04  0.84394716355E+02 0.  0.
        254    2    1    2    0    0  0.20305438094E+03  0.53963079903E+03  0.77473204498E+03  0.13251377354E+04  0.90738514175E+03 0.  0.
        -24    2    4    4    0    0 -0.32231726532E+03  0.38843079549E+03  0.46761321085E+03  0.69226780464E+03  0.76195117696E+02 0.  0.
         24    2    4    4    0    0  0.52537164627E+03  0.15120000353E+03  0.30711883413E+03  0.63286993079E+03  0.85589504361E+02 0.  0.
         11    1    3    3    0    0 -0.17536392068E+03 -0.51913029144E+03  0.16971995511E+04  0.17834615444E+04  0.00000000000E+00 0. -1.
        -11    1    3    3    0    0 -0.27690460261E+02 -0.20500507586E+02  0.12329744174E+03  0.12802066841E+03  0.00000000000E+00 0.  1.
          4    1    6    6  502    0  0.47543635555E+03  0.15912212877E+03  0.29155478479E+03  0.57996876862E+03  0.00000000000E+00 0. -1.
          1    1    5    5  503    0 -0.25184308380E+03  0.25285971869E+03  0.34477446676E+03  0.49621810640E+03  0.00000000000E+00 0. -1.
         -2    1    5    5    0  503 -0.70474181525E+02  0.13557107681E+03  0.12283874410E+03  0.19604969824E+03  0.00000000000E+00 0.  1.
         -3    1    6    6    0  502  0.49935290722E+02 -0.79221252382E+01  0.15564049342E+02  0.52901162177E+02  0.00000000000E+00 0.  1.
<mgrwt>
<rscale>  0 0.19340359E+04</rscale>
<asrwt>0</asrwt>
<pdfrwt beam="1">  1        2 0.44860375E+00 0.19340359E+04</pdfrwt>
<pdfrwt beam="2">  1       -2 0.49337764E-01 0.19340359E+04</pdfrwt>
<totfact> 0.71507714E+00</totfact>
</mgrwt>
</event>
<event>
12    1  0.1472088E-007  0.3641497E+04  0.7818608E-02  0.8081052E-01
          2   -1    0    0  501    0  0.00000000000E+00  0.00000000000E+00  0.24980185814E+04  0.24980185814E+04  0.00000000000E+00 0. -1.
         -2   -1    0    0    0  501 -0.00000000000E+00 -0.00000000000E+00 -0.13271018999E+04  0.13271018999E+04  0.00000000000E+00 0.  1.
         23    2    1    2    0    0 -0.91894186947E+03  0.54156785579E+03 -0.85284870368E+03  0.13686342206E+04  0.89770911374E+02 0.  0.
        254    2    1    2    0    0  0.91894186947E+03 -0.54156785579E+03  0.20237653852E+04  0.24564862607E+04  0.89495726887E+03 0.  0.
        -24    2    4    4    0    0  0.33139708264E+03  0.23072698482E+03  0.49255127971E+03  0.64190611886E+03  0.79860718637E+02 0.  0.
         24    2    4    4    0    0  0.58754478683E+03 -0.77229484061E+03  0.15312141054E+04  0.18145801419E+04  0.80226287344E+02 0.  0.
         11    1    3    3    0    0 -0.48754415712E+03  0.28443254878E+03 -0.39392367928E+03  0.68831464102E+03  0.00000000000E+00 0. -1.
        -11    1    3    3    0    0 -0.43139771235E+03  0.25713530701E+03 -0.45892502440E+03  0.68031957958E+03  0.00000000000E+00 0.  1.
          2    1    6    6  502    0  0.20532267852E+03 -0.21118352460E+03  0.48145733330E+03  0.56440858176E+03  0.00000000000E+00 0. -1.
          3    1    5    5  503    0  0.83021841916E+02  0.10011456330E+03  0.17660797922E+03  0.21933064159E+03  0.00000000000E+00 0. -1.
         -4    1    5    5    0  503  0.24837524072E+03  0.13061242152E+03  0.31594330050E+03  0.42257547727E+03  0.00000000000E+00 0.  1.
         -1    1    6    6    0  502  0.38222210832E+03 -0.56111131601E+03  0.10497567721E+04  0.12501715601E+04  0.00000000000E+00 0.  1.
<mgrwt>
<rscale>  0 0.36414971E+04</rscale>
<asrwt>0</asrwt>
<pdfrwt beam="1">  1        2 0.38431055E+00 0.36414971E+04</pdfrwt>
<pdfrwt beam="2">  1       -2 0.20416952E+00 0.36414971E+04</pdfrwt>
<totfact> 0.35409056E-01</totfact>
</mgrwt>
</event>
<event>
12    1  0.1472088E-007  0.2573446E+04  0.7818608E-02  0.8377277E-01
         -1   -1    0    0    0  501 -0.00000000000E+00  0.00000000000E+00  0.16087511119E+04  0.16087511119E+04  0.00000000000E+00 0.  1.
          1   -1    0    0  501    0  0.00000000000E+00 -0.00000000000E+00 -0.10291562613E+04  0.10291562613E+04  0.00000000000E+00 0. -1.
         23    2    1    2    0    0 -0.32572707235E+03  0.91331584965E+03 -0.33713415292E+03  0.10307178404E+04  0.92064447916E+02 0.  0.
        254    2    1    2    0    0  0.32572707235E+03 -0.91331584965E+03  0.91672900354E+03  0.16071895328E+04  0.89578019715E+03 0.  0.
        -24    2    4    4    0    0  0.49879211573E+03 -0.18290562658E+03  0.22239954960E+03  0.58137359586E+03  0.79282125095E+02 0.  0.
         24    2    4    4    0    0 -0.17306504338E+03 -0.73041022307E+03  0.69432945394E+03  0.10258159370E+04  0.82184808299E+02 0.  0.
         11    1    3    3    0    0 -0.10695881790E+03  0.31498792767E+03 -0.16207622093E+03  0.37003551816E+03  0.00000000000E+00 0.  1.
        -11    1    3    3    0    0 -0.21876825445E+03  0.59832792197E+03 -0.17505793199E+03  0.66068232224E+03  0.00000000000E+00 0. -1.
          4    1    6    6  502    0 -0.41297828948E+02 -0.35219029317E+03  0.32590810278E+03  0.48162184827E+03  0.00000000000E+00 0. -1.
          3    1    5    5  503    0  0.24679142712E+03 -0.49266029737E+02  0.95418453207E+02  0.26914277140E+03  0.00000000000E+00 0. -1.
         -4    1    5    5    0  503  0.25200068861E+03 -0.13363959684E+03  0.12698109639E+03  0.31223082446E+03  0.00000000000E+00 0.  1.
         -3    1    6    6    0  502 -0.13176721443E+03 -0.37821992990E+03  0.36842135116E+03  0.54419408869E+03  0.00000000000E+00 0.  1.
<mgrwt>
<rscale>  0 0.25734462E+04</rscale>
<asrwt>0</asrwt>
<pdfrwt beam="1">  1        1 0.15833173E+00 0.25734462E+04</pdfrwt>
<pdfrwt beam="2">  1       -1 0.24750017E+00 0.25734462E+04</pdfrwt>
<totfact> 0.91771653E-01</totfact>
</mgrwt>
</event>
<event>
12    1  0.1472088E-007  0.1364711E+04  0.7818608E-02  0.8979766E-01
          2   -1    0    0  501    0  0.00000000000E+00  0.00000000000E+00  0.11737987306E+04  0.11737987306E+04  0.00000000000E+00 0. -1.
         -2   -1    0    0    0  501 -0.00000000000E+00 -0.00000000000E+00 -0.39666866603E+03  0.39666866603E+03  0.00000000000E+00 0.  1.
         23    2    1    2    0    0 -0.48887116515E+01 -0.25420292149E+02 -0.21184572193E+03  0.23689212135E+03  0.10280650029E+03 0.  0.
        254    2    1    2    0    0  0.48887116515E+01  0.25420292149E+02  0.98897578648E+03  0.13335752753E+04  0.89424818579E+03 0.  0.
        -24    2    4    4    0    0  0.16150518789E+03  0.40910600872E+03  0.34944046233E+03  0.56733516800E+03  0.79428609733E+02 0.  0.
         24    2    4    4    0    0 -0.15661647624E+03 -0.38368571657E+03  0.63953532415E+03  0.76624010726E+03  0.79843731217E+02 0.  0.
         13    1    3    3    0    0  0.26340425050E+02 -0.34503768248E+02 -0.19593414975E+03  0.20068512415E+03  0.00000000000E+00 0.  1.
        -13    1    3    3    0    0 -0.31229136702E+02  0.90834760990E+01 -0.15911572181E+02  0.36206997203E+02  0.00000000000E+00 0. -1.
          2    1    6    6  502    0 -0.30531253726E+02 -0.26122171007E+02  0.90458516812E+02  0.98981152428E+02  0.00000000000E+00 0. -1.
          3    1    5    5  503    0  0.31160952628E+02  0.77337270668E+02  0.10956903164E+03  0.13768598729E+03  0.00000000000E+00 0. -1.
         -4    1    5    5    0  503  0.13034423526E+03  0.33176873805E+03  0.23987143070E+03  0.42964918070E+03  0.00000000000E+00 0.  1.
         -1    1    6    6    0  502 -0.12608522251E+03 -0.35756354557E+03  0.54907680734E+03  0.66725895484E+03  0.00000000000E+00 0.  1.
<mgrwt>
<rscale>  0 0.13647112E+04</rscale>
<asrwt>0</asrwt>
<pdfrwt beam="1">  1        2 0.18058442E+00 0.13647112E+04</pdfrwt>
<pdfrwt beam="2">  1       -2 0.61025949E-01 0.13647112E+04</pdfrwt>
<totfact> 0.47881352E+01</totfact>
</mgrwt>
</event>
<event>
12    1  0.1472088E-007  0.1890882E+04  0.7818608E-02  0.8659408E-01
          1   -1    0    0  501    0  0.00000000000E+00  0.00000000000E+00  0.26062561697E+04  0.26062561697E+04  0.00000000000E+00 0. -1.
         -1   -1    0    0    0  501 -0.00000000000E+00 -0.00000000000E+00 -0.34296659816E+03  0.34296659816E+03  0.00000000000E+00 0.  1.
         23    2    1    2    0    0 -0.29912510325E+03 -0.37262143320E+03  0.24739080708E+02  0.48716204144E+03  0.91609347954E+02 0.  0.
        254    2    1    2    0    0  0.29912510325E+03  0.37262143320E+03  0.22385504908E+04  0.24620607264E+04  0.90681429231E+03 0.  0.
        -24    2    4    4    0    0  0.53604786599E+03  0.15229699271E+03  0.19200708128E+04  0.20009297478E+04  0.80661271930E+02 0.  0.
         24    2    4    4    0    0 -0.23692276273E+03  0.22032444049E+03  0.31847967804E+03  0.46113097865E+03  0.80853073943E+02 0.  0.
         11    1    3    3    0    0 -0.27034537831E+02 -0.43620732697E+02  0.31419645207E+02  0.60173321844E+02  0.00000000000E+00 0. -1.
        -11    1    3    3    0    0 -0.27209056542E+03 -0.32900070050E+03 -0.66805644994E+01  0.42698871960E+03  0.00000000000E+00 0.  1.
          2    1    6    6  502    0 -0.17101877262E+03  0.11401364274E+03  0.16806468685E+03  0.26550380465E+03  0.00000000000E+00 0. -1.
          1    1    5    5  503    0  0.36432285774E+03  0.71142682246E+02  0.13464080858E+04  0.13966413854E+04  0.00000000000E+00 0. -1.
         -2    1    5    5    0  503  0.17172500824E+03  0.81154310460E+02  0.57366272701E+03  0.60428836239E+03  0.00000000000E+00 0.  1.
         -1    1    6    6    0  502 -0.65903990115E+02  0.10631079775E+03  0.15041499118E+03  0.19562717399E+03  0.00000000000E+00 0.  1.
<mgrwt>
<rscale>  0 0.18908821E+04</rscale>
<asrwt>0</asrwt>
<pdfrwt beam="1">  1        1 0.40096247E+00 0.18908821E+04</pdfrwt>
<pdfrwt beam="2">  1       -1 0.52764094E-01 0.18908821E+04</pdfrwt>
<totfact> 0.38764359E+00</totfact>
</mgrwt>
</event>
<event>
12    1  0.1472088E-007  0.1403970E+04  0.7818608E-02  0.8950950E-01
          2   -1    0    0  501    0  0.00000000000E+00  0.00000000000E+00  0.11619977129E+04  0.11619977129E+04  0.00000000000E+00 0. -1.
         -2   -1    0    0    0  501 -0.00000000000E+00 -0.00000000000E+00 -0.42408225480E+03  0.42408225480E+03  0.00000000000E+00 0.  1.
         23    2    1    2    0    0 -0.27903269539E+03  0.21960009380E+03  0.45174567026E+03  0.58186381343E+03  0.91694604453E+02 0.  0.
        254    2    1    2    0    0  0.27903269539E+03 -0.21960009380E+03  0.28616978784E+03  0.10042161543E+04  0.89469184121E+03 0.  0.
        -24    2    4    4    0    0 -0.26254298979E+03  0.13954088518E+03  0.95324893386E+02  0.32205323772E+03  0.78936509279E+02 0.  0.
         24    2    4    4    0    0  0.54157568518E+03 -0.35914097898E+03  0.19084489445E+03  0.68216291656E+03  0.81473955472E+02 0.  0.
         13    1    3    3    0    0 -0.84839620967E+02  0.42410238168E+02  0.18185363737E+03  0.20510274258E+03  0.00000000000E+00 0. -1.
        -13    1    3    3    0    0 -0.19419307442E+03  0.17718985563E+03  0.26989203289E+03  0.37676107085E+03  0.00000000000E+00 0.  1.
          2    1    6    6  502    0  0.51158065861E+03 -0.33723068330E+03  0.19880192874E+03  0.64417506231E+03  0.00000000000E+00 0. -1.
          1    1    5    5  503    0 -0.20665664773E+03  0.11503206604E+03  0.10754443480E+03  0.25981753544E+03  0.00000000000E+00 0. -1.
         -2    1    5    5    0  503 -0.55886342063E+02  0.24508819145E+02 -0.12219541411E+02  0.62235702273E+02  0.00000000000E+00 0.  1.
         -1    1    6    6    0  502  0.29995026569E+02 -0.21910295678E+02 -0.79570342902E+01  0.37987854247E+02  0.00000000000E+00 0.  1.
<mgrwt>
<rscale>  0 0.14039695E+04</rscale>
<asrwt>0</asrwt>
<pdfrwt beam="1">  1        2 0.17876888E+00 0.14039695E+04</pdfrwt>
<pdfrwt beam="2">  1       -2 0.65243424E-01 0.14039695E+04</pdfrwt>
<totfact> 0.42074417E+01</totfact>
</mgrwt>
</event>
<event>
12    1  0.1472088E-007  0.2631775E+04  0.7818608E-02  0.8357487E-01
         -2   -1    0    0    0  501 -0.00000000000E+00  0.00000000000E+00  0.88047221139E+03  0.88047221139E+03  0.00000000000E+00 0.  1.
          2   -1    0    0  501    0  0.00000000000E+00 -0.00000000000E+00 -0.19666269047E+04  0.19666269047E+04  0.00000000000E+00 0. -1.
         23    2    1    2    0    0  0.76724796303E+03  0.82266932423E+03 -0.73618972032E+03  0.13474871097E+04  0.91060159276E+02 0.  0.
        254    2    1    2    0    0 -0.76724796303E+03 -0.82266932423E+03 -0.34996497303E+03  0.14996120065E+04  0.92785043719E+03 0.  0.
        -24    2    4    4    0    0 -0.81964506171E+03 -0.33414314581E+03  0.22966796212E+01  0.88882176772E+03  0.80803409268E+02 0.  0.
         24    2    4    4    0    0  0.52397098681E+02 -0.48852617842E+03 -0.35226165265E+03  0.61079023875E+03  0.87023909774E+02 0.  0.
         13    1    3    3    0    0  0.10289325257E+03  0.10320628512E+03 -0.13328011830E+03  0.19748961655E+03  0.00000000000E+00 0. -1.
        -13    1    3    3    0    0  0.66435471047E+03  0.71946303910E+03 -0.60290960202E+03  0.11499974931E+04  0.00000000000E+00 0.  1.
          4    1    6    6  502    0 -0.11825054535E+02 -0.10184311815E+03 -0.10808900765E+03  0.14898015373E+03  0.00000000000E+00 0. -1.
          3    1    5    5  503    0 -0.15195193605E+03 -0.29626725830E+02 -0.57887542712E+01  0.15492141049E+03  0.00000000000E+00 0. -1.
         -4    1    5    5    0  503 -0.66769312566E+03 -0.30451641998E+03  0.80854338925E+01  0.73390035723E+03  0.00000000000E+00 0.  1.
         -3    1    6    6    0  502  0.64222153216E+02 -0.38668306026E+03 -0.24417264500E+03  0.46181008502E+03  0.00000000000E+00 0.  1.
<mgrwt>
<rscale>  0 0.26317753E+04</rscale>
<asrwt>0</asrwt>
<pdfrwt beam="1">  1        2 0.30255799E+00 0.26317753E+04</pdfrwt>
<pdfrwt beam="2">  1       -2 0.13545726E+00 0.26317753E+04</pdfrwt>
<totfact> 0.24062488E+00</totfact>
</mgrwt>
</event>
<event>
12    1  0.1472088E-007  0.1632978E+04  0.7818608E-02  0.8800541E-01
          1   -1    0    0  501    0  0.00000000000E+00  0.00000000000E+00  0.15724150539E+04  0.15724150539E+04  0.00000000000E+00 0. -1.
         -1   -1    0    0    0  501 -0.00000000000E+00 -0.00000000000E+00 -0.42396836507E+03  0.42396836507E+03  0.00000000000E+00 0.  1.
         23    2    1    2    0    0  0.20362648396E+03 -0.12084929071E+03  0.10522802285E+04  0.10823801681E+04  0.90470177173E+02 0.  0.
        254    2    1    2    0    0 -0.20362648396E+03  0.12084929071E+03  0.96166460368E+02  0.91400325091E+03  0.87754524586E+03 0.  0.
        -24    2    4    4    0    0 -0.22060916902E+03  0.31636347998E+03 -0.28005943083E+03  0.48342646752E+03  0.80706925240E+02 0.  0.
         24    2    4    4    0    0  0.16982685053E+02 -0.19551418927E+03  0.37622589120E+03  0.43057678339E+03  0.73049540658E+02 0.  0.
         13    1    3    3    0    0  0.15901724590E+03 -0.44948351212E+02  0.66606779674E+03  0.68626026304E+03  0.00000000000E+00 0. -1.
        -13    1    3    3    0    0  0.44609238067E+02 -0.75900939499E+02  0.38621243176E+03  0.39611990506E+03  0.00000000000E+00 0.  1.
          4    1    6    6  502    0 -0.73965905877E+01 -0.46381955580E+02  0.16020951247E+03  0.16695233823E+03  0.00000000000E+00 0. -1.
          3    1    5    5  503    0  0.63002071210E+01  0.16049719391E+02 -0.17001747573E+02  0.24214572531E+02  0.00000000000E+00 0. -1.
         -2    1    5    5    0  503 -0.22690937614E+03  0.30031376059E+03 -0.26305768326E+03  0.45921189499E+03  0.00000000000E+00 0.  1.
         -3    1    6    6    0  502  0.24379275640E+02 -0.14913223369E+03  0.21601637873E+03  0.26362444515E+03  0.00000000000E+00 0.  1.
<mgrwt>
<rscale>  0 0.16329779E+04</rscale>
<asrwt>0</asrwt>
<pdfrwt beam="1">  1        1 0.24191001E+00 0.16329779E+04</pdfrwt>
<pdfrwt beam="2">  1       -1 0.65225903E-01 0.16329779E+04</pdfrwt>
<totfact> 0.13292211E+01</totfact>
</mgrwt>
</event>
<event>
12    1  0.1472088E-007  0.1408844E+04  0.7818608E-02  0.8947441E-01
          2   -1    0    0  501    0  0.00000000000E+00  0.00000000000E+00  0.10249927896E+04  0.10249927896E+04  0.00000000000E+00 0. -1.
         -2   -1    0    0    0  501 -0.00000000000E+00 -0.00000000000E+00 -0.48411125597E+03  0.48411125597E+03  0.00000000000E+00 0.  1.
         23    2    1    2    0    0 -0.12565792968E+03  0.12908364188E+03 -0.23449745096E+03  0.30956317488E+03  0.91584948787E+02 0.  0.
        254    2    1    2    0    0  0.12565792968E+03 -0.12908364188E+03  0.77537898457E+03  0.11995408707E+04  0.89734788617E+03 0.  0.
        -24    2    4    4    0    0  0.24528561354E+03 -0.38374100292E+03  0.11462863842E+03  0.47724484796E+03  0.84857118932E+02 0.  0.
         24    2    4    4    0    0 -0.11962768386E+03  0.25465736104E+03  0.66075034615E+03  0.72229602271E+03  0.77196957249E+02 0.  0.
         11    1    3    3    0    0 -0.12243103979E+03  0.13843814841E+03 -0.23578813798E+03  0.29958392222E+03  0.00000000000E+00 0.  1.
        -11    1    3    3    0    0 -0.32268898922E+01 -0.93545065314E+01  0.12906870175E+01  0.99792526674E+01  0.00000000000E+00 0. -1.
          4    1    6    6  502    0 -0.11971301981E+03  0.19279341625E+03  0.55766854344E+03  0.60207533815E+03  0.00000000000E+00 0. -1.
          1    1    5    5  503    0  0.11370922490E+03 -0.25442256055E+03  0.74058886276E+02  0.28834934677E+03  0.00000000000E+00 0. -1.
         -2    1    5    5    0  503  0.13157638864E+03 -0.12931844237E+03  0.40569752144E+02  0.18889550120E+03  0.00000000000E+00 0.  1.
         -3    1    6    6    0  502  0.85335950198E-01  0.61863944790E+02  0.10308180271E+03  0.12022068457E+03  0.00000000000E+00 0.  1.
<mgrwt>
<rscale>  0 0.14088443E+04</rscale>
<asrwt>0</asrwt>
<pdfrwt beam="1">  1        2 0.15769120E+00 0.14088443E+04</pdfrwt>
<pdfrwt beam="2">  1       -2 0.74478655E-01 0.14088443E+04</pdfrwt>
<totfact> 0.38304638E+01</totfact>
</mgrwt>
</event>
<event>
12    1  0.1472088E-007  0.1281342E+04  0.7818608E-02  0.9044493E-01
         -2   -1    0    0    0  501 -0.00000000000E+00  0.00000000000E+00  0.13545296839E+04  0.13545296839E+04  0.00000000000E+00 0.  1.
          2   -1    0    0  501    0  0.00000000000E+00 -0.00000000000E+00 -0.30302742176E+03  0.30302742176E+03  0.00000000000E+00 0. -1.
         23    2    1    2    0    0 -0.77841255229E+02 -0.28230477081E+03  0.24193322637E+03  0.39107093263E+03  0.93002922997E+02 0.  0.
        254    2    1    2    0    0  0.77841255229E+02  0.28230477081E+03  0.80956903574E+03  0.12664861730E+04  0.92888640757E+03 0.  0.
        -24    2    4    4    0    0 -0.30545057532E+03  0.15341698605E+03  0.77726799949E+03  0.85268931685E+03  0.78081383579E+02 0.  0.
         24    2    4    4    0    0  0.38329183054E+03  0.12888778476E+03  0.32301036248E+02  0.41379685616E+03  0.81607553613E+02 0.  0.
         13    1    3    3    0    0 -0.19670909883E+02 -0.78293456498E+02  0.12509707367E+03  0.14888279910E+03  0.00000000000E+00 0.  1.
        -13    1    3    3    0    0 -0.58170345346E+02 -0.20401131431E+03  0.11683615270E+03  0.24218813353E+03  0.00000000000E+00 0. -1.
          4    1    6    6  502    0  0.26985066884E+03  0.12852972372E+03  0.29099957007E+02  0.30030997461E+03  0.00000000000E+00 0. -1.
          1    1    5    5  503    0 -0.12651193072E+03  0.21553800615E+02  0.28714274880E+03  0.31451676128E+03  0.00000000000E+00 0. -1.
         -2    1    5    5    0  503 -0.17893864459E+03  0.13186318544E+03  0.49012525068E+03  0.53817255556E+03  0.00000000000E+00 0.  1.
         -3    1    6    6    0  502  0.11344116170E+03  0.35806103881E+00  0.32010792407E+01  0.11348688155E+03  0.00000000000E+00 0.  1.
<mgrwt>
<rscale>  0 0.12813425E+04</rscale>
<asrwt>0</asrwt>
<pdfrwt beam="1">  1        2 0.46619604E-01 0.12813425E+04</pdfrwt>
<pdfrwt beam="2">  1       -2 0.20838918E+00 0.12813425E+04</pdfrwt>
<totfact> 0.12489764E+01</totfact>
</mgrwt>
</event>
<event>
12    1  0.1472088E-007  0.1579492E+04  0.7818608E-02  0.8833247E-01
         -1   -1    0    0    0  501 -0.00000000000E+00  0.00000000000E+00  0.73319782540E+03  0.73319782540E+03  0.00000000000E+00 0.  1.
          1   -1    0    0  501    0  0.00000000000E+00 -0.00000000000E+00 -0.85065561919E+03  0.85065561919E+03  0.00000000000E+00 0. -1.
         23    2    1    2    0    0  0.40285776132E+03  0.34104598123E+03 -0.43781207003E+02  0.53738492352E+03  0.90879176752E+02 0.  0.
        254    2    1    2    0    0 -0.40285776132E+03 -0.34104598123E+03 -0.73676586788E+02  0.10464685211E+04  0.90058946751E+03 0.  0.
        -24    2    4    4    0    0 -0.40786527715E+03  0.19681440774E+03 -0.17866326828E+03  0.49341559294E+03  0.80301858781E+02 0.  0.
         24    2    4    4    0    0  0.50075158271E+01 -0.53786038897E+03  0.10498668149E+03  0.55305292814E+03  0.74340196339E+02 0.  0.
         11    1    3    3    0    0  0.52242763384E+02  0.35245183218E+02 -0.34954110666E+02  0.72064687042E+02  0.00000000000E+00 0. -1.
        -11    1    3    3    0    0  0.35061499794E+03  0.30580079801E+03 -0.88270963370E+01  0.46532023648E+03  0.00000000000E+00 0.  1.
          2    1    6    6  502    0  0.13482172662E+02 -0.41065855970E+02 -0.68326897776E+01  0.43759103691E+02  0.00000000000E+00 0. -1.
          3    1    5    5  503    0 -0.11591043345E+03  0.97357460722E+02 -0.64345629675E+02  0.16448119588E+03  0.00000000000E+00 0. -1.
         -4    1    5    5    0  503 -0.29195484370E+03  0.99456947023E+02 -0.11431763860E+03  0.32893439706E+03  0.00000000000E+00 0.  1.
         -1    1    6    6    0  502 -0.84746568350E+01 -0.49679453300E+03  0.11181937127E+03  0.50929382445E+03  0.00000000000E+00 0.  1.
<mgrwt>
<rscale>  0 0.15794921E+04</rscale>
<asrwt>0</asrwt>
<pdfrwt beam="1">  1        1 0.13087010E+00 0.15794921E+04</pdfrwt>
<pdfrwt beam="2">  1       -1 0.11279967E+00 0.15794921E+04</pdfrwt>
<totfact> 0.13825061E+01</totfact>
</mgrwt>
</event>
<event>
12    1  0.1746790E-007  0.1674508E+04  0.7818608E-02  0.8776038E-01
         -2   -1    0    0    0  501 -0.00000000000E+00  0.00000000000E+00  0.30733664892E+03  0.30733664892E+03  0.00000000000E+00 0.  1.
          2   -1    0    0  501    0  0.00000000000E+00 -0.00000000000E+00 -0.22808684872E+04  0.22808684872E+04  0.00000000000E+00 0. -1.
         23    2    1    2    0    0 -0.42802744893E+03 -0.29831321011E+03 -0.69081760327E+03  0.87050884749E+03  0.91424417925E+02 0.  0.
        254    2    1    2    0    0  0.42802744893E+03  0.29831321011E+03 -0.12827142350E+04  0.17176962887E+04  0.10163298987E+04 0.  0.
        -24    2    4    4    0    0  0.25117963617E+03  0.26689013151E+03 -0.14248505289E+04  0.14734038881E+04  0.79990222806E+02 0.  0.
         24    2    4    4    0    0  0.17684781277E+03  0.31423078597E+02  0.14213629386E+03  0.24429240060E+03  0.84932280124E+02 0.  0.
         13    1    3    3    0    0 -0.28675215255E+03 -0.19184963370E+03 -0.52384809482E+03  0.62725585321E+03  0.00000000000E+00 0. -1.
        -13    1    3    3    0    0 -0.14127529639E+03 -0.10646357641E+03 -0.16696950846E+03  0.24325299428E+03  0.00000000000E+00 0.  1.
          2    1    6    6  502    0  0.16321239156E+03  0.18734353711E+02  0.86591235250E+02  0.18570757332E+03  0.00000000000E+00 0. -1.
          1    1    5    5  503    0  0.14678681487E+03  0.20697978132E+03 -0.10157538914E+04  0.10469684651E+04  0.00000000000E+00 0. -1.
         -2    1    5    5    0  503  0.10439282130E+03  0.59910350194E+02 -0.40909663745E+03  0.42643542298E+03  0.00000000000E+00 0.  1.
         -1    1    6    6    0  502  0.13635421213E+02  0.12688724886E+02  0.55545058612E+02  0.58584827277E+02  0.00000000000E+00 0.  1.
<mgrwt>
<rscale>  0 0.16745083E+04</rscale>
<asrwt>0</asrwt>
<pdfrwt beam="1">  1        2 0.35090284E+00 0.16745083E+04</pdfrwt>
<pdfrwt beam="2">  1       -2 0.47282562E-01 0.16745083E+04</pdfrwt>
<totfact> 0.18804228E+01</totfact>
</mgrwt>
</event>
<event>
12    1  0.1472088E-007  0.2853309E+04  0.7818608E-02  0.8286906E-01
          1   -1    0    0  501    0  0.00000000000E+00  0.00000000000E+00  0.13721599214E+04  0.13721599214E+04  0.00000000000E+00 0. -1.
         -1   -1    0    0    0  501 -0.00000000000E+00 -0.00000000000E+00 -0.14833135853E+04  0.14833135853E+04  0.00000000000E+00 0.  1.
         23    2    1    2    0    0 -0.35591863609E+03 -0.11252817278E+04  0.43993906811E+03  0.12627258218E+04  0.89403999406E+02 0.  0.
        254    2    1    2    0    0  0.35591863609E+03  0.11252817278E+04 -0.55109273204E+03  0.15927476849E+04  0.91662693944E+03 0.  0.
        -24    2    4    4    0    0  0.58225802035E+03  0.38736402830E+03 -0.37372257060E+03  0.79685120192E+03  0.78917587025E+02 0.  0.
         24    2    4    4    0    0 -0.22633938426E+03  0.73791769946E+03 -0.17737016144E+03  0.79589648298E+03  0.78987273760E+02 0.  0.
         13    1    3    3    0    0 -0.11299788745E+03 -0.45556635694E+03  0.20919062520E+03  0.51387736457E+03  0.00000000000E+00 0. -1.
        -13    1    3    3    0    0 -0.24292074864E+03 -0.66971537082E+03  0.23074844291E+03  0.74884845726E+03  0.00000000000E+00 0.  1.
          4    1    6    6  502    0 -0.19224628681E+03  0.67823762918E+03 -0.17830964808E+03  0.72715833697E+03  0.00000000000E+00 0. -1.
          3    1    5    5  503    0  0.44685580337E+03  0.25534923327E+03 -0.27243326871E+03  0.58232570426E+03  0.00000000000E+00 0. -1.
         -4    1    5    5    0  503  0.13540221698E+03  0.13201479504E+03 -0.10128930188E+03  0.21452549766E+03  0.00000000000E+00 0.  1.
         -3    1    6    6    0  502 -0.34093097450E+02  0.59680070274E+02  0.93948663922E+00  0.68738146009E+02  0.00000000000E+00 0.  1.
<mgrwt>
<rscale>  0 0.28533093E+04</rscale>
<asrwt>0</asrwt>
<pdfrwt beam="1">  1        1 0.21110153E+00 0.28533093E+04</pdfrwt>
<pdfrwt beam="2">  1       -1 0.22820209E+00 0.28533093E+04</pdfrwt>
<totfact> 0.67209126E-01</totfact>
</mgrwt>
</event>
<event>
12    1  0.1472088E-007  0.1716031E+04  0.7818608E-02  0.8752274E-01
         -1   -1    0    0    0  501 -0.00000000000E+00  0.00000000000E+00  0.27680196494E+03  0.27680196494E+03  0.00000000000E+00 0.  1.
          1   -1    0    0  501    0  0.00000000000E+00 -0.00000000000E+00 -0.26596296593E+04  0.26596296593E+04  0.00000000000E+00 0. -1.
         23    2    1    2    0    0  0.21951229066E+03  0.56138422527E+03 -0.10875355623E+04  0.12468896907E+04  0.93072054999E+02 0.  0.
        254    2    1    2    0    0 -0.21951229066E+03 -0.56138422527E+03 -0.12952921321E+04  0.16895419335E+04  0.90190484179E+03 0.  0.
        -24    2    4    4    0    0 -0.43722668055E+03 -0.41473461697E+03 -0.12769123931E+04  0.14143534308E+04  0.81965815679E+02 0.  0.
         24    2    4    4    0    0  0.21771438988E+03 -0.14664960830E+03 -0.18379738963E+02  0.27518850271E+03  0.80530950832E+02 0.  0.
         11    1    3    3    0    0  0.22485780261E+02  0.80717148746E+02 -0.95329913310E+02  0.12691989910E+03  0.00000000000E+00 0. -1.
        -11    1    3    3    0    0  0.19702651040E+03  0.48066707652E+03 -0.99220564898E+03  0.11199697916E+04  0.00000000000E+00 0.  1.
          4    1    6    6  502    0  0.39676726060E+02  0.51629648572E+01  0.36552376703E+01  0.40177849113E+02  0.00000000000E+00 0. -1.
          1    1    5    5  503    0 -0.26787420523E+03 -0.30629445587E+03 -0.83808479983E+03  0.93164318020E+03  0.00000000000E+00 0. -1.
         -4    1    5    5    0  503 -0.16935247531E+03 -0.10844016111E+03 -0.43882759328E+03  0.48271025063E+03  0.00000000000E+00 0.  1.
         -3    1    6    6    0  502  0.17803766382E+03 -0.15181257315E+03 -0.22034976633E+02  0.23501065359E+03  0.00000000000E+00 0.  1.
<mgrwt>
<rscale>  0 0.17160311E+04</rscale>
<asrwt>0</asrwt>
<pdfrwt beam="1">  1        1 0.40917378E+00 0.17160311E+04</pdfrwt>
<pdfrwt beam="2">  1       -1 0.42584919E-01 0.17160311E+04</pdfrwt>
<totfact> 0.54155611E+00</totfact>
</mgrwt>
</event>
<event>
12    1  0.1472088E-007  0.1612019E+04  0.7818608E-02  0.8813198E-01
         -1   -1    0    0    0  501 -0.00000000000E+00  0.00000000000E+00  0.31434479901E+03  0.31434479901E+03  0.00000000000E+00 0.  1.
          1   -1    0    0  501    0  0.00000000000E+00 -0.00000000000E+00 -0.20666838774E+04  0.20666838774E+04  0.00000000000E+00 0. -1.
         23    2    1    2    0    0 -0.50785881553E+03 -0.19377306941E+03 -0.91627762745E+03  0.10692519925E+04  0.90920591678E+02 0.  0.
        254    2    1    2    0    0  0.50785881553E+03  0.19377306941E+03 -0.83606145091E+03  0.13117766839E+04  0.85222692969E+03 0.  0.
        -24    2    4    4    0    0  0.40618877047E+03  0.51082192363E+03 -0.45327614465E+03  0.79866153524E+03  0.80452654659E+02 0.  0.
         24    2    4    4    0    0  0.10167004506E+03 -0.31704885423E+03 -0.38278530625E+03  0.51311514862E+03  0.76849144628E+02 0.  0.
         13    1    3    3    0    0 -0.13322072949E+03 -0.86449524163E+02 -0.31422118437E+03  0.35207419062E+03  0.00000000000E+00 0. -1.
        -13    1    3    3    0    0 -0.37463808604E+03 -0.10732354524E+03 -0.60205644308E+03  0.71717780189E+03  0.00000000000E+00 0.  1.
          2    1    6    6  502    0  0.83856709126E+02 -0.31202722927E+03 -0.36474420618E+03  0.48726920220E+03  0.00000000000E+00 0. -1.
          3    1    5    5  503    0  0.35374064900E+03  0.39823147316E+03 -0.35271732497E+03  0.63885073711E+03  0.00000000000E+00 0. -1.
         -4    1    5    5    0  503  0.52448121469E+02  0.11259045048E+03 -0.10055881968E+03  0.15981079813E+03  0.00000000000E+00 0.  1.
         -1    1    6    6    0  502  0.17813335939E+02 -0.50216249569E+01 -0.18041100075E+02  0.25845946421E+02  0.00000000000E+00 0.  1.
<mgrwt>
<rscale>  0 0.16120190E+04</rscale>
<asrwt>0</asrwt>
<pdfrwt beam="1">  1        1 0.31795137E+00 0.16120190E+04</pdfrwt>
<pdfrwt beam="2">  1       -1 0.48360737E-01 0.16120190E+04</pdfrwt>
<totfact> 0.11012303E+01</totfact>
</mgrwt>
</event>
<event>
12    1  0.1486996E-007  0.2265400E+04  0.7818608E-02  0.8491690E-01
          2   -1    0    0  501    0  0.00000000000E+00  0.00000000000E+00  0.91563564843E+03  0.91563564843E+03  0.00000000000E+00 0.  1.
         -2   -1    0    0    0  501 -0.00000000000E+00 -0.00000000000E+00 -0.14012230030E+04  0.14012230030E+04  0.00000000000E+00 0. -1.
         23    2    1    2    0    0  0.71360984829E+03  0.85948071261E+02  0.43219033431E+03  0.84386048275E+03  0.93198405365E+02 0.  0.
        254    2    1    2    0    0 -0.71360984829E+03 -0.85948071261E+02 -0.91777768890E+03  0.14729981687E+04  0.90043413541E+03 0.  0.
        -24    2    4    4    0    0 -0.35638066414E+03  0.33758040202E+03 -0.14520270200E+03  0.51813027438E+03  0.80046554941E+02 0.  0.
         24    2    4    4    0    0 -0.35722918414E+03 -0.42352847328E+03 -0.77257498690E+03  0.95486789432E+03  0.88946767943E+02 0.  0.
         13    1    3    3    0    0  0.71431360073E+03  0.83316385895E+02  0.42313273409E+03  0.83440209193E+03  0.00000000000E+00 0.  1.
        -13    1    3    3    0    0 -0.70375244829E+00  0.26316853659E+01  0.90576002171E+01  0.94583908286E+01  0.00000000000E+00 0. -1.
          4    1    6    6  502    0 -0.28572857701E+02 -0.55102176792E+01 -0.47575977645E+02  0.55769564683E+02  0.00000000000E+00 0. -1.
          3    1    5    5  503    0 -0.39030839609E+01  0.95066934777E+00 -0.12292339852E+02  0.12932109482E+02  0.00000000000E+00 0. -1.
         -4    1    5    5    0  503 -0.35247758018E+03  0.33662973267E+03 -0.13291036215E+03  0.50519816490E+03  0.00000000000E+00 0.  1.
         -3    1    6    6    0  502 -0.32865632644E+03 -0.41801825560E+03 -0.72499900926E+03  0.89909832963E+03  0.00000000000E+00 0.  1.
<mgrwt>
<rscale>  0 0.22654004E+04</rscale>
<asrwt>0</asrwt>
<pdfrwt beam="1">  1        2 0.14086702E+00 0.22654004E+04</pdfrwt>
<pdfrwt beam="2">  1       -2 0.21557277E+00 0.22654004E+04</pdfrwt>
<totfact> 0.27430597E+00</totfact>
</mgrwt>
</event>
<event>
12    1  0.1472088E-007  0.1616782E+04  0.7818608E-02  0.8810304E-01
         -2   -1    0    0    0  501 -0.00000000000E+00  0.00000000000E+00  0.17627396574E+04  0.17627396574E+04  0.00000000000E+00 0.  1.
          2   -1    0    0  501    0  0.00000000000E+00 -0.00000000000E+00 -0.37072756023E+03  0.37072756023E+03  0.00000000000E+00 0. -1.
         23    2    1    2    0    0 -0.84794547851E+02 -0.11907513977E+03 -0.21689317217E+03  0.27721568849E+03  0.91852520687E+02 0.  0.
        254    2    1    2    0    0  0.84794547851E+02  0.11907513977E+03  0.16089052693E+04  0.18562515291E+04  0.91417972491E+03 0.  0.
        -24    2    4    4    0    0  0.25098523631E+03 -0.32988264827E+03  0.92702286574E+03  0.10188597029E+04  0.82991265723E+02 0.  0.
         24    2    4    4    0    0 -0.16619068846E+03  0.44895778804E+03  0.68188240357E+03  0.83739182617E+03  0.84136899540E+02 0.  0.
         13    1    3    3    0    0 -0.76515035924E+02 -0.12358655848E+03 -0.22284876786E+03  0.26606345389E+03  0.00000000000E+00 0. -1.
        -13    1    3    3    0    0 -0.82795119265E+01  0.45114187092E+01  0.59555956939E+01  0.11152234600E+02  0.00000000000E+00 0.  1.
          2    1    6    6  502    0  0.31296743058E+01  0.56230424656E+02  0.10652194441E+03  0.12049307100E+03  0.00000000000E+00 0. -1.
          3    1    5    5  503    0  0.81443257360E+02 -0.11444645741E+03  0.41400958673E+03  0.43718981425E+03  0.00000000000E+00 0. -1.
         -4    1    5    5    0  503  0.16954197895E+03 -0.21543619086E+03  0.51301327902E+03  0.58166988869E+03  0.00000000000E+00 0.  1.
         -1    1    6    6    0  502 -0.16932036277E+03  0.39272736338E+03  0.57536045916E+03  0.71689875517E+03  0.00000000000E+00 0.  1.
<mgrwt>
<rscale>  0 0.16167822E+04</rscale>
<asrwt>0</asrwt>
<pdfrwt beam="1">  1        2 0.57035010E-01 0.16167822E+04</pdfrwt>
<pdfrwt beam="2">  1       -2 0.27119071E+00 0.16167822E+04</pdfrwt>
<totfact> 0.39590194E+00</totfact>
</mgrwt>
</event>
<event>
12    1  0.1472088E-007  0.1187098E+04  0.7818608E-02  0.9124225E-01
          1   -1    0    0  501    0  0.00000000000E+00  0.00000000000E+00  0.56795606304E+03  0.56795606304E+03  0.00000000000E+00 0. -1.
         -1   -1    0    0    0  501 -0.00000000000E+00 -0.00000000000E+00 -0.62029498050E+03  0.62029498050E+03  0.00000000000E+00 0.  1.
         23    2    1    2    0    0 -0.11739312682E+03 -0.20630472077E+03 -0.90817083710E+01  0.25453098047E+03  0.91437183642E+02 0.  0.
        254    2    1    2    0    0  0.11739312682E+03  0.20630472077E+03 -0.43257209096E+02  0.93372006307E+03  0.90200841793E+03 0.  0.
        -24    2    4    4    0    0  0.43246327125E+03  0.34038327759E+03  0.78661889985E+02  0.56161187348E+03  0.79592379387E+02 0.  0.
         24    2    4    4    0    0 -0.31507014442E+03 -0.13407855682E+03 -0.12191909908E+03  0.37210818960E+03  0.79711873261E+02 0.  0.
         13    1    3    3    0    0 -0.37815737435E+02 -0.48033596932E+02  0.37034968294E+02  0.71476187003E+02  0.00000000000E+00 0.  1.
        -13    1    3    3    0    0 -0.79577389389E+02 -0.15827112384E+03 -0.46116676665E+02  0.18305479346E+03  0.00000000000E+00 0. -1.
          4    1    6    6  502    0 -0.15804005925E+03 -0.26558848483E+02 -0.69730053628E+02  0.17476931407E+03  0.00000000000E+00 0. -1.
          1    1    5    5  503    0  0.42636722235E+02  0.75107094669E+01  0.23938326183E+01  0.43359327419E+02  0.00000000000E+00 0. -1.
         -2    1    5    5    0  503  0.38982654901E+03  0.33287256812E+03  0.76268057367E+02  0.51825254606E+03  0.00000000000E+00 0.  1.
         -3    1    6    6    0  502 -0.15703008517E+03 -0.10751970833E+03 -0.52189045453E+02  0.19733887552E+03  0.00000000000E+00 0.  1.
<mgrwt>
<rscale>  0 0.11870978E+04</rscale>
<asrwt>0</asrwt>
<pdfrwt beam="1">  1        1 0.87377856E-01 0.11870978E+04</pdfrwt>
<pdfrwt beam="2">  1       -1 0.95429997E-01 0.11870978E+04</pdfrwt>
<totfact> 0.38934703E+01</totfact>
</mgrwt>
</event>
<event>
12    1  0.1472088E-007  0.2188041E+04  0.7818608E-02  0.8523422E-01
          2   -1    0    0  501    0  0.00000000000E+00  0.00000000000E+00  0.12038080714E+04  0.12038080714E+04  0.00000000000E+00 0. -1.
         -2   -1    0    0    0  501 -0.00000000000E+00 -0.00000000000E+00 -0.99424556164E+03  0.99424556164E+03  0.00000000000E+00 0.  1.
         23    2    1    2    0    0 -0.50336322884E+03 -0.49730450913E+03  0.64995333292E+03  0.96516443118E+03  0.91742734214E+02 0.  0.
        254    2    1    2    0    0  0.50336322884E+03  0.49730450913E+03 -0.44039082319E+03  0.12328892018E+04  0.90850723271E+03 0.  0.
        -24    2    4    4    0    0  0.53365672447E+02 -0.16318751729E+02  0.24429261094E+03  0.26282375343E+03  0.79266947407E+02 0.  0.
         24    2    4    4    0    0  0.44999755639E+03  0.51362326086E+03 -0.68468343413E+03  0.97006544840E+03  0.76999443821E+02 0.  0.
         13    1    3    3    0    0 -0.86049177103E+02 -0.13253102886E+03  0.16839627917E+03  0.23092475253E+03  0.00000000000E+00 0.  1.
        -13    1    3    3    0    0 -0.41731405174E+03 -0.36477348027E+03  0.48155705375E+03  0.73423967865E+03  0.00000000000E+00 0. -1.
          4    1    6    6  502    0  0.43336872231E+03  0.51064533211E+03 -0.66126728538E+03  0.94119154661E+03  0.00000000000E+00 0. -1.
          3    1    5    5  503    0  0.61131602434E+02 -0.15333200567E+02  0.24670818553E+03  0.25463131909E+03  0.00000000000E+00 0. -1.
         -4    1    5    5    0  503 -0.77659299874E+01 -0.98555116165E+00 -0.24155745912E+01  0.81924343310E+01  0.00000000000E+00 0.  1.
         -3    1    6    6    0  502  0.16628834078E+02  0.29779287471E+01 -0.23416148750E+02  0.28873901793E+02  0.00000000000E+00 0.  1.
<mgrwt>
<rscale>  0 0.21880410E+04</rscale>
<asrwt>0</asrwt>
<pdfrwt beam="1">  1        2 0.18520124E+00 0.21880410E+04</pdfrwt>
<pdfrwt beam="2">  1       -2 0.15296086E+00 0.21880410E+04</pdfrwt>
<totfact> 0.49036262E+00</totfact>
</mgrwt>
</event>
<event>
12    1  0.1472088E-007  0.2497192E+04  0.7818608E-02  0.8403987E-01
          2   -1    0    0  501    0  0.00000000000E+00  0.00000000000E+00  0.24217113656E+04  0.24217113656E+04  0.00000000000E+00 0. -1.
         -2   -1    0    0    0  501 -0.00000000000E+00 -0.00000000000E+00 -0.64375626570E+03  0.64375626570E+03  0.00000000000E+00 0.  1.
         23    2    1    2    0    0 -0.44782664110E+03  0.59798241373E+03 -0.19105540145E+03  0.77636380648E+03  0.90038469407E+02 0.  0.
        254    2    1    2    0    0  0.44782664110E+03 -0.59798241373E+03  0.19690105014E+04  0.22891038248E+04  0.89714118108E+03 0.  0.
        -24    2    4    4    0    0  0.67521218284E+03 -0.32412317276E+03  0.98795552042E+03  0.12424679106E+04  0.81872312749E+02 0.  0.
         24    2    4    4    0    0 -0.22738554174E+03 -0.27385924097E+03  0.98105498095E+03  0.10466359142E+04  0.79213590139E+02 0.  0.
         13    1    3    3    0    0 -0.67069576212E+02  0.45131484105E+02 -0.13109552480E+02  0.81896515659E+02  0.00000000000E+00 0. -1.
        -13    1    3    3    0    0 -0.38075706489E+03  0.55285092963E+03 -0.17794584897E+03  0.69446729082E+03  0.00000000000E+00 0.  1.
          4    1    6    6  502    0 -0.52157287451E+02 -0.25697313329E+02  0.20976285913E+03  0.21767221140E+03  0.00000000000E+00 0. -1.
          3    1    5    5  503    0  0.91411664916E+02 -0.27774920862E+02  0.90641630706E+02  0.13169450987E+03  0.00000000000E+00 0. -1.
         -4    1    5    5    0  503  0.58380051792E+03 -0.29634825189E+03  0.89731388971E+03  0.11107734007E+04  0.00000000000E+00 0.  1.
         -3    1    6    6    0  502 -0.17522825428E+03 -0.24816192764E+03  0.77129212182E+03  0.82896370284E+03  0.00000000000E+00 0.  1.
<mgrwt>
<rscale>  0 0.24971919E+04</rscale>
<asrwt>0</asrwt>
<pdfrwt beam="1">  1        2 0.37257097E+00 0.24971919E+04</pdfrwt>
<pdfrwt beam="2">  1       -2 0.99039427E-01 0.24971919E+04</pdfrwt>
<totfact> 0.29118059E+00</totfact>
</mgrwt>
</event>
<event>
12    1  0.1472088E-007  0.1192504E+04  0.7818608E-02  0.9119444E-01
         -1   -1    0    0    0  501 -0.00000000000E+00  0.00000000000E+00  0.59684220900E+03  0.59684220900E+03  0.00000000000E+00 0.  1.
          1   -1    0    0  501    0  0.00000000000E+00 -0.00000000000E+00 -0.59566192089E+03  0.59566192089E+03  0.00000000000E+00 0. -1.
         23    2    1    2    0    0  0.17887816860E+02  0.56772349185E+02 -0.23413986124E+03  0.25788644588E+03  0.90226773884E+02 0.  0.
        254    2    1    2    0    0 -0.17887816860E+02 -0.56772349185E+02  0.23532014935E+03  0.93461768400E+03  0.90254726687E+03 0.  0.
        -24    2    4    4    0    0  0.34755432761E+03  0.18451602231E+03 -0.49499740291E+02  0.40599777744E+03  0.86855039416E+02 0.  0.
         24    2    4    4    0    0 -0.36544214447E+03 -0.24128837150E+03  0.28481988964E+03  0.52861990656E+03  0.80923401487E+02 0.  0.
         13    1    3    3    0    0 -0.30131046287E+02  0.31617569674E+02 -0.52299805025E+02  0.68138243800E+02  0.00000000000E+00 0. -1.
        -13    1    3    3    0    0  0.48018863147E+02  0.25154779511E+02 -0.18184005621E+03  0.18974820208E+03  0.00000000000E+00 0.  1.
          4    1    6    6  502    0 -0.10323282104E+03 -0.11416816144E+03  0.96877827473E+02  0.18187000270E+03  0.00000000000E+00 0. -1.
          1    1    5    5  503    0  0.13859454042E+03  0.10870519725E+03  0.82456258582E+01  0.17633280151E+03  0.00000000000E+00 0. -1.
         -2    1    5    5    0  503  0.20895978719E+03  0.75810825064E+02 -0.57745366149E+02  0.22966497593E+03  0.00000000000E+00 0.  1.
         -3    1    6    6    0  502 -0.26220932343E+03 -0.12712021006E+03  0.18794206217E+03  0.34674990386E+03  0.00000000000E+00 0.  1.
<mgrwt>
<rscale>  0 0.11925035E+04</rscale>
<asrwt>0</asrwt>
<pdfrwt beam="1">  1        1 0.91640295E-01 0.11925035E+04</pdfrwt>
<pdfrwt beam="2">  1       -1 0.91821878E-01 0.11925035E+04</pdfrwt>
<totfact> 0.39622095E+01</totfact>
</mgrwt>
</event>
<event>
12    1  0.1472088E-007  0.1448111E+04  0.7818608E-02  0.8919711E-01
         -1   -1    0    0    0  501 -0.00000000000E+00  0.00000000000E+00  0.51378944399E+03  0.51378944399E+03  0.00000000000E+00 0.  1.
          1   -1    0    0  501    0  0.00000000000E+00 -0.00000000000E+00 -0.10203717048E+04  0.10203717048E+04  0.00000000000E+00 0. -1.
         23    2    1    2    0    0 -0.47384247996E+02 -0.24873581054E+03  0.22025626723E+03  0.34779314229E+03  0.91282397910E+02 0.  0.
        254    2    1    2    0    0  0.47384247996E+02  0.24873581054E+03 -0.72683852800E+03  0.11863680065E+04  0.90280675152E+03 0.  0.
        -24    2    4    4    0    0 -0.74606258100E+02  0.57251470880E+03 -0.43588966187E+03  0.72729760154E+03  0.74985454198E+02 0.  0.
         24    2    4    4    0    0  0.12199050610E+03 -0.32377889826E+03 -0.29094886614E+03  0.45907040493E+03  0.79874498055E+02 0.  0.
         11    1    3    3    0    0  0.27153065621E+02 -0.59526007622E+02  0.61612601563E+02  0.89870725086E+02  0.00000000000E+00 0. -1.
        -11    1    3    3    0    0 -0.74537313617E+02 -0.18920980292E+03  0.15864366566E+03  0.25792241721E+03  0.00000000000E+00 0.  1.
          2    1    6    6  502    0  0.26523459788E+02 -0.14367359763E+02 -0.15279136580E+02  0.33813709651E+02  0.00000000000E+00 0. -1.
          1    1    5    5  503    0  0.13293393760E+02  0.71067990983E+02 -0.41973148615E+02  0.83600950142E+02  0.00000000000E+00 0. -1.
         -2    1    5    5    0  503 -0.87899651860E+02  0.50144671782E+03 -0.39391651325E+03  0.64369665140E+03  0.00000000000E+00 0.  1.
         -1    1    6    6    0  502  0.95467046308E+02 -0.30941153850E+03 -0.27566972956E+03  0.42525669528E+03  0.00000000000E+00 0.  1.
<mgrwt>
<rscale>  0 0.14481108E+04</rscale>
<asrwt>0</asrwt>
<pdfrwt beam="1">  1        1 0.15698026E+00 0.14481108E+04</pdfrwt>
<pdfrwt beam="2">  1       -1 0.79044530E-01 0.14481108E+04</pdfrwt>
<totfact> 0.22681584E+01</totfact>
</mgrwt>
</event>
<event>
12    1  0.1472088E-007  0.1792905E+04  0.7818608E-02  0.8710082E-01
         -1   -1    0    0    0  501 -0.00000000000E+00  0.00000000000E+00  0.21249788270E+04  0.21249788270E+04  0.00000000000E+00 0.  1.
          1   -1    0    0  501    0  0.00000000000E+00 -0.00000000000E+00 -0.37818128542E+03  0.37818128542E+03  0.00000000000E+00 0. -1.
         23    2    1    2    0    0  0.40414884206E+03  0.28532845328E+03  0.13098707551E+04  0.14032116947E+04  0.92157757701E+02 0.  0.
        254    2    1    2    0    0 -0.40414884206E+03 -0.28532845328E+03  0.43692678646E+03  0.10999484177E+04  0.87990504719E+03 0.  0.
        -24    2    4    4    0    0 -0.28437240907E+03 -0.24232187241E+03  0.69925943767E+03  0.79733202311E+03  0.84776394159E+02 0.  0.
         24    2    4    4    0    0 -0.11977643299E+03 -0.43006580865E+02 -0.26233265122E+03  0.30261639458E+03  0.81008039595E+02 0.  0.
         11    1    3    3    0    0  0.20818608124E+03  0.12595257212E+03  0.76224953313E+03  0.80014364061E+03  0.00000000000E+00 0.  1.
        -11    1    3    3    0    0  0.19596276082E+03  0.15937588115E+03  0.54762122195E+03  0.60306805408E+03  0.00000000000E+00 0. -1.
          2    1    6    6  502    0 -0.12253034851E+03 -0.49921428071E+02 -0.26371616131E+03  0.29504584224E+03  0.00000000000E+00 0. -1.
          1    1    5    5  503    0 -0.28843489741E+03 -0.23073961294E+03  0.68689194558E+03  0.77990768936E+03  0.00000000000E+00 0. -1.
         -2    1    5    5    0  503  0.40624883318E+01 -0.11582259468E+02  0.12367492094E+02  0.17424333747E+02  0.00000000000E+00 0.  1.
         -3    1    6    6    0  502  0.27539155245E+01  0.69148472059E+01  0.13835100931E+01  0.75705523428E+01  0.00000000000E+00 0.  1.
<mgrwt>
<rscale>  0 0.17929052E+04</rscale>
<asrwt>0</asrwt>
<pdfrwt beam="1">  1        1 0.58181738E-01 0.17929052E+04</pdfrwt>
<pdfrwt beam="2">  1       -1 0.32691981E+00 0.17929052E+04</pdfrwt>
<totfact> 0.13486783E+00</totfact>
</mgrwt>
</event>
<event>
12    1  0.1472088E-007  0.2796176E+04  0.7818608E-02  0.8304456E-01
          2   -1    0    0  501    0  0.00000000000E+00  0.00000000000E+00  0.18086772638E+04  0.18086772638E+04  0.00000000000E+00 0. -1.
         -2   -1    0    0    0  501 -0.00000000000E+00 -0.00000000000E+00 -0.10807072956E+04  0.10807072956E+04  0.00000000000E+00 0.  1.
         23    2    1    2    0    0 -0.98158073768E+02  0.12201876560E+04  0.63916132427E+02  0.12291276230E+04  0.90424103481E+02 0.  0.
        254    2    1    2    0    0  0.98158073768E+02 -0.12201876560E+04  0.66405383578E+03  0.16602569363E+04  0.90387647083E+03 0.  0.
        -24    2    4    4    0    0  0.26185222996E+03 -0.95355153964E+03  0.82891871414E+02  0.99558709456E+03  0.80594487527E+02 0.  0.
         24    2    4    4    0    0 -0.16369415619E+03 -0.26663611631E+03  0.58116196436E+03  0.66466984174E+03  0.78397540758E+02 0.  0.
         13    1    3    3    0    0 -0.11487397801E+03  0.10022651812E+04  0.47326856050E+02  0.10099363126E+04  0.00000000000E+00 0.  1.
        -13    1    3    3    0    0  0.16715904240E+02  0.21792247478E+03  0.16589276377E+02  0.21919131041E+03  0.00000000000E+00 0. -1.
          4    1    6    6  502    0 -0.10869716436E+02  0.11324096460E+01  0.70342929410E+01  0.12996705897E+02  0.00000000000E+00 0. -1.
          3    1    5    5  503    0  0.11569249988E+03 -0.38480451228E+03 -0.47982759664E+01  0.40184859170E+03  0.00000000000E+00 0. -1.
         -4    1    5    5    0  503  0.14615973008E+03 -0.56874702736E+03  0.87690147381E+02  0.59373850285E+03  0.00000000000E+00 0.  1.
         -3    1    6    6    0  502 -0.15282443976E+03 -0.26776852596E+03  0.57412767142E+03  0.65167313584E+03  0.00000000000E+00 0.  1.
<mgrwt>
<rscale>  0 0.27961765E+04</rscale>
<asrwt>0</asrwt>
<pdfrwt beam="1">  1        2 0.27825804E+00 0.27961765E+04</pdfrwt>
<pdfrwt beam="2">  1       -2 0.16626266E+00 0.27961765E+04</pdfrwt>
<totfact> 0.16841232E+00</totfact>
</mgrwt>
</event>
<event>
12    1  0.1472088E-007  0.1621228E+04  0.7818608E-02  0.8807612E-01
          2   -1    0    0  501    0  0.00000000000E+00  0.00000000000E+00  0.39624380792E+04  0.39624380792E+04  0.00000000000E+00 0.  1.
         -2   -1    0    0    0  501 -0.00000000000E+00 -0.00000000000E+00 -0.16583099657E+03  0.16583099657E+03  0.00000000000E+00 0. -1.
         23    2    1    2    0    0 -0.23670627506E+03 -0.25933162286E+03  0.20836914606E+03  0.41811264309E+03  0.90098446250E+02 0.  0.
        254    2    1    2    0    0  0.23670627506E+03  0.25933162286E+03  0.35882379366E+04  0.37101564327E+04  0.87551499938E+03 0.  0.
        -24    2    4    4    0    0  0.35090890049E+03  0.11148495821E+03  0.34350072580E+04  0.34555901752E+04  0.79136872382E+02 0.  0.
         24    2    4    4    0    0 -0.11420262543E+03  0.14784666465E+03  0.15323067859E+03  0.25456625741E+03  0.80146507396E+02 0.  0.
         11    1    3    3    0    0 -0.74739360239E+02 -0.14144644652E+03  0.69863559049E+02  0.17456799846E+03  0.00000000000E+00 0.  1.
        -11    1    3    3    0    0 -0.16196691482E+03 -0.11788517633E+03  0.13850558701E+03  0.24354464463E+03  0.00000000000E+00 0. -1.
          2    1    6    6  502    0 -0.12495562992E+03  0.14377242860E+03  0.15045570790E+03  0.24273718445E+03  0.00000000000E+00 0. -1.
          3    1    5    5  503    0  0.32001629996E+03  0.81552310593E+02  0.28672558219E+04  0.28862115584E+04  0.00000000000E+00 0. -1.
         -4    1    5    5    0  503  0.30892600533E+02  0.29932647615E+02  0.56775143612E+03  0.56937861689E+03  0.00000000000E+00 0.  1.
         -1    1    6    6    0  502  0.10753004487E+02  0.40742360550E+01  0.27749706904E+01  0.11829072967E+02  0.00000000000E+00 0.  1.
<mgrwt>
<rscale>  0 0.16212280E+04</rscale>
<asrwt>0</asrwt>
<pdfrwt beam="1">  1        2 0.60960578E+00 0.16212280E+04</pdfrwt>
<pdfrwt beam="2">  1       -2 0.25512464E-01 0.16212280E+04</pdfrwt>
<totfact> 0.49478932E+00</totfact>
</mgrwt>
</event>
<event>
12    1  0.1472088E-007  0.1704838E+04  0.7818608E-02  0.8758610E-01
         -1   -1    0    0    0  501 -0.00000000000E+00  0.00000000000E+00  0.49508358681E+03  0.49508358681E+03  0.00000000000E+00 0.  1.
          1   -1    0    0  501    0  0.00000000000E+00 -0.00000000000E+00 -0.14676679414E+04  0.14676679414E+04  0.00000000000E+00 0. -1.
         23    2    1    2    0    0  0.43582704341E+03 -0.16514662332E+03  0.99082161500E+02  0.48534287749E+03  0.92313677470E+02 0.  0.
        254    2    1    2    0    0 -0.43582704341E+03  0.16514662332E+03 -0.10716665161E+04  0.14774086508E+04  0.90390739603E+03 0.  0.
        -24    2    4    4    0    0 -0.27966851360E+03 -0.16546850158E+03  0.96539842218E+01  0.33327977329E+03  0.73402352540E+02 0.  0.
         24    2    4    4    0    0 -0.15615852981E+03  0.33061512490E+03 -0.10813205004E+04  0.11441288775E+04  0.78006516025E+02 0.  0.
         11    1    3    3    0    0  0.42575859607E+03 -0.14037607529E+03  0.91441599702E+02  0.45753403240E+03  0.00000000000E+00 0.  1.
        -11    1    3    3    0    0  0.10068447336E+02 -0.24770548023E+02  0.76405617977E+01  0.27808845099E+02  0.00000000000E+00 0. -1.
          4    1    6    6  502    0 -0.14953217772E+03  0.29888098090E+03 -0.10347872818E+04  0.10874164021E+04  0.00000000000E+00 0. -1.
          3    1    5    5  503    0 -0.25338454721E+03 -0.11947430833E+03  0.96502539799E+01  0.28030513110E+03  0.00000000000E+00 0. -1.
         -4    1    5    5    0  503 -0.26283966390E+02 -0.45994193248E+02  0.37302418901E-02  0.52974642195E+02  0.00000000000E+00 0.  1.
         -3    1    6    6    0  502 -0.66263520847E+01  0.31734143996E+02 -0.46533218540E+02  0.56712475389E+02  0.00000000000E+00 0.  1.
<mgrwt>
<rscale>  0 0.17048382E+04</rscale>
<asrwt>0</asrwt>
<pdfrwt beam="1">  1        1 0.22579507E+00 0.17048382E+04</pdfrwt>
<pdfrwt beam="2">  1       -1 0.76166707E-01 0.17048382E+04</pdfrwt>
<totfact> 0.11342464E+01</totfact>
</mgrwt>
</event>
<event>
12    1  0.1472088E-007  0.2209848E+04  0.7818608E-02  0.8514340E-01
         -2   -1    0    0    0  501 -0.00000000000E+00  0.00000000000E+00  0.40964310170E+03  0.40964310170E+03  0.00000000000E+00 0.  1.
          2   -1    0    0  501    0  0.00000000000E+00 -0.00000000000E+00 -0.29802938480E+04  0.29802938480E+04  0.00000000000E+00 0. -1.
         23    2    1    2    0    0  0.27156701920E+03 -0.36920177789E+03 -0.22655583522E+04  0.23132039627E+04  0.89996259914E+02 0.  0.
        254    2    1    2    0    0 -0.27156701920E+03  0.36920177789E+03 -0.30509239402E+03  0.10767329870E+04  0.92531830073E+03 0.  0.
        -24    2    4    4    0    0 -0.45068794391E+02 -0.28816362412E+03  0.23592970399E+02  0.30352946668E+03  0.80647618687E+02 0.  0.
         24    2    4    4    0    0 -0.22649822481E+03  0.65736540201E+03 -0.32868536442E+03  0.77320352031E+03  0.79868000031E+02 0.  0.
         13    1    3    3    0    0  0.27644777352E+02 -0.24274311027E+02 -0.33200227933E+03  0.33403441345E+03  0.00000000000E+00 0.  1.
        -13    1    3    3    0    0  0.24392224185E+03 -0.34492746687E+03 -0.19335560729E+04  0.19791695492E+04  0.00000000000E+00 0. -1.
          2    1    6    6  502    0 -0.20659919353E+03  0.63990149685E+03 -0.32361602513E+03  0.74624693243E+03  0.00000000000E+00 0. -1.
          1    1    5    5  503    0 -0.22074781981E+02 -0.27415327840E+03  0.27115408880E+02  0.27637395220E+03  0.00000000000E+00 0. -1.
         -2    1    5    5    0  503 -0.22994012410E+02 -0.14010345717E+02 -0.35224384811E+01  0.27155514480E+02  0.00000000000E+00 0.  1.
         -1    1    6    6    0  502 -0.19899031278E+02  0.17463905165E+02 -0.50693392919E+01  0.26956587883E+02  0.00000000000E+00 0.  1.
<mgrwt>
<rscale>  0 0.22098478E+04</rscale>
<asrwt>0</asrwt>
<pdfrwt beam="1">  1        2 0.45850675E+00 0.22098478E+04</pdfrwt>
<pdfrwt beam="2">  1       -2 0.63022015E-01 0.22098478E+04</pdfrwt>
<totfact> 0.38208120E+00</totfact>
</mgrwt>
</event>
<event>
12    1  0.1472088E-007  0.1105097E+04  0.7818608E-02  0.9200238E-01
         -2   -1    0    0    0  501 -0.00000000000E+00  0.00000000000E+00  0.29467265744E+03  0.29467265744E+03  0.00000000000E+00 0.  1.
          2   -1    0    0  501    0  0.00000000000E+00 -0.00000000000E+00 -0.10360992547E+04  0.10360992547E+04  0.00000000000E+00 0. -1.
         23    2    1    2    0    0 -0.12093714824E+02  0.13324271502E+03 -0.26992489822E+03  0.31482804991E+03  0.91418659412E+02 0.  0.
        254    2    1    2    0    0  0.12093714824E+02 -0.13324271502E+03 -0.47150169901E+03  0.10159438622E+04  0.88990347788E+03 0.  0.
        -24    2    4    4    0    0 -0.43057225278E+03 -0.32996881688E+02 -0.22819455260E+03  0.49496215724E+03  0.80209252605E+02 0.  0.
         24    2    4    4    0    0  0.44266596760E+03 -0.10024583334E+03 -0.24330714641E+03  0.52098170496E+03  0.78874478978E+02 0.  0.
         13    1    3    3    0    0 -0.13957263520E+02  0.90459722211E+01 -0.11529339047E+03  0.11648691216E+03  0.00000000000E+00 0.  1.
        -13    1    3    3    0    0  0.18635486957E+01  0.12419674280E+03 -0.15463150774E+03  0.19834113775E+03  0.00000000000E+00 0. -1.
          4    1    6    6  502    0  0.15218614826E+03 -0.70327381260E+02 -0.10548863648E+03  0.19807679497E+03  0.00000000000E+00 0. -1.
          1    1    5    5  503    0 -0.95710880644E+02 -0.26668332546E+01 -0.90103175373E+02  0.13147724855E+03  0.00000000000E+00 0. -1.
         -2    1    5    5    0  503 -0.33486137214E+03 -0.30330048433E+02 -0.13809137723E+03  0.36348490870E+03  0.00000000000E+00 0.  1.
         -3    1    6    6    0  502  0.29047981934E+03 -0.29918452076E+02 -0.13781850993E+03  0.32290491000E+03  0.00000000000E+00 0.  1.
<mgrwt>
<rscale>  0 0.11050975E+04</rscale>
<asrwt>0</asrwt>
<pdfrwt beam="1">  1        2 0.15939988E+00 0.11050975E+04</pdfrwt>
<pdfrwt beam="2">  1       -2 0.45334256E-01 0.11050975E+04</pdfrwt>
<totfact> 0.10934848E+02</totfact>
</mgrwt>
</event>
<event>
12    1  0.1472088E-007  0.1615579E+04  0.7818608E-02  0.8811034E-01
          1   -1    0    0  501    0  0.00000000000E+00  0.00000000000E+00  0.68583977134E+03  0.68583977134E+03  0.00000000000E+00 0. -1.
         -1   -1    0    0    0  501 -0.00000000000E+00 -0.00000000000E+00 -0.95142334517E+03  0.95142334517E+03  0.00000000000E+00 0.  1.
         23    2    1    2    0    0  0.47055246945E+03 -0.27509206492E+03 -0.35909979871E+02  0.55545888115E+03  0.10074607338E+03 0.  0.
        254    2    1    2    0    0 -0.47055246945E+03  0.27509206492E+03 -0.22967359396E+03  0.10818042354E+04  0.90578980629E+03 0.  0.
        -24    2    4    4    0    0 -0.73321270845E+02 -0.12203856719E+03 -0.44617943884E+03  0.47455316310E+03  0.76519228470E+02 0.  0.
         24    2    4    4    0    0 -0.39723119861E+03  0.39713063212E+03  0.21650584488E+03  0.60725107226E+03  0.79835579688E+02 0.  0.
         11    1    3    3    0    0  0.11675179404E+03 -0.29476742841E+02 -0.32587100020E+02  0.12474685915E+03  0.00000000000E+00 0.  1.
        -11    1    3    3    0    0  0.35380067541E+03 -0.24561532208E+03 -0.33228798514E+01  0.43071202200E+03  0.00000000000E+00 0. -1.
          2    1    6    6  502    0 -0.39349852130E+03  0.40044504753E+03  0.21763785741E+03  0.60213250978E+03  0.00000000000E+00 0. -1.
          1    1    5    5  503    0 -0.49741415531E+02 -0.12345847640E+03 -0.32692901360E+03  0.35298552909E+03  0.00000000000E+00 0. -1.
         -2    1    5    5    0  503 -0.23579855315E+02  0.14199092110E+01 -0.11925042524E+03  0.12156763401E+03  0.00000000000E+00 0.  1.
         -1    1    6    6    0  502 -0.37326773074E+01 -0.33144154182E+01 -0.11320125357E+01  0.51185624765E+01  0.00000000000E+00 0.  1.
<mgrwt>
<rscale>  0 0.16155791E+04</rscale>
<asrwt>0</asrwt>
<pdfrwt beam="1">  1        1 0.10551381E+00 0.16155791E+04</pdfrwt>
<pdfrwt beam="2">  1       -1 0.14637282E+00 0.16155791E+04</pdfrwt>
<totfact> 0.10035560E+01</totfact>
</mgrwt>
</event>
<event>
12    1  0.1472088E-007  0.1062426E+04  0.7818608E-02  0.9242608E-01
         -2   -1    0    0    0  501 -0.00000000000E+00  0.00000000000E+00  0.11569110635E+03  0.11569110635E+03  0.00000000000E+00 0.  1.
          2   -1    0    0  501    0  0.00000000000E+00 -0.00000000000E+00 -0.24391460018E+04  0.24391460018E+04  0.00000000000E+00 0. -1.
         23    2    1    2    0    0 -0.57465287130E+02  0.87706511787E+02 -0.19601270579E+03  0.24322570211E+03  0.98706990135E+02 0.  0.
        254    2    1    2    0    0  0.57465287130E+02 -0.87706511787E+02 -0.21274421897E+04  0.23116114061E+04  0.89807701827E+03 0.  0.
        -24    2    4    4    0    0 -0.37686086100E+02 -0.23264927253E+03 -0.89689053225E+02  0.26477148025E+03  0.80708645061E+02 0.  0.
         24    2    4    4    0    0  0.95151373230E+02  0.14494276075E+03 -0.20377531365E+04  0.20468399258E+04  0.83986005009E+02 0.  0.
         11    1    3    3    0    0 -0.65826277378E+01  0.50092281261E+02 -0.16915974980E+02  0.53279619362E+02  0.00000000000E+00 0.  1.
        -11    1    3    3    0    0 -0.50882659392E+02  0.37614230526E+02 -0.17909673081E+03  0.18994608275E+03  0.00000000000E+00 0. -1.
          4    1    6    6  502    0  0.10274834611E+03  0.88268904009E+02 -0.14451838878E+04  0.14515182023E+04  0.00000000000E+00 0. -1.
          3    1    5    5  503    0 -0.47103260031E+02 -0.61778239796E+02 -0.22015566292E+02  0.80746227014E+02  0.00000000000E+00 0. -1.
         -4    1    5    5    0  503  0.94171739310E+01 -0.17087103274E+03 -0.67673486933E+02  0.18402525323E+03  0.00000000000E+00 0.  1.
         -3    1    6    6    0  502 -0.75969728839E+01  0.56673856736E+02 -0.59256924871E+03  0.59532172357E+03  0.00000000000E+00 0.  1.
<mgrwt>
<rscale>  0 0.10624265E+04</rscale>
<asrwt>0</asrwt>
<pdfrwt beam="1">  1        2 0.37525323E+00 0.10624265E+04</pdfrwt>
<pdfrwt beam="2">  1       -2 0.17798632E-01 0.10624265E+04</pdfrwt>
<totfact> 0.99276580E+01</totfact>
</mgrwt>
</event>
<event>
12    1  0.1472088E-007  0.1999394E+04  0.7818608E-02  0.8606904E-01
         -2   -1    0    0    0  501 -0.00000000000E+00  0.00000000000E+00  0.37553811156E+03  0.37553811156E+03  0.00000000000E+00 0. -1.
          2   -1    0    0  501    0  0.00000000000E+00 -0.00000000000E+00 -0.26612316817E+04  0.26612316817E+04  0.00000000000E+00 0.  1.
         23    2    1    2    0    0 -0.69742804856E+03 -0.32503966997E+03 -0.12024271771E+04  0.14304726575E+04  0.91456205436E+02 0.  0.
        254    2    1    2    0    0  0.69742804856E+03  0.32503966997E+03 -0.10832663930E+04  0.16062971358E+04  0.90258946383E+03 0.  0.
        -24    2    4    4    0    0  0.31854954894E+03  0.88387402998E+02 -0.11021114100E+04  0.11533709991E+04  0.79554720348E+02 0.  0.
         24    2    4    4    0    0  0.37887849962E+03  0.23665226697E+03  0.18845016981E+02  0.45292613662E+03  0.72344575717E+02 0.  0.
         11    1    3    3    0    0 -0.61095534667E+03 -0.31222893162E+03 -0.10382732137E+04  0.12444937154E+04  0.00000000000E+00 0. -1.
        -11    1    3    3    0    0 -0.86472701887E+02 -0.12810738347E+02 -0.16415396338E+03  0.18597894204E+03  0.00000000000E+00 0.  1.
          4    1    6    6  502    0  0.23816832021E+03  0.13481330428E+03 -0.21780793058E+02  0.27454176132E+03  0.00000000000E+00 0. -1.
          3    1    5    5  503    0  0.17269101784E+03  0.31197898353E+02 -0.70398321086E+03  0.72552591800E+03  0.00000000000E+00 0. -1.
         -4    1    5    5    0  503  0.14585853109E+03  0.57189504645E+02 -0.39812819911E+03  0.42784508115E+03  0.00000000000E+00 0.  1.
         -3    1    6    6    0  502  0.14071017941E+03  0.10183896269E+03  0.40625810039E+02  0.17838437531E+03  0.00000000000E+00 0.  1.
<mgrwt>
<rscale>  0 0.19993938E+04</rscale>
<asrwt>0</asrwt>
<pdfrwt beam="1">  1        2 0.40942026E+00 0.19993938E+04</pdfrwt>
<pdfrwt beam="2">  1       -2 0.57775094E-01 0.19993938E+04</pdfrwt>
<totfact> 0.73046786E+00</totfact>
</mgrwt>
</event>
<event>
12    1  0.1472088E-007  0.2984529E+04  0.7818608E-02  0.8248163E-01
         -2   -1    0    0    0  501 -0.00000000000E+00  0.00000000000E+00  0.95263240610E+03  0.95263240610E+03  0.00000000000E+00 0.  1.
          2   -1    0    0  501    0  0.00000000000E+00 -0.00000000000E+00 -0.23375781743E+04  0.23375781743E+04  0.00000000000E+00 0. -1.
         23    2    1    2    0    0 -0.96549388153E+03 -0.28357892873E+03  0.36508719532E+03  0.10749076734E+04  0.97685219000E+02 0.  0.
        254    2    1    2    0    0  0.96549388153E+03  0.28357892873E+03 -0.17500329635E+04  0.22153029070E+04  0.91233554810E+03 0.  0.
        -24    2    4    4    0    0  0.85497375700E+03  0.37819379805E+03 -0.18133634710E+04  0.20417501784E+04  0.80287227634E+02 0.  0.
         24    2    4    4    0    0  0.11052012453E+03 -0.94614869325E+02  0.63330507499E+02  0.17355272862E+03  0.70307360972E+02 0.  0.
         11    1    3    3    0    0 -0.52751366620E+03 -0.20414265043E+03  0.19252563473E+03  0.59750398306E+03  0.00000000000E+00 0. -1.
        -11    1    3    3    0    0 -0.43798021533E+03 -0.79436278299E+02  0.17256156059E+03  0.47740369031E+03  0.00000000000E+00 0.  1.
          2    1    6    6  502    0  0.49795368973E+02 -0.86590218256E+01 -0.35058556896E+00  0.50543845723E+02  0.00000000000E+00 0. -1.
          1    1    5    5  503    0  0.16020776618E+03  0.74479000457E+02 -0.41492703123E+03  0.45097460139E+03  0.00000000000E+00 0. -1.
         -2    1    5    5    0  503  0.69476599081E+03  0.30371479759E+03 -0.13984364398E+04  0.15907755770E+04  0.00000000000E+00 0.  1.
         -1    1    6    6    0  502  0.60724755560E+02 -0.85955847500E+02  0.63681093068E+02  0.12300888290E+03  0.00000000000E+00 0.  1.
<mgrwt>
<rscale>  0 0.29845286E+04</rscale>
<asrwt>0</asrwt>
<pdfrwt beam="1">  1        2 0.35962741E+00 0.29845286E+04</pdfrwt>
<pdfrwt beam="2">  1       -2 0.14655883E+00 0.29845286E+04</pdfrwt>
<totfact> 0.11783753E+00</totfact>
</mgrwt>
</event>
<event>
12    1  0.1513343E-007  0.2732733E+04  0.7818608E-02  0.8324462E-01
         -1   -1    0    0    0  501 -0.00000000000E+00  0.00000000000E+00  0.15577874757E+04  0.15577874757E+04  0.00000000000E+00 0.  1.
          1   -1    0    0  501    0  0.00000000000E+00 -0.00000000000E+00 -0.11984673995E+04  0.11984673995E+04  0.00000000000E+00 0. -1.
         23    2    1    2    0    0 -0.22504494158E+03 -0.42961573494E+02  0.13653294479E+04  0.13888244916E+04  0.11053526343E+03 0.  0.
        254    2    1    2    0    0  0.22504494158E+03  0.42961573494E+02 -0.10060093716E+04  0.13674303836E+04  0.89739627575E+03 0.  0.
        -24    2    4    4    0    0 -0.26509500437E+03 -0.68617691224E+02 -0.57754224820E+02  0.29089395506E+03  0.79372499721E+02 0.  0.
         24    2    4    4    0    0  0.49013994596E+03  0.11157926472E+03 -0.94825514682E+03  0.10765364286E+04  0.83998569268E+02 0.  0.
         11    1    3    3    0    0 -0.18152399379E+03 -0.34047852235E+02  0.12734015984E+04  0.12867252416E+04  0.00000000000E+00 0.  1.
        -11    1    3    3    0    0 -0.43520947797E+02 -0.89137212585E+01  0.91927849481E+02  0.10209924992E+03  0.00000000000E+00 0. -1.
          2    1    6    6  502    0  0.87843202662E+02  0.13711031498E+02 -0.24270548287E+03  0.25847702423E+03  0.00000000000E+00 0. -1.
          3    1    5    5  503    0 -0.31894159385E+02  0.14637165883E+02 -0.20069540117E+02  0.40426111221E+02  0.00000000000E+00 0. -1.
         -4    1    5    5    0  503 -0.23320084499E+03 -0.83254857106E+02 -0.37684684703E+02  0.25046784384E+03  0.00000000000E+00 0.  1.
         -1    1    6    6    0  502  0.40229674330E+03  0.97868233220E+02 -0.70554966395E+03  0.81805940435E+03  0.00000000000E+00 0.  1.
<mgrwt>
<rscale>  0 0.27327331E+04</rscale>
<asrwt>0</asrwt>
<pdfrwt beam="1">  1        1 0.18437960E+00 0.27327331E+04</pdfrwt>
<pdfrwt beam="2">  1       -1 0.23965961E+00 0.27327331E+04</pdfrwt>
<totfact> 0.76016862E-01</totfact>
</mgrwt>
</event>
<event>
12    1  0.1472088E-007  0.1286197E+04  0.7818608E-02  0.9040583E-01
         -2   -1    0    0    0  501 -0.00000000000E+00  0.00000000000E+00  0.18534640773E+03  0.18534640773E+03  0.00000000000E+00 0.  1.
          2   -1    0    0  501    0  0.00000000000E+00 -0.00000000000E+00 -0.22313674437E+04  0.22313674437E+04  0.00000000000E+00 0. -1.
         23    2    1    2    0    0 -0.72279250595E+02  0.25954562449E+03 -0.19933472071E+03  0.34733921406E+03  0.91224873162E+02 0.  0.
        254    2    1    2    0    0  0.72279250595E+02 -0.25954562449E+03 -0.18466863152E+04  0.20693746374E+04  0.89413244073E+03 0.  0.
        -24    2    4    4    0    0  0.44590167873E+03 -0.57908462479E+02 -0.12696498322E+04  0.13487975215E+04  0.71150266945E+02 0.  0.
         24    2    4    4    0    0 -0.37362242814E+03 -0.20163716201E+03 -0.57703648301E+03  0.72057711582E+03  0.77517825107E+02 0.  0.
         13    1    3    3    0    0 -0.64949124572E+02  0.21629777790E+03 -0.11770780016E+03  0.25467281702E+03  0.00000000000E+00 0.  1.
        -13    1    3    3    0    0 -0.73301260231E+01  0.43247846589E+02 -0.81626920556E+02  0.92666397046E+02  0.00000000000E+00 0. -1.
          2    1    6    6  502    0 -0.24848193365E+03 -0.12498533769E+03 -0.43516074700E+03  0.51645859632E+03  0.00000000000E+00 0. -1.
          3    1    5    5  503    0  0.17990127964E+03 -0.38921388682E+02 -0.42774116426E+03  0.46566280560E+03  0.00000000000E+00 0. -1.
         -4    1    5    5    0  503  0.26600039909E+03 -0.18987073797E+02 -0.84190866797E+03  0.88313471593E+03  0.00000000000E+00 0.  1.
         -1    1    6    6    0  502 -0.12514049449E+03 -0.76651824325E+02 -0.14187573600E+03  0.20411851950E+03  0.00000000000E+00 0.  1.
<mgrwt>
<rscale>  0 0.12861974E+04</rscale>
<asrwt>0</asrwt>
<pdfrwt beam="1">  1        2 0.34328728E+00 0.12861974E+04</pdfrwt>
<pdfrwt beam="2">  1       -2 0.28514834E-01 0.12861974E+04</pdfrwt>
<totfact> 0.54955303E+01</totfact>
</mgrwt>
</event>
<event>
12    1  0.1472088E-007  0.1170075E+04  0.7818608E-02  0.9139461E-01
         -2   -1    0    0    0  501 -0.00000000000E+00  0.00000000000E+00  0.10650076928E+03  0.10650076928E+03  0.00000000000E+00 0.  1.
          2   -1    0    0  501    0  0.00000000000E+00 -0.00000000000E+00 -0.32137676110E+04  0.32137676110E+04  0.00000000000E+00 0. -1.
         23    2    1    2    0    0 -0.14040813785E+03 -0.17019747528E+03 -0.57961123142E+03  0.62874604990E+03  0.10339627608E+03 0.  0.
        254    2    1    2    0    0  0.14040813785E+03  0.17019747528E+03 -0.25276556103E+04  0.26915223304E+04  0.89809127873E+03 0.  0.
        -24    2    4    4    0    0 -0.16932888241E+03 -0.21953257751E+03 -0.33572139120E+03  0.44236684321E+03  0.78184067728E+02 0.  0.
         24    2    4    4    0    0  0.30973702027E+03  0.38973005280E+03 -0.21919342191E+04  0.22491554872E+04  0.79361507717E+02 0.  0.
         11    1    3    3    0    0 -0.14574226320E+03 -0.12814304851E+03 -0.40546502318E+03  0.44951455281E+03  0.00000000000E+00 0.  1.
        -11    1    3    3    0    0  0.53341253514E+01 -0.42054426776E+02 -0.17414620824E+03  0.17923149709E+03  0.00000000000E+00 0. -1.
          4    1    6    6  502    0  0.29684917041E+03  0.33535039742E+03 -0.19207778775E+04  0.19722999198E+04  0.00000000000E+00 0. -1.
          1    1    5    5  503    0 -0.13718774375E+03 -0.16598710555E+03 -0.20417339348E+03  0.29674731818E+03  0.00000000000E+00 0. -1.
         -2    1    5    5    0  503 -0.32141138667E+02 -0.53545471964E+02 -0.13154799773E+03  0.14561952503E+03  0.00000000000E+00 0.  1.
         -3    1    6    6    0  502  0.12887849852E+02  0.54379655376E+02 -0.27115634166E+03  0.27685556743E+03  0.00000000000E+00 0.  1.
<mgrwt>
<rscale>  0 0.11700747E+04</rscale>
<asrwt>0</asrwt>
<pdfrwt beam="1">  1        2 0.49442581E+00 0.11700747E+04</pdfrwt>
<pdfrwt beam="2">  1       -2 0.16384733E-01 0.11700747E+04</pdfrwt>
<totfact> 0.38715576E+01</totfact>
</mgrwt>
</event>
<event>
12    1  0.1472088E-007  0.1500775E+04  0.7818608E-02  0.8883938E-01
         -2   -1    0    0    0  501 -0.00000000000E+00  0.00000000000E+00  0.58783315351E+03  0.58783315351E+03  0.00000000000E+00 0.  1.
          2   -1    0    0  501    0  0.00000000000E+00 -0.00000000000E+00 -0.95789349883E+03  0.95789349883E+03  0.00000000000E+00 0. -1.
         23    2    1    2    0    0  0.39468013162E+03  0.26013076722E+03 -0.10751111390E+03  0.49332449619E+03  0.91487685384E+02 0.  0.
        254    2    1    2    0    0 -0.39468013162E+03 -0.26013076722E+03 -0.26254923142E+03  0.10524021561E+04  0.90287196047E+03 0.  0.
        -24    2    4    4    0    0  0.85363502432E+02 -0.80748188320E+01  0.26616563959E+03  0.29070599086E+03  0.79458764004E+02 0.  0.
         24    2    4    4    0    0 -0.48004363405E+03 -0.25205594839E+03 -0.52871487101E+03  0.76169616529E+03  0.81655016261E+02 0.  0.
         11    1    3    3    0    0  0.94936410648E+02  0.51162421955E+02  0.12868468199E+02  0.10860991189E+03  0.00000000000E+00 0. -1.
        -11    1    3    3    0    0  0.29974372097E+03  0.20896834526E+03 -0.12037958210E+03  0.38471458430E+03  0.00000000000E+00 0.  1.
          4    1    6    6  502    0 -0.32016395673E+03 -0.20879059181E+03 -0.35453903431E+03  0.52134096066E+03  0.00000000000E+00 0. -1.
          1    1    5    5  503    0  0.64271539447E+02  0.30608105657E+02  0.18722671620E+03  0.20030359501E+03  0.00000000000E+00 0. -1.
         -2    1    5    5    0  503  0.21091962985E+02 -0.38682924489E+02  0.78938923391E+02  0.90402395852E+02  0.00000000000E+00 0.  1.
         -3    1    6    6    0  502 -0.15987967732E+03 -0.43265356573E+02 -0.17417583670E+03  0.24035520463E+03  0.00000000000E+00 0.  1.
<mgrwt>
<rscale>  0 0.15007752E+04</rscale>
<asrwt>0</asrwt>
<pdfrwt beam="1">  1        2 0.14736823E+00 0.15007752E+04</pdfrwt>
<pdfrwt beam="2">  1       -2 0.90435871E-01 0.15007752E+04</pdfrwt>
<totfact> 0.27093862E+01</totfact>
</mgrwt>
</event>
<event>
12    1  0.1472088E-007  0.1499099E+04  0.7818608E-02  0.8885052E-01
          1   -1    0    0  501    0  0.00000000000E+00  0.00000000000E+00  0.50405133795E+03  0.50405133795E+03  0.00000000000E+00 0. -1.
         -1   -1    0    0    0  501 -0.00000000000E+00 -0.00000000000E+00 -0.11146173452E+04  0.11146173452E+04  0.00000000000E+00 0.  1.
         23    2    1    2    0    0 -0.34771731750E+03  0.79715880432E+02  0.14233225254E+03  0.39548810103E+03  0.94288989092E+02 0.  0.
        254    2    1    2    0    0  0.34771731750E+03 -0.79715880432E+02 -0.75289825977E+03  0.12231805821E+04  0.89557411328E+03 0.  0.
        -24    2    4    4    0    0  0.63406861831E+03  0.43430022567E+02 -0.53379369459E+03  0.83424058817E+03  0.84216809417E+02 0.  0.
         24    2    4    4    0    0 -0.28635130081E+03 -0.12314590300E+03 -0.21910456518E+03  0.38893999393E+03  0.78137874880E+02 0.  0.
         11    1    3    3    0    0 -0.20087483569E+02  0.23243128135E+02 -0.62262642031E+01  0.31345117125E+02  0.00000000000E+00 0.  1.
        -11    1    3    3    0    0 -0.32762983393E+03  0.56472752297E+02  0.14855851674E+03  0.36414298391E+03  0.00000000000E+00 0. -1.
          2    1    6    6  502    0 -0.26446630772E+03 -0.12860566343E+03 -0.21851767651E+03  0.36637660888E+03  0.00000000000E+00 0. -1.
          3    1    5    5  503    0  0.54916266081E+03  0.62717252916E+02 -0.47866558278E+03  0.73118658493E+03  0.00000000000E+00 0. -1.
         -4    1    5    5    0  503  0.84905957495E+02 -0.19287230349E+02 -0.55128111814E+02  0.10305400325E+03  0.00000000000E+00 0.  1.
         -1    1    6    6    0  502 -0.21884993093E+02  0.54597604308E+01 -0.58688867218E+00  0.22563385051E+02  0.00000000000E+00 0.  1.
<mgrwt>
<rscale>  0 0.14990989E+04</rscale>
<asrwt>0</asrwt>
<pdfrwt beam="1">  1        1 0.77546360E-01 0.14990989E+04</pdfrwt>
<pdfrwt beam="2">  1       -1 0.17147959E+00 0.14990989E+04</pdfrwt>
<totfact> 0.10174679E+01</totfact>
</mgrwt>
</event>
<event>
12    1  0.1472088E-007  0.1704703E+04  0.7818608E-02  0.8758687E-01
         -2   -1    0    0    0  501 -0.00000000000E+00  0.00000000000E+00  0.10258886173E+04  0.10258886173E+04  0.00000000000E+00 0.  1.
          2   -1    0    0  501    0  0.00000000000E+00 -0.00000000000E+00 -0.70816925252E+03  0.70816925252E+03  0.00000000000E+00 0. -1.
         23    2    1    2    0    0 -0.27855955484E+03  0.50193252006E+03  0.31749739441E+03  0.66214725739E+03  0.90015080506E+02 0.  0.
        254    2    1    2    0    0  0.27855955484E+03 -0.50193252006E+03  0.22197035389E+00  0.10719106124E+04  0.90524064836E+03 0.  0.
        -24    2    4    4    0    0  0.39728967561E+03 -0.41111273144E+03 -0.35460056647E+03  0.67804890548E+03  0.84593097749E+02 0.  0.
         24    2    4    4    0    0 -0.11873012077E+03 -0.90819788623E+02  0.35482253682E+03  0.39386170693E+03  0.82963461633E+02 0.  0.
         13    1    3    3    0    0 -0.22299029416E+03  0.31436425699E+03  0.21286413962E+03  0.44029614954E+03  0.00000000000E+00 0.  1.
        -13    1    3    3    0    0 -0.55569260675E+02  0.18756826308E+03  0.10463325479E+03  0.22185110785E+03  0.00000000000E+00 0. -1.
          4    1    6    6  502    0  0.11308257816E+02 -0.26589075082E+01  0.11727121712E+02  0.16506721892E+02  0.00000000000E+00 0. -1.
          3    1    5    5  503    0  0.82191179704E+02 -0.41682286058E+02 -0.49787631655E+02  0.10474545937E+03  0.00000000000E+00 0. -1.
         -4    1    5    5    0  503  0.31509849590E+03 -0.36943044538E+03 -0.30481293481E+03  0.57330344611E+03  0.00000000000E+00 0.  1.
         -3    1    6    6    0  502 -0.13003837859E+03 -0.88160881115E+02  0.34309541511E+03  0.37735498504E+03  0.00000000000E+00 0.  1.
<mgrwt>
<rscale>  0 0.17047026E+04</rscale>
<asrwt>0</asrwt>
<pdfrwt beam="1">  1        2 0.10894911E+00 0.17047026E+04</pdfrwt>
<pdfrwt beam="2">  1       -2 0.15782902E+00 0.17047026E+04</pdfrwt>
<totfact> 0.10033329E+01</totfact>
</mgrwt>
</event>
<event>
12    1  0.1472088E-007  0.2090616E+04  0.7818608E-02  0.8565388E-01
         -1   -1    0    0    0  501 -0.00000000000E+00  0.00000000000E+00  0.74203770077E+03  0.74203770077E+03  0.00000000000E+00 0.  1.
          1   -1    0    0  501    0  0.00000000000E+00 -0.00000000000E+00 -0.14725252401E+04  0.14725252401E+04  0.00000000000E+00 0. -1.
         23    2    1    2    0    0  0.17884039460E+03  0.17629583285E+02 -0.11753859756E+04  0.11925277074E+04  0.91079373837E+02 0.  0.
        254    2    1    2    0    0 -0.17884039460E+03 -0.17629583285E+02  0.44489843619E+03  0.10220352335E+04  0.90240052700E+03 0.  0.
        -24    2    4    4    0    0  0.23653039510E+03  0.67805407413E+02  0.52259770376E+03  0.58332531801E+03  0.81337971307E+02 0.  0.
         24    2    4    4    0    0 -0.41537078970E+03 -0.85434990698E+02 -0.77699267566E+02  0.43870991554E+03  0.81223046213E+02 0.  0.
         13    1    3    3    0    0  0.52833419062E+02  0.24405503531E+02 -0.63236493499E+03  0.63503732943E+03  0.00000000000E+00 0.  1.
        -13    1    3    3    0    0  0.12600697554E+03 -0.67759202469E+01 -0.54302104056E+03  0.55749037792E+03  0.00000000000E+00 0. -1.
          2    1    6    6  502    0 -0.29202370513E+03 -0.27028055406E+02 -0.33115306963E+02  0.29513553445E+03  0.00000000000E+00 0. -1.
          1    1    5    5  503    0  0.22322586088E+03  0.38899234936E+02  0.44257179291E+03  0.49720491482E+03  0.00000000000E+00 0. -1.
         -2    1    5    5    0  503  0.13304534223E+02  0.28906172476E+02  0.80025910850E+02  0.86120403189E+02  0.00000000000E+00 0.  1.
         -1    1    6    6    0  502 -0.12334708457E+03 -0.58406935291E+02 -0.44583960603E+02  0.14357438109E+03  0.00000000000E+00 0.  1.
<mgrwt>
<rscale>  0 0.20906164E+04</rscale>
<asrwt>0</asrwt>
<pdfrwt beam="1">  1        1 0.22654234E+00 0.20906164E+04</pdfrwt>
<pdfrwt beam="2">  1       -1 0.11415965E+00 0.20906164E+04</pdfrwt>
<totfact> 0.43953646E+00</totfact>
</mgrwt>
</event>
<event>
12    1  0.1472088E-007  0.1578729E+04  0.7818608E-02  0.8833723E-01
         -1   -1    0    0    0  501 -0.00000000000E+00  0.00000000000E+00  0.47720998801E+03  0.47720998801E+03  0.00000000000E+00 0.  1.
          1   -1    0    0  501    0  0.00000000000E+00 -0.00000000000E+00 -0.13057064020E+04  0.13057064020E+04  0.00000000000E+00 0. -1.
         23    2    1    2    0    0 -0.44617916180E+03  0.24686297274E+03 -0.12266013079E+03  0.53199157144E+03  0.89175964623E+02 0.  0.
        254    2    1    2    0    0  0.44617916180E+03 -0.24686297274E+03 -0.70583628322E+03  0.12509248186E+04  0.89810404258E+03 0.  0.
        -24    2    4    4    0    0 -0.25926995432E+03 -0.82878614406E+02 -0.92579847865E+02  0.29876851700E+03  0.81251612806E+02 0.  0.
         24    2    4    4    0    0  0.70544911612E+03 -0.16398435833E+03 -0.61325643536E+03  0.95215630158E+03  0.77258280611E+02 0.  0.
         11    1    3    3    0    0 -0.35006881892E+03  0.23085619443E+03 -0.87209630694E+02  0.42830862724E+03  0.00000000000E+00 0.  1.
        -11    1    3    3    0    0 -0.96110342883E+02  0.16006778310E+02 -0.35450500099E+02  0.10368294420E+03  0.00000000000E+00 0. -1.
          4    1    6    6  502    0  0.68511157656E+03 -0.16698576088E+03 -0.60761799139E+03  0.93083926654E+03  0.00000000000E+00 0. -1.
          1    1    5    5  503    0 -0.21489214232E+03 -0.85122714018E+02 -0.48484229139E+02  0.23616779998E+03  0.00000000000E+00 0. -1.
         -4    1    5    5    0  503 -0.44377811996E+02  0.22440996116E+01 -0.44095618727E+02  0.62600717021E+02  0.00000000000E+00 0.  1.
         -3    1    6    6    0  502  0.20337539555E+02  0.30014025503E+01 -0.56384439686E+01  0.21317035038E+02  0.00000000000E+00 0.  1.
<mgrwt>
<rscale>  0 0.15787288E+04</rscale>
<asrwt>0</asrwt>
<pdfrwt beam="1">  1        1 0.20087790E+00 0.15787288E+04</pdfrwt>
<pdfrwt beam="2">  1       -1 0.73416922E-01 0.15787288E+04</pdfrwt>
<totfact> 0.16101940E+01</totfact>
</mgrwt>
</event>
<event>
12    1  0.1472088E-007  0.1333182E+04  0.7818608E-02  0.9003658E-01
          2   -1    0    0  501    0  0.00000000000E+00  0.00000000000E+00  0.10708654519E+04  0.10708654519E+04  0.00000000000E+00 0. -1.
         -2   -1    0    0    0  501 -0.00000000000E+00 -0.00000000000E+00 -0.41493869747E+03  0.41493869747E+03  0.00000000000E+00 0.  1.
         23    2    1    2    0    0 -0.23969899275E+02 -0.23330222460E+03 -0.11091108542E+03  0.27482157640E+03  0.90670534967E+02 0.  0.
        254    2    1    2    0    0  0.23969899275E+02  0.23330222460E+03  0.76683783986E+03  0.12109825730E+04  0.90743266162E+03 0.  0.
        -24    2    4    4    0    0  0.28447278185E+03 -0.24292507264E+03  0.25224028524E+03  0.45810278330E+03  0.79345094633E+02 0.  0.
         24    2    4    4    0    0 -0.26050288257E+03  0.47622729724E+03  0.51459755462E+03  0.75287978969E+03  0.85808764354E+02 0.  0.
         13    1    3    3    0    0 -0.34543954672E+02 -0.35429612605E+02 -0.39465268253E+01  0.49639876387E+02  0.00000000000E+00 0. -1.
        -13    1    3    3    0    0  0.10574055397E+02 -0.19787261199E+03 -0.10696455860E+03  0.22518170001E+03  0.00000000000E+00 0.  1.
          2    1    6    6  502    0 -0.77541313993E+02  0.17806313579E+03  0.13412014134E+03  0.23602404119E+03  0.00000000000E+00 0. -1.
          1    1    5    5  503    0  0.20621868281E+03 -0.21816057161E+03  0.20284224508E+03  0.36230533605E+03  0.00000000000E+00 0. -1.
         -2    1    5    5    0  503  0.78254099041E+02 -0.24764501032E+02  0.49398040164E+02  0.95797447253E+02  0.00000000000E+00 0.  1.
         -3    1    6    6    0  502 -0.18296156858E+03  0.29816416144E+03  0.38047741328E+03  0.51685574850E+03  0.00000000000E+00 0.  1.
<mgrwt>
<rscale>  0 0.13331819E+04</rscale>
<asrwt>0</asrwt>
<pdfrwt beam="1">  1        2 0.16474853E+00 0.13331819E+04</pdfrwt>
<pdfrwt beam="2">  1       -2 0.63836723E-01 0.13331819E+04</pdfrwt>
<totfact> 0.50416946E+01</totfact>
</mgrwt>
</event>
<event>
12    1  0.1472088E-007  0.2069951E+04  0.7818608E-02  0.8574597E-01
         -1   -1    0    0    0  501 -0.00000000000E+00  0.00000000000E+00  0.48769595604E+03  0.48769595604E+03  0.00000000000E+00 0.  1.
          1   -1    0    0  501    0  0.00000000000E+00 -0.00000000000E+00 -0.21963986305E+04  0.21963986305E+04  0.00000000000E+00 0. -1.
         23    2    1    2    0    0 -0.27987675569E+03 -0.72521596083E+03 -0.10800481675E+04  0.13337689862E+04  0.90368557726E+02 0.  0.
        254    2    1    2    0    0  0.27987675569E+03  0.72521596083E+03 -0.62865450698E+03  0.13503256003E+04  0.90769132945E+03 0.  0.
        -24    2    4    4    0    0  0.20976751608E+03  0.40296380013E+03 -0.83440379291E+03  0.95345640172E+03  0.80418812124E+02 0.  0.
         24    2    4    4    0    0  0.70109239609E+02  0.32225216071E+03  0.20574928593E+03  0.39686919862E+03  0.80066419909E+02 0.  0.
         13    1    3    3    0    0 -0.26254763313E+03 -0.68572626302E+03 -0.10497509876E+04  0.12810655344E+04  0.00000000000E+00 0. -1.
        -13    1    3    3    0    0 -0.17329122565E+02 -0.39489697820E+02 -0.30297179885E+02  0.52703451801E+02  0.00000000000E+00 0.  1.
          4    1    6    6  502    0  0.17377862439E+02  0.21632683851E+03  0.16158214220E+03  0.27056991674E+03  0.00000000000E+00 0. -1.
          1    1    5    5  503    0  0.10832997032E+03  0.26816349824E+03 -0.58142215283E+03  0.64938337218E+03  0.00000000000E+00 0. -1.
         -2    1    5    5    0  503  0.10143754576E+03  0.13480030189E+03 -0.25298164008E+03  0.30407302954E+03  0.00000000000E+00 0.  1.
         -3    1    6    6    0  502  0.52731377170E+02  0.10592532220E+03  0.44167143724E+02  0.12629928189E+03  0.00000000000E+00 0.  1.
<mgrwt>
<rscale>  0 0.20699514E+04</rscale>
<asrwt>0</asrwt>
<pdfrwt beam="1">  1        1 0.33790748E+00 0.20699514E+04</pdfrwt>
<pdfrwt beam="2">  1       -1 0.75030147E-01 0.20699514E+04</pdfrwt>
<totfact> 0.36087404E+00</totfact>
</mgrwt>
</event>
<event>
12    1  0.1472088E-007  0.2734729E+04  0.7818608E-02  0.8323824E-01
          2   -1    0    0  501    0  0.00000000000E+00  0.00000000000E+00  0.89707973479E+03  0.89707973479E+03  0.00000000000E+00 0. -1.
         -2   -1    0    0    0  501 -0.00000000000E+00 -0.00000000000E+00 -0.20841906497E+04  0.20841906497E+04  0.00000000000E+00 0.  1.
         23    2    1    2    0    0  0.90954846769E+03  0.20607170597E+03 -0.13782454511E+04  0.16666000584E+04  0.90836490160E+02 0.  0.
        254    2    1    2    0    0 -0.90954846769E+03 -0.20607170597E+03  0.19113453628E+03  0.13146703261E+04  0.90668720746E+03 0.  0.
        -24    2    4    4    0    0 -0.24362067898E+03 -0.49635609624E+03 -0.24290746873E+01  0.55868713108E+03  0.80031247202E+02 0.  0.
         24    2    4    4    0    0 -0.66592778871E+03  0.29028439028E+03  0.19356361097E+03  0.75598319497E+03  0.79491336470E+02 0.  0.
         11    1    3    3    0    0  0.75326846837E+02  0.41248150948E+02 -0.10765499423E+03  0.13771398474E+03  0.00000000000E+00 0. -1.
        -11    1    3    3    0    0  0.83422162086E+03  0.16482355502E+03 -0.12705904569E+04  0.15288860737E+04  0.00000000000E+00 0.  1.
          2    1    6    6  502    0 -0.15150796138E+03  0.34501041477E+02  0.56656411371E+02  0.16539326823E+03  0.00000000000E+00 0. -1.
          1    1    5    5  503    0 -0.71933113901E+02 -0.13041107018E+03 -0.35536938713E+02  0.15311529680E+03  0.00000000000E+00 0. -1.
         -2    1    5    5    0  503 -0.17168756508E+03 -0.36594502606E+03  0.33107864025E+02  0.40557183428E+03  0.00000000000E+00 0.  1.
         -1    1    6    6    0  502 -0.51441982733E+03  0.25578334880E+03  0.13690719960E+03  0.59058992675E+03  0.00000000000E+00 0.  1.
<mgrwt>
<rscale>  0 0.27347286E+04</rscale>
<asrwt>0</asrwt>
<pdfrwt beam="1">  1        2 0.13801227E+00 0.27347286E+04</pdfrwt>
<pdfrwt beam="2">  1       -2 0.32064471E+00 0.27347286E+04</pdfrwt>
<totfact> 0.61139030E-01</totfact>
</mgrwt>
</event>
<event>
12    1  0.1472088E-007  0.1847508E+04  0.7818608E-02  0.8681435E-01
         -1   -1    0    0    0  501 -0.00000000000E+00  0.00000000000E+00  0.98524781856E+03  0.98524781856E+03  0.00000000000E+00 0.  1.
          1   -1    0    0  501    0  0.00000000000E+00 -0.00000000000E+00 -0.86609868183E+03  0.86609868183E+03  0.00000000000E+00 0. -1.
         23    2    1    2    0    0 -0.41018743379E+03 -0.46629407679E+03 -0.27842804737E+03  0.68653870239E+03  0.90162716446E+02 0.  0.
        254    2    1    2    0    0  0.41018743379E+03  0.46629407679E+03  0.39757718411E+03  0.11648077980E+04  0.90167937321E+03 0.  0.
        -24    2    4    4    0    0  0.32646621392E+03  0.37751446017E+03  0.68001678610E+03  0.84719837069E+03  0.78897993924E+02 0.  0.
         24    2    4    4    0    0  0.83721219861E+02  0.88779616621E+02 -0.28243960200E+03  0.31760942731E+03  0.78819772621E+02 0.  0.
         11    1    3    3    0    0 -0.34929033065E+02 -0.69501683962E+02 -0.60440366126E+02  0.98506645877E+02  0.00000000000E+00 0.  1.
        -11    1    3    3    0    0 -0.37525840072E+03 -0.39679239283E+03 -0.21798768125E+03  0.58803205652E+03  0.00000000000E+00 0. -1.
          4    1    6    6  502    0  0.16871767073E+02  0.59807648094E+02 -0.19003246630E+03  0.19993486325E+03  0.00000000000E+00 0. -1.
          3    1    5    5  503    0  0.26850419396E+03  0.25926431138E+03  0.48845626838E+03  0.61473735159E+03  0.00000000000E+00 0. -1.
         -4    1    5    5    0  503  0.57962019969E+02  0.11825014879E+03  0.19156051772E+03  0.23246101909E+03  0.00000000000E+00 0.  1.
         -3    1    6    6    0  502  0.66849452788E+02  0.28971968527E+02 -0.92407135697E+02  0.11767456406E+03  0.00000000000E+00 0.  1.
<mgrwt>
<rscale>  0 0.18475084E+04</rscale>
<asrwt>0</asrwt>
<pdfrwt beam="1">  1        1 0.13324595E+00 0.18475084E+04</pdfrwt>
<pdfrwt beam="2">  1       -1 0.15157659E+00 0.18475084E+04</pdfrwt>
<totfact> 0.61883040E+00</totfact>
</mgrwt>
</event>
<event>
12    1  0.1472088E-007  0.1348764E+04  0.7818608E-02  0.8991765E-01
          2   -1    0    0  501    0  0.00000000000E+00  0.00000000000E+00  0.98784456674E+03  0.98784456674E+03  0.00000000000E+00 0. -1.
         -2   -1    0    0    0  501 -0.00000000000E+00 -0.00000000000E+00 -0.46038694998E+03  0.46038694998E+03  0.00000000000E+00 0.  1.
         23    2    1    2    0    0 -0.23451458259E+03 -0.61560210787E+02 -0.15496331902E+03  0.30166589056E+03  0.90564508952E+02 0.  0.
        254    2    1    2    0    0  0.23451458259E+03  0.61560210787E+02  0.68242093578E+03  0.11465656262E+04  0.88889124897E+03 0.  0.
        -24    2    4    4    0    0  0.38654612781E+02  0.46088113031E+03  0.32833087349E+03  0.57260570057E+03  0.78552724141E+02 0.  0.
         24    2    4    4    0    0  0.19585996981E+03 -0.39932091952E+03  0.35409006229E+03  0.57395992559E+03  0.78942380443E+02 0.  0.
         11    1    3    3    0    0 -0.23631261448E+02  0.10213783153E+02 -0.48190937709E+02  0.54636291613E+02  0.00000000000E+00 0. -1.
        -11    1    3    3    0    0 -0.21088332114E+03 -0.71773993940E+02 -0.10677238132E+03  0.24702959894E+03  0.00000000000E+00 0.  1.
          4    1    6    6  502    0  0.18862247405E+03 -0.34243702450E+03  0.33059476702E+03  0.51199067711E+03  0.00000000000E+00 0. -1.
          1    1    5    5  503    0 -0.24915990551E+01  0.33345084132E+03  0.21135000731E+03  0.39479677966E+03  0.00000000000E+00 0. -1.
         -2    1    5    5    0  503  0.41146211836E+02  0.12743028899E+03  0.11698086618E+03  0.17780892090E+03  0.00000000000E+00 0.  1.
         -3    1    6    6    0  502  0.72374957588E+01 -0.56883895019E+02  0.23495295271E+02  0.61969248480E+02  0.00000000000E+00 0.  1.
<mgrwt>
<rscale>  0 0.13487635E+04</rscale>
<asrwt>0</asrwt>
<pdfrwt beam="1">  1        2 0.15197609E+00 0.13487635E+04</pdfrwt>
<pdfrwt beam="2">  1       -2 0.70828762E-01 0.13487635E+04</pdfrwt>
<totfact> 0.45400307E+01</totfact>
</mgrwt>
</event>
<event>
12    1  0.1472088E-007  0.1084259E+04  0.7818608E-02  0.9220672E-01
         -2   -1    0    0    0  501 -0.00000000000E+00  0.00000000000E+00  0.56310506751E+03  0.56310506751E+03  0.00000000000E+00 0.  1.
          2   -1    0    0  501    0  0.00000000000E+00 -0.00000000000E+00 -0.52193506806E+03  0.52193506806E+03  0.00000000000E+00 0. -1.
         23    2    1    2    0    0 -0.71153215044E+02 -0.17543503362E+03  0.76692264861E+02  0.23213910984E+03  0.11030245599E+03 0.  0.
        254    2    1    2    0    0  0.71153215044E+02  0.17543503362E+03 -0.35522265417E+02  0.85290102573E+03  0.83086587204E+03 0.  0.
        -24    2    4    4    0    0  0.21615086836E+03  0.96625079969E+02  0.34837370641E+03  0.42876551597E+03  0.80112573265E+02 0.  0.
         24    2    4    4    0    0 -0.14499765332E+03  0.78809953652E+02 -0.38389597182E+03  0.42413550976E+03  0.72660066037E+02 0.  0.
         11    1    3    3    0    0 -0.24684516602E+02 -0.23961756019E+02  0.64659950583E+02  0.73242066607E+02  0.00000000000E+00 0. -1.
        -11    1    3    3    0    0 -0.46468698442E+02 -0.15147327760E+03  0.12032314278E+02  0.15889704324E+03  0.00000000000E+00 0.  1.
          4    1    6    6  502    0 -0.51104437556E+02  0.52939276784E+02 -0.23470956789E+03  0.24597319330E+03  0.00000000000E+00 0. -1.
          3    1    5    5  503    0  0.99924742674E+02  0.26780099962E+02  0.21486570234E+03  0.23847305507E+03  0.00000000000E+00 0. -1.
         -4    1    5    5    0  503  0.11622612569E+03  0.69844980007E+02  0.13350800407E+03  0.19029246090E+03  0.00000000000E+00 0.  1.
         -3    1    6    6    0  502 -0.93893215761E+02  0.25870676867E+02 -0.14918640393E+03  0.17816231646E+03  0.00000000000E+00 0.  1.
<mgrwt>
<rscale>  0 0.10842588E+04</rscale>
<asrwt>0</asrwt>
<pdfrwt beam="1">  1        2 0.80297702E-01 0.10842588E+04</pdfrwt>
<pdfrwt beam="2">  1       -2 0.86631549E-01 0.10842588E+04</pdfrwt>
<totfact> 0.67181800E+01</totfact>
</mgrwt>
</event>
<event>
12    1  0.1472088E-007  0.1643729E+04  0.7818608E-02  0.8794125E-01
         -1   -1    0    0    0  501 -0.00000000000E+00  0.00000000000E+00  0.50882634942E+03  0.50882634942E+03  0.00000000000E+00 0.  1.
          1   -1    0    0  501    0  0.00000000000E+00 -0.00000000000E+00 -0.13274887105E+04  0.13274887105E+04  0.00000000000E+00 0. -1.
         23    2    1    2    0    0 -0.36005012881E+03  0.16197836059E+02  0.20688263079E+03  0.42557566070E+03  0.91737423705E+02 0.  0.
        254    2    1    2    0    0  0.36005012881E+03 -0.16197836059E+02 -0.10255449919E+04  0.14107393992E+04  0.89919111262E+03 0.  0.
        -24    2    4    4    0    0  0.50758879187E+03  0.30831072717E+03 -0.56680369406E+03  0.82470555116E+03  0.78555282471E+02 0.  0.
         24    2    4    4    0    0 -0.14753866306E+03 -0.32450856323E+03 -0.45874129782E+03  0.58603384807E+03  0.76932620202E+02 0.  0.
         13    1    3    3    0    0 -0.18580260569E+03 -0.17180951401E+02  0.14953934106E+03  0.23912299742E+03  0.00000000000E+00 0.  1.
        -13    1    3    3    0    0 -0.17424752312E+03  0.33378787460E+02  0.57343289731E+02  0.18645266327E+03  0.00000000000E+00 0. -1.
          4    1    6    6  502    0 -0.53866822998E+02 -0.46060908681E+02 -0.91872586505E+02  0.11603367649E+03  0.00000000000E+00 0. -1.
          1    1    5    5  503    0  0.20515555807E+03  0.80326725378E+02 -0.20924729822E+03  0.30385130842E+03  0.00000000000E+00 0. -1.
         -2    1    5    5    0  503  0.30243323380E+03  0.22798400179E+03 -0.35755639584E+03  0.52085424275E+03  0.00000000000E+00 0.  1.
         -3    1    6    6    0  502 -0.93671840061E+02 -0.27844765454E+03 -0.36686871132E+03  0.47000017158E+03  0.00000000000E+00 0.  1.
<mgrwt>
<rscale>  0 0.16437290E+04</rscale>
<asrwt>0</asrwt>
<pdfrwt beam="1">  1        1 0.20422903E+00 0.16437290E+04</pdfrwt>
<pdfrwt beam="2">  1       -1 0.78280978E-01 0.16437290E+04</pdfrwt>
<totfact> 0.13504501E+01</totfact>
</mgrwt>
</event>
<event>
12    1  0.2857940E-007  0.1656545E+04  0.7818608E-02  0.8786544E-01
          2   -1    0    0  501    0  0.00000000000E+00  0.00000000000E+00  0.96726923745E+03  0.96726923745E+03  0.00000000000E+00 0. -1.
         -2   -1    0    0    0  501 -0.00000000000E+00 -0.00000000000E+00 -0.70924975458E+03  0.70924975458E+03  0.00000000000E+00 0.  1.
         23    2    1    2    0    0  0.35703264442E+03 -0.61394007663E+02 -0.36511339768E+03  0.52160039598E+03  0.86704363038E+02 0.  0.
        254    2    1    2    0    0 -0.35703264442E+03  0.61394007663E+02  0.62313288055E+03  0.11549185960E+04  0.90238619411E+03 0.  0.
        -24    2    4    4    0    0  0.24789241303E+03 -0.96689610630E+02  0.13215847536E+02  0.27820132668E+03  0.80136073657E+02 0.  0.
         24    2    4    4    0    0 -0.60492505745E+03  0.15808361829E+03  0.60991703302E+03  0.87671726937E+03  0.75562078738E+02 0.  0.
         11    1    3    3    0    0  0.33292892378E+03 -0.61255306848E+02 -0.30055481964E+03  0.45268872365E+03  0.00000000000E+00 0.  1.
        -11    1    3    3    0    0  0.24103720639E+02 -0.13870081488E+00 -0.64558578034E+02  0.68911672337E+02  0.00000000000E+00 0. -1.
          2    1    6    6  502    0 -0.12076440879E+03  0.63119110094E+02  0.12450015847E+03  0.18457614675E+03  0.00000000000E+00 0. -1.
          3    1    5    5  503    0  0.11299843703E+02 -0.29115607837E+02  0.73172392861E+01  0.32077204962E+02  0.00000000000E+00 0. -1.
         -4    1    5    5    0  503  0.23659256933E+03 -0.67574002793E+02  0.58986082504E+01  0.24612412172E+03  0.00000000000E+00 0.  1.
         -1    1    6    6    0  502 -0.48416064866E+03  0.94964508199E+02  0.48541687455E+03  0.69214112262E+03  0.00000000000E+00 0.  1.
<mgrwt>
<rscale>  0 0.16565452E+04</rscale>
<asrwt>0</asrwt>
<pdfrwt beam="1">  1        2 0.14881065E+00 0.16565452E+04</pdfrwt>
<pdfrwt beam="2">  1       -2 0.10911535E+00 0.16565452E+04</pdfrwt>
<totfact> 0.16922300E+01</totfact>
</mgrwt>
</event>
<event>
12    1  0.1472088E-007  0.1776557E+04  0.7818608E-02  0.8718867E-01
         -2   -1    0    0    0  501 -0.00000000000E+00  0.00000000000E+00  0.40069324411E+03  0.40069324411E+03  0.00000000000E+00 0.  1.
          2   -1    0    0  501    0  0.00000000000E+00 -0.00000000000E+00 -0.19691836641E+04  0.19691836641E+04  0.00000000000E+00 0. -1.
         23    2    1    2    0    0  0.33469738817E+03 -0.48058947840E+03 -0.94444207448E+03  0.11169244572E+04  0.11207507608E+03 0.  0.
        254    2    1    2    0    0 -0.33469738817E+03  0.48058947840E+03 -0.62404834554E+03  0.12529524510E+04  0.91513109366E+03 0.  0.
        -24    2    4    4    0    0 -0.25857202548E+03  0.74154677498E+03 -0.36774834401E+03  0.87092093294E+03  0.80705111856E+02 0.  0.
         24    2    4    4    0    0 -0.76125362693E+02 -0.26095729658E+03 -0.25630000154E+03  0.38203151809E+03  0.79778496770E+02 0.  0.
         13    1    3    3    0    0  0.30030208338E+03 -0.44719378720E+03 -0.79764399900E+03  0.96249653180E+03  0.00000000000E+00 0. -1.
        -13    1    3    3    0    0  0.34395304799E+02 -0.33395691200E+02 -0.14679807547E+03  0.15442792541E+03  0.00000000000E+00 0.  1.
          2    1    6    6  502    0 -0.26915791098E+02 -0.14449504842E+03 -0.18701124677E+03  0.23785812000E+03  0.00000000000E+00 0. -1.
          1    1    5    5  503    0 -0.24052831624E+03  0.63666129237E+03 -0.34077318578E+03  0.76112931638E+03  0.00000000000E+00 0. -1.
         -2    1    5    5    0  503 -0.18043709242E+02  0.10488548261E+03 -0.26975158226E+02  0.10979161656E+03  0.00000000000E+00 0.  1.
         -1    1    6    6    0  502 -0.49209571594E+02 -0.11646224815E+03 -0.69288754762E+02  0.14417339809E+03  0.00000000000E+00 0.  1.
<mgrwt>
<rscale>  0 0.17765569E+04</rscale>
<asrwt>0</asrwt>
<pdfrwt beam="1">  1        2 0.30295133E+00 0.17765569E+04</pdfrwt>
<pdfrwt beam="2">  1       -2 0.61645116E-01 0.17765569E+04</pdfrwt>
<totfact> 0.16075251E+01</totfact>
</mgrwt>
</event>
<event>
12    1  0.1472088E-007  0.2415850E+04  0.7818608E-02  0.8433593E-01
          1   -1    0    0  501    0  0.00000000000E+00  0.00000000000E+00  0.41680217102E+04  0.41680217102E+04  0.00000000000E+00 0. -1.
         -1   -1    0    0    0  501 -0.00000000000E+00 -0.00000000000E+00 -0.35006612269E+03  0.35006612269E+03  0.00000000000E+00 0.  1.
         23    2    1    2    0    0  0.99342769009E+03  0.19776438796E+03  0.19065116880E+04  0.21608483328E+04  0.92029192657E+02 0.  0.
        254    2    1    2    0    0 -0.99342769009E+03 -0.19776438796E+03  0.19114438995E+04  0.23572395001E+04  0.93645659335E+03 0.  0.
        -24    2    4    4    0    0 -0.11000177964E+04 -0.29278545214E+03  0.13259619879E+04  0.17492667637E+04  0.77437355466E+02 0.  0.
         24    2    4    4    0    0  0.10659010631E+03  0.95021064180E+02  0.58548191165E+03  0.60797273638E+03  0.80320146313E+02 0.  0.
         11    1    3    3    0    0  0.25477723699E+03  0.10264269899E+02  0.48551827750E+03  0.54840203639E+03  0.00000000000E+00 0.  1.
        -11    1    3    3    0    0  0.73865045310E+03  0.18750011806E+03  0.14209934105E+04  0.16124462964E+04  0.00000000000E+00 0. -1.
          4    1    6    6  502    0  0.11869523087E+03  0.94458247147E+02  0.54476217594E+03  0.56548806055E+03  0.00000000000E+00 0. -1.
          1    1    5    5  503    0 -0.77413498744E+03 -0.23176603235E+03  0.90141400905E+03  0.12105980705E+04  0.00000000000E+00 0. -1.
         -2    1    5    5    0  503 -0.32588280895E+03 -0.61019419786E+02  0.42454797883E+03  0.53866869325E+03  0.00000000000E+00 0.  1.
         -3    1    6    6    0  502 -0.12105124567E+02  0.56281703303E+00  0.40719735713E+02  0.42484675830E+02  0.00000000000E+00 0.  1.
<mgrwt>
<rscale>  0 0.24158503E+04</rscale>
<asrwt>0</asrwt>
<pdfrwt beam="1">  1        1 0.64123408E+00 0.24158503E+04</pdfrwt>
<pdfrwt beam="2">  1       -1 0.53856329E-01 0.24158503E+04</pdfrwt>
<totfact> 0.21176969E-01</totfact>
</mgrwt>
</event>
<event>
12    1  0.1472088E-007  0.1402908E+04  0.7818608E-02  0.8951716E-01
          1   -1    0    0  501    0  0.00000000000E+00  0.00000000000E+00  0.26046227098E+04  0.26046227098E+04  0.00000000000E+00 0. -1.
         -1   -1    0    0    0  501 -0.00000000000E+00 -0.00000000000E+00 -0.18890942550E+03  0.18890942550E+03  0.00000000000E+00 0.  1.
         23    2    1    2    0    0  0.25630462288E+03 -0.12713369313E+03  0.12863610254E+04  0.13209958701E+04  0.91925870023E+02 0.  0.
        254    2    1    2    0    0 -0.25630462288E+03  0.12713369313E+03  0.11293522589E+04  0.14725362652E+04  0.90059507658E+03 0.  0.
        -24    2    4    4    0    0 -0.17653121119E+03  0.21526378049E+03 -0.40728491366E+02  0.29343889885E+03  0.83341548060E+02 0.  0.
         24    2    4    4    0    0 -0.79773411688E+02 -0.88130087366E+02  0.11700807503E+04  0.11790973664E+04  0.83969801810E+02 0.  0.
         11    1    3    3    0    0  0.76732185516E+01  0.12715301323E+02  0.79918525780E+02  0.81286702071E+02  0.00000000000E+00 0.  1.
        -11    1    3    3    0    0  0.24863140432E+03 -0.13984899445E+03  0.12064424996E+04  0.12397091680E+04  0.00000000000E+00 0. -1.
          2    1    6    6  502    0 -0.86853255628E+02 -0.37893631521E+02  0.74776593040E+03  0.75374617876E+03  0.00000000000E+00 0. -1.
          3    1    5    5  503    0 -0.94402884111E+01 -0.70891466052E+01 -0.56841228522E+01  0.13102835475E+02  0.00000000000E+00 0. -1.
         -4    1    5    5    0  503 -0.16709092278E+03  0.22235292710E+03 -0.35044368514E+02  0.28033606338E+03  0.00000000000E+00 0.  1.
         -1    1    6    6    0  502  0.70798439397E+01 -0.50236455845E+02  0.42231481991E+03  0.42535118761E+03  0.00000000000E+00 0.  1.
<mgrwt>
<rscale>  0 0.14029081E+04</rscale>
<asrwt>0</asrwt>
<pdfrwt beam="1">  1        1 0.40071116E+00 0.14029081E+04</pdfrwt>
<pdfrwt beam="2">  1       -1 0.29062990E-01 0.14029081E+04</pdfrwt>
<totfact> 0.12095722E+01</totfact>
</mgrwt>
</event>
<event>
12    1  0.1472088E-007  0.1599139E+04  0.7818608E-02  0.8821077E-01
          2   -1    0    0  501    0  0.00000000000E+00  0.00000000000E+00  0.13681172870E+04  0.13681172870E+04  0.00000000000E+00 0. -1.
         -2   -1    0    0    0  501 -0.00000000000E+00 -0.00000000000E+00 -0.46729310699E+03  0.46729310699E+03  0.00000000000E+00 0.  1.
         23    2    1    2    0    0 -0.21013804843E+03 -0.49724419203E+03  0.19151050511E+03  0.58131226552E+03  0.99186141026E+02 0.  0.
        254    2    1    2    0    0  0.21013804843E+03  0.49724419203E+03  0.70931367492E+03  0.12540981285E+04  0.88217143490E+03 0.  0.
        -24    2    4    4    0    0  0.48458491296E+03  0.19368315650E+03  0.13563152303E+03  0.54487902051E+03  0.78495439170E+02 0.  0.
         24    2    4    4    0    0 -0.27444686453E+03  0.30356103553E+03  0.57368215189E+03  0.70921910798E+03  0.80063399803E+02 0.  0.
         13    1    3    3    0    0 -0.20817921714E+03 -0.40663659062E+03  0.17495274877E+03  0.48918336806E+03  0.00000000000E+00 0.  1.
        -13    1    3    3    0    0 -0.19588312955E+01 -0.90607601408E+02  0.16557756334E+02  0.92128897463E+02  0.00000000000E+00 0. -1.
          4    1    6    6  502    0 -0.27812900628E+03  0.28966683589E+03  0.54323225097E+03  0.67554711045E+03  0.00000000000E+00 0. -1.
          1    1    5    5  503    0  0.30044315437E+03  0.10447690547E+03  0.11889360551E+03  0.33958386624E+03  0.00000000000E+00 0. -1.
         -2    1    5    5    0  503  0.18414175860E+03  0.89206251033E+02  0.16737917515E+02  0.20529515427E+03  0.00000000000E+00 0.  1.
         -3    1    6    6    0  502  0.36821417499E+01  0.13894199643E+02  0.30449900925E+02  0.33671997534E+02  0.00000000000E+00 0.  1.
<mgrwt>
<rscale>  0 0.15991395E+04</rscale>
<asrwt>0</asrwt>
<pdfrwt beam="1">  1        2 0.21047958E+00 0.15991395E+04</pdfrwt>
<pdfrwt beam="2">  1       -2 0.71891248E-01 0.15991395E+04</pdfrwt>
<totfact> 0.25380148E+01</totfact>
</mgrwt>
</event>
<event>
12    1  0.1472088E-007  0.1443272E+04  0.7818608E-02  0.8923078E-01
         -1   -1    0    0    0  501 -0.00000000000E+00  0.00000000000E+00  0.22314268823E+03  0.22314268823E+03  0.00000000000E+00 0.  1.
          1   -1    0    0  501    0  0.00000000000E+00 -0.00000000000E+00 -0.23337471589E+04  0.23337471589E+04  0.00000000000E+00 0. -1.
         23    2    1    2    0    0  0.63550647530E+02 -0.26159479329E+03 -0.13183554206E+04  0.13487631428E+04  0.92900375857E+02 0.  0.
        254    2    1    2    0    0 -0.63550647530E+02  0.26159479329E+03 -0.79224905009E+03  0.12081267043E+04  0.87145915314E+03 0.  0.
        -24    2    4    4    0    0  0.30798568833E+03 -0.72905914502E+02 -0.56655137718E+03  0.65381056577E+03  0.79481673057E+02 0.  0.
         24    2    4    4    0    0 -0.37153633586E+03  0.33450070779E+03 -0.22569767291E+03  0.55431613853E+03  0.79981057112E+02 0.  0.
         13    1    3    3    0    0  0.60437024206E+02 -0.12417276546E+03 -0.49035714915E+03  0.50943266807E+03  0.00000000000E+00 0.  1.
        -13    1    3    3    0    0  0.31136233235E+01 -0.13742202783E+03 -0.82799827140E+03  0.83933047474E+03  0.00000000000E+00 0. -1.
          4    1    6    6  502    0 -0.23313036903E+03  0.22132958882E+03 -0.10330748043E+03  0.33765217512E+03  0.00000000000E+00 0. -1.
          1    1    5    5  503    0  0.29780778522E+03 -0.61210071386E+02 -0.55951682969E+03  0.63678507558E+03  0.00000000000E+00 0. -1.
         -2    1    5    5    0  503  0.10177903111E+02 -0.11695843116E+02 -0.70345474835E+01  0.17025490191E+02  0.00000000000E+00 0.  1.
         -3    1    6    6    0  502 -0.13840596682E+03  0.11317111897E+03 -0.12239019248E+03  0.21666396340E+03  0.00000000000E+00 0.  1.
<mgrwt>
<rscale>  0 0.14432721E+04</rscale>
<asrwt>0</asrwt>
<pdfrwt beam="1">  1        1 0.35903800E+00 0.14432721E+04</pdfrwt>
<pdfrwt beam="2">  1       -1 0.34329647E-01 0.14432721E+04</pdfrwt>
<totfact> 0.13804889E+01</totfact>
</mgrwt>
</event>
<event>
12    1  0.1693715E-007  0.3092140E+04  0.7818608E-02  0.8217898E-01
          1   -1    0    0  501    0  0.00000000000E+00  0.00000000000E+00  0.15496429912E+04  0.15496429912E+04  0.00000000000E+00 0. -1.
         -1   -1    0    0    0  501 -0.00000000000E+00 -0.00000000000E+00 -0.15425052128E+04  0.15425052128E+04  0.00000000000E+00 0.  1.
         23    2    1    2    0    0  0.10202742145E+04  0.28999807131E+03 -0.93085073958E+03  0.14141657636E+04  0.91232414337E+02 0.  0.
        254    2    1    2    0    0 -0.10202742145E+04 -0.28999807131E+03  0.93798851798E+03  0.16779824404E+04  0.90041338070E+03 0.  0.
        -24    2    4    4    0    0 -0.53915794048E+03  0.21952551243E+03  0.12288932533E+03  0.60019164727E+03  0.79028423810E+02 0.  0.
         24    2    4    4    0    0 -0.48111627405E+03 -0.50952358374E+03  0.81509919265E+03  0.10777907931E+04  0.78480241560E+02 0.  0.
         13    1    3    3    0    0  0.22383224547E+03  0.31957055859E+02 -0.22720950594E+03  0.32054061696E+03  0.00000000000E+00 0. -1.
        -13    1    3    3    0    0  0.79644196906E+03  0.25804101545E+03 -0.70364123365E+03  0.10936251467E+04  0.00000000000E+00 0.  1.
          2    1    6    6  502    0 -0.75409187634E+01 -0.30233421610E+02  0.30865769235E+02  0.43859103371E+02  0.00000000000E+00 0. -1.
          3    1    5    5  503    0 -0.96283885998E+01  0.76569559432E+00 -0.79436946538E+01  0.12505776326E+02  0.00000000000E+00 0. -1.
         -4    1    5    5    0  503 -0.52952955188E+03  0.21875981684E+03  0.13083301999E+03  0.58768587094E+03  0.00000000000E+00 0.  1.
         -1    1    6    6    0  502 -0.47357535529E+03 -0.47929016213E+03  0.78423342341E+03  0.10339316897E+04  0.00000000000E+00 0.  1.
<mgrwt>
<rscale>  0 0.30921400E+04</rscale>
<asrwt>0</asrwt>
<pdfrwt beam="1">  1        1 0.23840661E+00 0.30921400E+04</pdfrwt>
<pdfrwt beam="2">  1       -1 0.23730849E+00 0.30921400E+04</pdfrwt>
<totfact> 0.43100567E-01</totfact>
</mgrwt>
</event>
<event>
12    1  0.2068881E-007  0.1913667E+04  0.7818608E-02  0.8648083E-01
          1   -1    0    0  501    0  0.00000000000E+00  0.00000000000E+00  0.22679099888E+04  0.22679099888E+04  0.00000000000E+00 0. -1.
         -1   -1    0    0    0  501 -0.00000000000E+00 -0.00000000000E+00 -0.40368903512E+03  0.40368903512E+03  0.00000000000E+00 0.  1.
         23    2    1    2    0    0  0.40208071175E+03 -0.48494707291E+02  0.16054105654E+04  0.16581733047E+04  0.90415648940E+02 0.  0.
        254    2    1    2    0    0 -0.40208071175E+03  0.48494707291E+02  0.25881038829E+03  0.10134257192E+04  0.89220414473E+03 0.  0.
        -24    2    4    4    0    0  0.24589497087E+03 -0.70502099042E+02 -0.64570345822E+02  0.27527413070E+03  0.78559753097E+02 0.  0.
         24    2    4    4    0    0 -0.64797568262E+03  0.11899680633E+03  0.32338073411E+03  0.73815158851E+03  0.79119803161E+02 0.  0.
         11    1    3    3    0    0  0.95521214165E+01  0.10098462149E+02  0.11457799965E+03  0.11541810934E+03  0.00000000000E+00 0.  1.
        -11    1    3    3    0    0  0.39252859033E+03 -0.58593169440E+02  0.14908325657E+04  0.15427551954E+04  0.00000000000E+00 0. -1.
          2    1    6    6  502    0 -0.60962758936E+03  0.92265106718E+02  0.29551884913E+03  0.68373243145E+03  0.00000000000E+00 0. -1.
          1    1    5    5  503    0  0.24726386004E+03 -0.63570251675E+02 -0.51545776629E+02  0.26045644639E+03  0.00000000000E+00 0. -1.
         -2    1    5    5    0  503 -0.13688891751E+01 -0.69318473676E+01 -0.13024569193E+02  0.14817684305E+02  0.00000000000E+00 0.  1.
         -1    1    6    6    0  502 -0.38348093252E+02  0.26731699615E+02  0.27861884978E+02  0.54419157058E+02  0.00000000000E+00 0.  1.
<mgrwt>
<rscale>  0 0.19136671E+04</rscale>
<asrwt>0</asrwt>
<pdfrwt beam="1">  1        1 0.34890922E+00 0.19136671E+04</pdfrwt>
<pdfrwt beam="2">  1       -1 0.62106007E-01 0.19136671E+04</pdfrwt>
<totfact> 0.48124784E+00</totfact>
</mgrwt>
</event>
<event>
12    1  0.1472088E-007  0.1580594E+04  0.7818608E-02  0.8832559E-01
         -2   -1    0    0    0  501 -0.00000000000E+00  0.00000000000E+00  0.24442045922E+03  0.24442045922E+03  0.00000000000E+00 0.  1.
          2   -1    0    0  501    0  0.00000000000E+00 -0.00000000000E+00 -0.25553077601E+04  0.25553077601E+04  0.00000000000E+00 0. -1.
         23    2    1    2    0    0  0.16790112402E+03 -0.20954693329E+03 -0.16056541195E+04  0.16304960729E+04  0.91058153636E+02 0.  0.
        254    2    1    2    0    0 -0.16790112402E+03  0.20954693329E+03 -0.70523318139E+03  0.11692321465E+04  0.89311212487E+03 0.  0.
        -24    2    4    4    0    0  0.12404950318E+03  0.42762479287E+03 -0.10824021864E+03  0.46536766994E+03  0.81239649100E+02 0.  0.
         24    2    4    4    0    0 -0.29195062719E+03 -0.21807785958E+03 -0.59699296276E+03  0.70386447656E+03  0.78939737922E+02 0.  0.
         11    1    3    3    0    0  0.75286880100E+02 -0.11673481219E+03 -0.57525718217E+03  0.59179046658E+03  0.00000000000E+00 0.  1.
        -11    1    3    3    0    0  0.92614243917E+02 -0.92812121095E+02 -0.10303969374E+04  0.10387056063E+04  0.00000000000E+00 0. -1.
          2    1    6    6  502    0 -0.38887972873E+02 -0.45845463973E+01 -0.40549907993E+02  0.56370094360E+02  0.00000000000E+00 0. -1.
          3    1    5    5  503    0  0.37133057220E+02  0.11815929702E+03 -0.68344295118E+02  0.14146174779E+03  0.00000000000E+00 0. -1.
         -4    1    5    5    0  503  0.86916445956E+02  0.30946549584E+03 -0.39895923517E+02  0.32390592216E+03  0.00000000000E+00 0.  1.
         -1    1    6    6    0  502 -0.25306265432E+03 -0.21349331318E+03 -0.55644305477E+03  0.64749438220E+03  0.00000000000E+00 0.  1.
<mgrwt>
<rscale>  0 0.15805942E+04</rscale>
<asrwt>0</asrwt>
<pdfrwt beam="1">  1        2 0.39312427E+00 0.15805942E+04</pdfrwt>
<pdfrwt beam="2">  1       -2 0.37603148E-01 0.15805942E+04</pdfrwt>
<totfact> 0.20763752E+01</totfact>
</mgrwt>
</event>
<event>
12    1  0.1472088E-007  0.2872101E+04  0.7818608E-02  0.8281227E-01
          2   -1    0    0  501    0  0.00000000000E+00  0.00000000000E+00  0.30973132427E+04  0.30973132427E+04  0.00000000000E+00 0. -1.
         -2   -1    0    0    0  501 -0.00000000000E+00 -0.00000000000E+00 -0.66581608637E+03  0.66581608637E+03  0.00000000000E+00 0.  1.
         23    2    1    2    0    0 -0.53903962385E+03  0.34725919508E+03  0.25624848003E+04  0.26430492653E+04  0.90710541340E+02 0.  0.
        254    2    1    2    0    0  0.53903962385E+03 -0.34725919508E+03 -0.13098764393E+03  0.11200800638E+04  0.90899335633E+03 0.  0.
        -24    2    4    4    0    0  0.31385859840E+03  0.25503271391E+03  0.11351013094E+03  0.42754398708E+03  0.79752154274E+02 0.  0.
         24    2    4    4    0    0  0.22518102546E+03 -0.60229190899E+03 -0.24449777487E+03  0.69253607674E+03  0.79781061697E+02 0.  0.
         11    1    3    3    0    0 -0.22134817880E+02  0.41481326545E+02  0.18379410731E+03  0.18971274205E+03  0.00000000000E+00 0.  1.
        -11    1    3    3    0    0 -0.51690480597E+03  0.30577786853E+03  0.23786906930E+04  0.24533365232E+04  0.00000000000E+00 0. -1.
          4    1    6    6  502    0  0.58095380980E+02 -0.26690464711E+03 -0.97596039009E+02  0.29006576973E+03  0.00000000000E+00 0. -1.
          1    1    5    5  503    0  0.25898447140E+03  0.16964602619E+03  0.98807354752E+02  0.32498557503E+03  0.00000000000E+00 0. -1.
         -2    1    5    5    0  503  0.54874127000E+02  0.85386687726E+02  0.14702776188E+02  0.10255841205E+03  0.00000000000E+00 0.  1.
         -3    1    6    6    0  502  0.16708564448E+03 -0.33538726188E+03 -0.14690173586E+03  0.40247030701E+03  0.00000000000E+00 0.  1.
<mgrwt>
<rscale>  0 0.28721010E+04</rscale>
<asrwt>0</asrwt>
<pdfrwt beam="1">  1        2 0.47650972E+00 0.28721010E+04</pdfrwt>
<pdfrwt beam="2">  1       -2 0.10243325E+00 0.28721010E+04</pdfrwt>
<totfact> 0.10188773E+00</totfact>
</mgrwt>
</event>
<event>
12    1  0.1472088E-007  0.3354298E+04  0.7818608E-02  0.8149215E-01
         -3   -1    0    0    0  501 -0.00000000000E+00  0.00000000000E+00  0.10981391954E+04  0.10981391954E+04  0.00000000000E+00 0.  1.
          3   -1    0    0  501    0  0.00000000000E+00 -0.00000000000E+00 -0.25614499707E+04  0.25614499707E+04  0.00000000000E+00 0. -1.
         23    2    1    2    0    0  0.59222319758E+03 -0.45185281511E+03  0.82005319140E+03  0.11118803401E+04  0.94294070593E+02 0.  0.
        254    2    1    2    0    0 -0.59222319758E+03  0.45185281511E+03 -0.22833639667E+04  0.25477088260E+04  0.84980584568E+03 0.  0.
        -24    2    4    4    0    0 -0.43613017288E+03  0.69482401542E+03 -0.17846382412E+04  0.19658127717E+04  0.80599387632E+02 0.  0.
         24    2    4    4    0    0 -0.15609302470E+03 -0.24297120031E+03 -0.49872572555E+03  0.58189605435E+03  0.80471312919E+02 0.  0.
         13    1    3    3    0    0  0.12968056017E+02 -0.24400691845E+01  0.36525790996E+02  0.38836295168E+02  0.00000000000E+00 0. -1.
        -13    1    3    3    0    0  0.57925514156E+03 -0.44941274592E+03  0.78352740041E+03  0.10730440450E+04  0.00000000000E+00 0.  1.
          4    1    6    6  502    0 -0.14287551878E+03 -0.15565409238E+03 -0.36115922161E+03  0.41842274520E+03  0.00000000000E+00 0. -1.
          3    1    5    5  503    0 -0.90816507390E+02  0.14746102155E+03 -0.30311511873E+03  0.34910051002E+03  0.00000000000E+00 0. -1.
         -4    1    5    5    0  503 -0.34531366549E+03  0.54736299386E+03 -0.14815231224E+04  0.16167122617E+04  0.00000000000E+00 0.  1.
         -3    1    6    6    0  502 -0.13217505915E+02 -0.87317107930E+02 -0.13756650393E+03  0.16347330915E+03  0.00000000000E+00 0.  1.
<mgrwt>
<rscale>  0 0.33542979E+04</rscale>
<asrwt>0</asrwt>
<pdfrwt beam="1">  1        3 0.39406922E+00 0.33542979E+04</pdfrwt>
<pdfrwt beam="2">  1       -3 0.16894449E+00 0.33542979E+04</pdfrwt>
<totfact> 0.60575194E-03</totfact>
</mgrwt>
</event>
<event>
12    1  0.1472088E-007  0.1343548E+04  0.7818608E-02  0.8995726E-01
          2   -1    0    0  501    0  0.00000000000E+00  0.00000000000E+00  0.14823441870E+04  0.14823441870E+04  0.00000000000E+00 0. -1.
         -2   -1    0    0    0  501 -0.00000000000E+00 -0.00000000000E+00 -0.30443701304E+03  0.30443701304E+03  0.00000000000E+00 0.  1.
         23    2    1    2    0    0 -0.25882998209E+03  0.13646427214E+02 -0.72568879698E+01  0.27714189196E+03  0.97855920876E+02 0.  0.
        254    2    1    2    0    0  0.25882998209E+03 -0.13646427214E+02  0.11851640620E+04  0.15096393081E+04  0.89845300500E+03 0.  0.
        -24    2    4    4    0    0  0.11002377629E+03  0.35605286763E+03  0.98618387925E+03  0.10571799068E+04  0.78688218552E+02 0.  0.
         24    2    4    4    0    0  0.14880620580E+03 -0.36969929484E+03  0.19898018271E+03  0.45245940131E+03  0.79407438135E+02 0.  0.
         13    1    3    3    0    0 -0.19501884745E+03  0.17842735419E+02 -0.47594168968E+02  0.20153391523E+03  0.00000000000E+00 0.  1.
        -13    1    3    3    0    0 -0.63811134642E+02 -0.41963082055E+01  0.40337280999E+02  0.75607976730E+02  0.00000000000E+00 0. -1.
          2    1    6    6  502    0  0.82376043433E+02 -0.29441307872E+03  0.14311743938E+03  0.33756106841E+03  0.00000000000E+00 0. -1.
          3    1    5    5  503    0  0.98257155610E+02  0.35438567397E+03  0.93709803778E+03  0.10066759195E+04  0.00000000000E+00 0. -1.
         -4    1    5    5    0  503  0.11766620680E+02  0.16671936557E+01  0.49085841465E+02  0.50503987261E+02  0.00000000000E+00 0.  1.
         -1    1    6    6    0  502  0.66430162371E+02 -0.75286216124E+02  0.55862743333E+02  0.11489833290E+03  0.00000000000E+00 0.  1.
<mgrwt>
<rscale>  0 0.13435482E+04</rscale>
<asrwt>0</asrwt>
<pdfrwt beam="1">  1        2 0.22805295E+00 0.13435482E+04</pdfrwt>
<pdfrwt beam="2">  1       -2 0.46836464E-01 0.13435482E+04</pdfrwt>
<totfact> 0.54835486E+01</totfact>
</mgrwt>
</event>
<event>
12    1  0.1472088E-007  0.1548434E+04  0.7818608E-02  0.8852868E-01
          1   -1    0    0  501    0  0.00000000000E+00  0.00000000000E+00  0.14984595363E+04  0.14984595363E+04  0.00000000000E+00 0. -1.
         -1   -1    0    0    0  501 -0.00000000000E+00 -0.00000000000E+00 -0.40001901528E+03  0.40001901528E+03  0.00000000000E+00 0.  1.
         23    2    1    2    0    0 -0.34587357220E+03  0.76818042782E+02 -0.80845129105E+02  0.37450801184E+03  0.90502908172E+02 0.  0.
        254    2    1    2    0    0  0.34587357220E+03 -0.76818042782E+02  0.11792856501E+04  0.15239705397E+04  0.89790980715E+03 0.  0.
        -24    2    4    4    0    0  0.59373259988E+03  0.14595920531E+03  0.83950711343E+03  0.10414398821E+04  0.77474801232E+02 0.  0.
         24    2    4    4    0    0 -0.24785902768E+03 -0.22277724809E+03  0.33977853667E+03  0.48253065759E+03  0.79514663208E+02 0.  0.
         11    1    3    3    0    0 -0.16322072824E+03  0.56261203107E+02 -0.80999408115E+02  0.19070194864E+03  0.00000000000E+00 0. -1.
        -11    1    3    3    0    0 -0.18265284396E+03  0.20556839674E+02  0.15427901056E+00  0.18380606319E+03  0.00000000000E+00 0.  1.
          2    1    6    6  502    0 -0.15078633357E+03 -0.18439190817E+03  0.23942424339E+03  0.33772897790E+03  0.00000000000E+00 0. -1.
          1    1    5    5  503    0  0.42401751964E+03  0.10706065719E+03  0.53860116929E+03  0.69378963731E+03  0.00000000000E+00 0. -1.
         -2    1    5    5    0  503  0.16971508023E+03  0.38898548125E+02  0.30090594414E+03  0.34765024482E+03  0.00000000000E+00 0.  1.
         -1    1    6    6    0  502 -0.97072694108E+02 -0.38385339927E+02  0.10035429328E+03  0.14480167969E+03  0.00000000000E+00 0.  1.
<mgrwt>
<rscale>  0 0.15484344E+04</rscale>
<asrwt>0</asrwt>
<pdfrwt beam="1">  1        1 0.23053223E+00 0.15484344E+04</pdfrwt>
<pdfrwt beam="2">  1       -1 0.61541388E-01 0.15484344E+04</pdfrwt>
<totfact> 0.16921039E+01</totfact>
</mgrwt>
</event>
<event>
12    1  0.1472088E-007  0.5022689E+04  0.7818608E-02  0.7825017E-01
          2   -1    0    0  501    0  0.00000000000E+00  0.00000000000E+00  0.32846167522E+04  0.32846167522E+04  0.00000000000E+00 0. -1.
         -2   -1    0    0    0  501 -0.00000000000E+00 -0.00000000000E+00 -0.19201181525E+04  0.19201181525E+04  0.00000000000E+00 0.  1.
         23    2    1    2    0    0  0.74609540026E+03  0.20721295549E+04 -0.38946484387E+03  0.22384099458E+04  0.91744114016E+02 0.  0.
        254    2    1    2    0    0 -0.74609540026E+03 -0.20721295549E+04  0.17539634436E+04  0.29663249589E+04  0.93397899432E+03 0.  0.
        -24    2    4    4    0    0  0.10294774587E+03 -0.24416216989E+03 -0.22884390270E+02  0.27819321934E+03  0.81574312032E+02 0.  0.
         24    2    4    4    0    0 -0.84904314613E+03 -0.18279673850E+04  0.17768478338E+04  0.26881317395E+04  0.80777471858E+02 0.  0.
         11    1    3    3    0    0  0.69733341416E+03  0.18847473763E+04 -0.37449133408E+03  0.20442089723E+04  0.00000000000E+00 0.  1.
        -11    1    3    3    0    0  0.48761986096E+02  0.18738217853E+03 -0.14973509789E+02  0.19420097352E+03  0.00000000000E+00 0. -1.
          2    1    6    6  502    0 -0.23452453411E+03 -0.42473262065E+03  0.41798938200E+03  0.64040196721E+03  0.00000000000E+00 0. -1.
          1    1    5    5  503    0  0.39297103459E+02 -0.11573368478E+03  0.29242284066E+02  0.12567282646E+03  0.00000000000E+00 0. -1.
         -2    1    5    5    0  503  0.63650642412E+02 -0.12842848511E+03 -0.52126674336E+02  0.15252039288E+03  0.00000000000E+00 0.  1.
         -1    1    6    6    0  502 -0.61451861202E+03 -0.14032347643E+04  0.13588584518E+04  0.20477297723E+04  0.00000000000E+00 0.  1.
<mgrwt>
<rscale>  0 0.50226894E+04</rscale>
<asrwt>0</asrwt>
<pdfrwt beam="1">  1        2 0.50532565E+00 0.50226894E+04</pdfrwt>
<pdfrwt beam="2">  1       -2 0.29540279E+00 0.50226894E+04</pdfrwt>
<totfact> 0.28070807E-02</totfact>
</mgrwt>
</event>
<event>
12    1  0.1472088E-007  0.1757282E+04  0.7818608E-02  0.8729352E-01
          2   -1    0    0  501    0  0.00000000000E+00  0.00000000000E+00  0.20626794910E+04  0.20626794910E+04  0.00000000000E+00 0. -1.
         -2   -1    0    0    0  501 -0.00000000000E+00 -0.00000000000E+00 -0.37427523352E+03  0.37427523352E+03  0.00000000000E+00 0.  1.
         23    2    1    2    0    0 -0.62976994329E+03 -0.78067708411E+02  0.78560454227E+03  0.10140772877E+04  0.92051616464E+02 0.  0.
        254    2    1    2    0    0  0.62976994329E+03  0.78067708411E+02  0.90279971522E+03  0.14228774368E+04  0.89823611919E+03 0.  0.
        -24    2    4    4    0    0  0.29871845079E+03  0.15384869279E+02 -0.12830770729E+03  0.33504790064E+03  0.79528742772E+02 0.  0.
         24    2    4    4    0    0  0.33105149250E+03  0.62682839132E+02  0.10311074225E+04  0.10878295362E+04  0.81647743415E+02 0.  0.
         13    1    3    3    0    0 -0.35818806995E+03 -0.59477536058E+02  0.37990041666E+03  0.52550984512E+03  0.00000000000E+00 0.  1.
        -13    1    3    3    0    0 -0.27158187334E+03 -0.18590172353E+02  0.40570412562E+03  0.48856744261E+03  0.00000000000E+00 0. -1.
          2    1    6    6  502    0  0.65227007999E+02  0.38019981753E+02  0.16375490085E+03  0.18032123873E+03  0.00000000000E+00 0. -1.
          1    1    5    5  503    0  0.11468729589E+01  0.11676020519E+02 -0.71221962597E+01  0.13724811558E+02  0.00000000000E+00 0. -1.
         -2    1    5    5    0  503  0.29757157783E+03  0.37088487601E+01 -0.12118551103E+03  0.32132308908E+03  0.00000000000E+00 0.  1.
         -1    1    6    6    0  502  0.26582448450E+03  0.24662857378E+02  0.86735252166E+03  0.90750829744E+03  0.00000000000E+00 0.  1.
<mgrwt>
<rscale>  0 0.17572818E+04</rscale>
<asrwt>0</asrwt>
<pdfrwt beam="1">  1        2 0.31733530E+00 0.17572818E+04</pdfrwt>
<pdfrwt beam="2">  1       -2 0.57580807E-01 0.17572818E+04</pdfrwt>
<totfact> 0.16497789E+01</totfact>
</mgrwt>
</event>
<event>
12    1  0.1472088E-007  0.1045449E+04  0.7818608E-02  0.9260055E-01
          1   -1    0    0  501    0  0.00000000000E+00  0.00000000000E+00  0.85102408121E+03  0.85102408121E+03  0.00000000000E+00 0. -1.
         -1   -1    0    0    0  501 -0.00000000000E+00 -0.00000000000E+00 -0.32107297575E+03  0.32107297575E+03  0.00000000000E+00 0.  1.
         23    2    1    2    0    0 -0.34289835690E+02 -0.40140195414E+02  0.11074724680E+03  0.15367259783E+03  0.92538027485E+02 0.  0.
        254    2    1    2    0    0  0.34289835690E+02  0.40140195414E+02  0.41920385866E+03  0.10184244591E+04  0.92664420125E+03 0.  0.
        -24    2    4    4    0    0  0.22930501685E+03 -0.91321416278E+02  0.63740639788E+03  0.68792284993E+03  0.77656548866E+02 0.  0.
         24    2    4    4    0    0 -0.19501518116E+03  0.13146161169E+03 -0.21820253922E+03  0.33050160919E+03  0.79409629911E+02 0.  0.
         11    1    3    3    0    0 -0.57105133752E+02 -0.52512678964E+02  0.97298404583E+02  0.12444097913E+03  0.00000000000E+00 0. -1.
        -11    1    3    3    0    0  0.22815298062E+02  0.12372483550E+02  0.13448842218E+02  0.29231618701E+02  0.00000000000E+00 0.  1.
          4    1    6    6  502    0 -0.11088201803E+03  0.37585639393E+02 -0.13851510597E+03  0.18136685693E+03  0.00000000000E+00 0. -1.
          1    1    5    5  503    0  0.12945560130E+03 -0.89962206334E+02  0.42238809676E+03  0.45084770772E+03  0.00000000000E+00 0. -1.
         -2    1    5    5    0  503  0.99849415557E+02 -0.13592099441E+01  0.21501830112E+03  0.23707514221E+03  0.00000000000E+00 0.  1.
         -3    1    6    6    0  502 -0.84133163132E+02  0.93875972298E+02 -0.79687433254E+02  0.14913475226E+03  0.00000000000E+00 0.  1.
<mgrwt>
<rscale>  0 0.10454489E+04</rscale>
<asrwt>0</asrwt>
<pdfrwt beam="1">  1        1 0.13092678E+00 0.10454489E+04</pdfrwt>
<pdfrwt beam="2">  1       -1 0.49395843E-01 0.10454489E+04</pdfrwt>
<totfact> 0.82069921E+01</totfact>
</mgrwt>
</event>
<event>
12    1  0.1472088E-007  0.1435686E+04  0.7818608E-02  0.8928385E-01
         -1   -1    0    0    0  501 -0.00000000000E+00  0.00000000000E+00  0.27888762186E+03  0.27888762186E+03  0.00000000000E+00 0.  1.
          1   -1    0    0  501    0  0.00000000000E+00 -0.00000000000E+00 -0.18476925451E+04  0.18476925451E+04  0.00000000000E+00 0. -1.
         23    2    1    2    0    0 -0.41127227486E+03 -0.11435166011E+03 -0.51891720287E+03  0.67816142913E+03  0.91687917901E+02 0.  0.
        254    2    1    2    0    0  0.41127227486E+03  0.11435166011E+03 -0.10498877204E+04  0.14484187378E+04  0.90190433444E+03 0.  0.
        -24    2    4    4    0    0  0.88411107402E+02 -0.17428414576E+03 -0.97963070403E+03  0.10024928728E+04  0.84404717671E+02 0.  0.
         24    2    4    4    0    0  0.32286116745E+03  0.28863580586E+03 -0.70257016358E+02  0.44592586504E+03  0.79773848408E+02 0.  0.
         11    1    3    3    0    0 -0.33794681853E+03 -0.92005554039E+02 -0.47384103707E+03  0.58923543897E+03  0.00000000000E+00 0. -1.
        -11    1    3    3    0    0 -0.73325456327E+02 -0.22346106068E+02 -0.45076165793E+02  0.88925990152E+02  0.00000000000E+00 0.  1.
          2    1    6    6  502    0  0.32378478369E+03  0.28758614489E+03 -0.76292534588E+02  0.43973051716E+03  0.00000000000E+00 0. -1.
          3    1    5    5  503    0  0.54913989670E+02 -0.10121409056E+03 -0.75879867481E+03  0.76748633035E+03  0.00000000000E+00 0. -1.
         -2    1    5    5    0  503  0.33497117732E+02 -0.73070055198E+02 -0.22083202922E+03  0.23500654245E+03  0.00000000000E+00 0.  1.
         -1    1    6    6    0  502 -0.92361623829E+00  0.10496609699E+01  0.60355182303E+01  0.61953478849E+01  0.00000000000E+00 0.  1.
<mgrwt>
<rscale>  0 0.14356860E+04</rscale>
<asrwt>0</asrwt>
<pdfrwt beam="1">  1        1 0.28426039E+00 0.14356860E+04</pdfrwt>
<pdfrwt beam="2">  1       -1 0.42905788E-01 0.14356860E+04</pdfrwt>
<totfact> 0.19683914E+01</totfact>
</mgrwt>
</event>
<event>
12    1  0.1472088E-007  0.1931383E+04  0.7818608E-02  0.8639391E-01
         -2   -1    0    0    0  501 -0.00000000000E+00  0.00000000000E+00  0.81910717168E+03  0.81910717168E+03  0.00000000000E+00 0.  1.
          2   -1    0    0  501    0  0.00000000000E+00 -0.00000000000E+00 -0.11385082763E+04  0.11385082763E+04  0.00000000000E+00 0. -1.
         23    2    1    2    0    0 -0.39988468484E+03  0.22323882512E+02 -0.73154056712E+03  0.83882846460E+03  0.89863645401E+02 0.  0.
        254    2    1    2    0    0  0.39988468484E+03 -0.22323882512E+02  0.41213946252E+03  0.11187869834E+04  0.95990586033E+03 0.  0.
        -24    2    4    4    0    0  0.35316761179E+03 -0.43200481285E+03  0.52202792802E+02  0.56614072846E+03  0.80216410402E+02 0.  0.
         24    2    4    4    0    0  0.46717073053E+02  0.40968093034E+03  0.35993666972E+03  0.55264625492E+03  0.76436426328E+02 0.  0.
         11    1    3    3    0    0 -0.13246256340E+03  0.46891598516E+02 -0.28494656304E+03  0.31771008247E+03  0.00000000000E+00 0.  1.
        -11    1    3    3    0    0 -0.26742212144E+03 -0.24567716004E+02 -0.44659400408E+03  0.52111838212E+03  0.00000000000E+00 0. -1.
          4    1    6    6  502    0  0.11191161804E+02  0.25447650013E+03  0.26354245053E+03  0.36652169711E+03  0.00000000000E+00 0. -1.
          1    1    5    5  503    0  0.14647620630E+03 -0.13259972189E+03  0.42997005652E+02  0.20220461852E+03  0.00000000000E+00 0. -1.
         -4    1    5    5    0  503  0.20669140549E+03 -0.29940509096E+03  0.92057871502E+01  0.36393610993E+03  0.00000000000E+00 0.  1.
         -3    1    6    6    0  502  0.35525911249E+02  0.15520443021E+03  0.96394219187E+02  0.18612455781E+03  0.00000000000E+00 0.  1.
<mgrwt>
<rscale>  0 0.19313832E+04</rscale>
<asrwt>0</asrwt>
<pdfrwt beam="1">  1        2 0.17515512E+00 0.19313832E+04</pdfrwt>
<pdfrwt beam="2">  1       -2 0.12601649E+00 0.19313832E+04</pdfrwt>
<totfact> 0.90566478E+00</totfact>
</mgrwt>
</event>
<event>
12    1  0.1472088E-007  0.1589227E+04  0.7818608E-02  0.8827194E-01
         -1   -1    0    0    0  501 -0.00000000000E+00  0.00000000000E+00  0.54991980987E+03  0.54991980987E+03  0.00000000000E+00 0.  1.
          1   -1    0    0  501    0  0.00000000000E+00 -0.00000000000E+00 -0.11481860173E+04  0.11481860173E+04  0.00000000000E+00 0. -1.
         23    2    1    2    0    0 -0.33159264890E+03 -0.25708131722E+03 -0.55519968168E+03  0.70125679582E+03  0.86428691297E+02 0.  0.
        254    2    1    2    0    0  0.33159264890E+03  0.25708131722E+03 -0.43066525756E+02  0.99684903136E+03  0.90322133347E+03 0.  0.
        -24    2    4    4    0    0  0.18597497839E+03 -0.28059261186E+03  0.18172468690E+03  0.39086817269E+03  0.80219450099E+02 0.  0.
         24    2    4    4    0    0  0.14561767051E+03  0.53767392907E+03 -0.22479121266E+03  0.60598085867E+03  0.79899635914E+02 0.  0.
         13    1    3    3    0    0 -0.66969713777E+02 -0.70101786817E+02 -0.18810359215E+03  0.21161796818E+03  0.00000000000E+00 0.  1.
        -13    1    3    3    0    0 -0.26462293512E+03 -0.18697953040E+03 -0.36709608953E+03  0.48963882764E+03  0.00000000000E+00 0. -1.
          4    1    6    6  502    0  0.68651605598E+02  0.39173134968E+03 -0.15521752815E+03  0.42691799484E+03  0.00000000000E+00 0. -1.
          1    1    5    5  503    0  0.14828811764E+03 -0.25074165685E+03  0.18065728990E+03  0.34277952200E+03  0.00000000000E+00 0. -1.
         -2    1    5    5    0  503  0.37686860756E+02 -0.29850955008E+02  0.10673970086E+01  0.48088650687E+02  0.00000000000E+00 0.  1.
         -1    1    6    6    0  502  0.76966064908E+02  0.14594257939E+03 -0.69573684511E+02  0.17906286383E+03  0.00000000000E+00 0.  1.
<mgrwt>
<rscale>  0 0.15892265E+04</rscale>
<asrwt>0</asrwt>
<pdfrwt beam="1">  1        1 0.17664400E+00 0.15892265E+04</pdfrwt>
<pdfrwt beam="2">  1       -1 0.84603048E-01 0.15892265E+04</pdfrwt>
<totfact> 0.15500930E+01</totfact>
</mgrwt>
</event>
<event>
12    1  0.1472088E-007  0.2004417E+04  0.7818608E-02  0.8604559E-01
         -1   -1    0    0    0  501 -0.00000000000E+00  0.00000000000E+00  0.59287101849E+03  0.59287101849E+03  0.00000000000E+00 0.  1.
          1   -1    0    0  501    0  0.00000000000E+00 -0.00000000000E+00 -0.16941653440E+04  0.16941653440E+04  0.00000000000E+00 0. -1.
         23    2    1    2    0    0  0.37937628507E+03  0.12894506892E+03 -0.10678581034E+04  0.11442625458E+04  0.91992653608E+02 0.  0.
        254    2    1    2    0    0 -0.37937628507E+03 -0.12894506892E+03 -0.33436222112E+02  0.11427738167E+04  0.10697012754E+04 0.  0.
        -24    2    4    4    0    0 -0.76680821529E+02  0.15482695560E+03 -0.48717644155E+03  0.52315441748E+03  0.80612187387E+02 0.  0.
         24    2    4    4    0    0 -0.30269546354E+03 -0.28377202452E+03  0.45374021944E+03  0.61961939919E+03  0.76791324819E+02 0.  0.
         11    1    3    3    0    0  0.27701719344E+03  0.70412310173E+02 -0.64960551998E+03  0.70970680600E+03  0.00000000000E+00 0. -1.
        -11    1    3    3    0    0  0.10235909163E+03  0.58532758744E+02 -0.41825258343E+03  0.43455573984E+03  0.00000000000E+00 0.  1.
          2    1    6    6  502    0 -0.17644584158E+02 -0.77290674000E+01  0.36777479515E+01  0.19611110702E+02  0.00000000000E+00 0. -1.
          1    1    5    5  503    0 -0.40093142073E+02  0.29874531339E+02 -0.69229322644E+02  0.85396995133E+02  0.00000000000E+00 0. -1.
         -2    1    5    5    0  503 -0.36587679456E+02  0.12495242426E+03 -0.41794711890E+03  0.43775742234E+03  0.00000000000E+00 0.  1.
         -1    1    6    6    0  502 -0.28505087939E+03 -0.27604295712E+03  0.45006247148E+03  0.60000828849E+03  0.00000000000E+00 0.  1.
<mgrwt>
<rscale>  0 0.20044167E+04</rscale>
<asrwt>0</asrwt>
<pdfrwt beam="1">  1        1 0.26064082E+00 0.20044167E+04</pdfrwt>
<pdfrwt beam="2">  1       -1 0.91210928E-01 0.20044167E+04</pdfrwt>
<totfact> 0.52300164E+00</totfact>
</mgrwt>
</event>
<event>
12    1  0.1472088E-007  0.1242004E+04  0.7818608E-02  0.9076865E-01
         -2   -1    0    0    0  501 -0.00000000000E+00  0.00000000000E+00  0.55936486929E+03  0.55936486929E+03  0.00000000000E+00 0.  1.
          2   -1    0    0  501    0  0.00000000000E+00 -0.00000000000E+00 -0.68943077422E+03  0.68943077422E+03  0.00000000000E+00 0. -1.
         23    2    1    2    0    0  0.98296984683E+02 -0.25945929513E+03 -0.88898147032E+02  0.30651792423E+03  0.95230952444E+02 0.  0.
        254    2    1    2    0    0 -0.98296984683E+02  0.25945929513E+03 -0.41167757896E+02  0.94227771928E+03  0.89956161153E+03 0.  0.
        -24    2    4    4    0    0  0.35557522023E+03  0.29877333123E+03  0.39163446409E+02  0.47280904571E+03  0.79469349253E+02 0.  0.
         24    2    4    4    0    0 -0.45387220491E+03 -0.39314036104E+02 -0.80331204305E+02  0.46946867358E+03  0.80013506735E+02 0.  0.
         13    1    3    3    0    0  0.55419023309E+02 -0.22844547084E+03 -0.48700449889E+02  0.24006318983E+03  0.00000000000E+00 0. -1.
        -13    1    3    3    0    0  0.42877961375E+02 -0.31013824285E+02 -0.40197697143E+02  0.66454734399E+02  0.00000000000E+00 0.  1.
          2    1    6    6  502    0 -0.43341887670E+03 -0.21043292785E+02 -0.67345907070E+02  0.43912437196E+03  0.00000000000E+00 0. -1.
          1    1    5    5  503    0  0.31906469258E+03  0.24180000986E+03  0.13897704364E+02  0.40057791878E+03  0.00000000000E+00 0. -1.
         -2    1    5    5    0  503  0.36510527643E+02  0.56973321367E+02  0.25265742044E+02  0.72231126929E+02  0.00000000000E+00 0.  1.
         -1    1    6    6    0  502 -0.20453328212E+02 -0.18270743319E+02 -0.12985297234E+02  0.30344301617E+02  0.00000000000E+00 0.  1.
<mgrwt>
<rscale>  0 0.12420038E+04</rscale>
<asrwt>0</asrwt>
<pdfrwt beam="1">  1        2 0.10606627E+00 0.12420038E+04</pdfrwt>
<pdfrwt beam="2">  1       -2 0.86056134E-01 0.12420038E+04</pdfrwt>
<totfact> 0.48169794E+01</totfact>
</mgrwt>
</event>
<event>
12    1  0.1472088E-007  0.1919023E+04  0.7818608E-02  0.8645445E-01
          1   -1    0    0  501    0  0.00000000000E+00  0.00000000000E+00  0.83934715711E+03  0.83934715711E+03  0.00000000000E+00 0. -1.
         -1   -1    0    0    0  501 -0.00000000000E+00 -0.00000000000E+00 -0.10968788670E+04  0.10968788670E+04  0.00000000000E+00 0.  1.
         23    2    1    2    0    0 -0.23988642880E+03  0.34985854719E+03  0.52045295484E+03  0.67582121580E+03  0.76919020745E+02 0.  0.
        254    2    1    2    0    0  0.23988642880E+03 -0.34985854719E+03 -0.77798466475E+03  0.12604048083E+04  0.89633344271E+03 0.  0.
        -24    2    4    4    0    0  0.49982117450E+03 -0.23093838699E+02 -0.63267169370E+03  0.81069107418E+03  0.81191218013E+02 0.  0.
         24    2    4    4    0    0 -0.25993474570E+03 -0.32676470849E+03 -0.14531297104E+03  0.44971373415E+03  0.82373153366E+02 0.  0.
         11    1    3    3    0    0 -0.11000293849E+03  0.10156052760E+03  0.15781752798E+03  0.21753519113E+03  0.00000000000E+00 0.  1.
        -11    1    3    3    0    0 -0.12988349030E+03  0.24829801958E+03  0.36263542687E+03  0.45828602466E+03  0.00000000000E+00 0. -1.
          2    1    6    6  502    0 -0.89974322524E+02 -0.15553662619E+03 -0.29476006323E+02  0.18208749476E+03  0.00000000000E+00 0. -1.
          1    1    5    5  503    0  0.35159396907E+03 -0.16671372467E+02 -0.50122102679E+03  0.61246940450E+03  0.00000000000E+00 0. -1.
         -2    1    5    5    0  503  0.14822720543E+03 -0.64224662326E+01 -0.13145066691E+03  0.19822166969E+03  0.00000000000E+00 0.  1.
         -1    1    6    6    0  502 -0.16996042318E+03 -0.17122808230E+03 -0.11583696472E+03  0.26762623939E+03  0.00000000000E+00 0.  1.
<mgrwt>
<rscale>  0 0.19190228E+04</rscale>
<asrwt>0</asrwt>
<pdfrwt beam="1">  1        1 0.12913033E+00 0.19190228E+04</pdfrwt>
<pdfrwt beam="2">  1       -1 0.16875059E+00 0.19190228E+04</pdfrwt>
<totfact> 0.48008370E+00</totfact>
</mgrwt>
</event>
<event>
12    1  0.1472088E-007  0.1655944E+04  0.7818608E-02  0.8786898E-01
         -1   -1    0    0    0  501 -0.00000000000E+00  0.00000000000E+00  0.18436790358E+03  0.18436790358E+03  0.00000000000E+00 0.  1.
          1   -1    0    0  501    0  0.00000000000E+00 -0.00000000000E+00 -0.37183112685E+04  0.37183112685E+04  0.00000000000E+00 0. -1.
         23    2    1    2    0    0 -0.47971327465E+03 -0.32644620137E+03 -0.16085106995E+04  0.17123786792E+04  0.90786135374E+02 0.  0.
        254    2    1    2    0    0  0.47971327465E+03  0.32644620137E+03 -0.19254326654E+04  0.21903004928E+04  0.86800538688E+03 0.  0.
        -24    2    4    4    0    0 -0.18565305150E+03  0.93927959884E+02 -0.99997146631E+03  0.10242606742E+04  0.76664712412E+02 0.  0.
         24    2    4    4    0    0  0.66536632615E+03  0.23251824148E+03 -0.92546119909E+03  0.11660398186E+04  0.79958407844E+02 0.  0.
         11    1    3    3    0    0 -0.47922376935E+03 -0.31127417747E+03 -0.15783942660E+04  0.16786528806E+04  0.00000000000E+00 0. -1.
        -11    1    3    3    0    0 -0.48950529917E+00 -0.15172023892E+02 -0.30116433519E+02  0.33725798616E+02  0.00000000000E+00 0.  1.
          2    1    6    6  502    0  0.42293384727E+03  0.11421266195E+03 -0.53545941709E+03  0.69183405428E+03  0.00000000000E+00 0. -1.
          3    1    5    5  503    0 -0.38591955442E+01  0.26415906764E+02 -0.15848798660E+03  0.16072067514E+03  0.00000000000E+00 0. -1.
         -4    1    5    5    0  503 -0.18179385596E+03  0.67512053121E+02 -0.84148347971E+03  0.86353999908E+03  0.00000000000E+00 0.  1.
         -1    1    6    6    0  502  0.24243247888E+03  0.11830557953E+03 -0.39000178200E+03  0.47420576433E+03  0.00000000000E+00 0.  1.
<mgrwt>
<rscale>  0 0.16559435E+04</rscale>
<asrwt>0</asrwt>
<pdfrwt beam="1">  1        1 0.57204786E+00 0.16559435E+04</pdfrwt>
<pdfrwt beam="2">  1       -1 0.28364294E-01 0.16559435E+04</pdfrwt>
<totfact> 0.18118658E+00</totfact>
</mgrwt>
</event>
<event>
12    1  0.1472088E-007  0.1453545E+04  0.7818608E-02  0.8915947E-01
         -1   -1    0    0    0  501 -0.00000000000E+00  0.00000000000E+00  0.10866033571E+04  0.10866033571E+04  0.00000000000E+00 0.  1.
          1   -1    0    0  501    0  0.00000000000E+00 -0.00000000000E+00 -0.48610035076E+03  0.48610035076E+03  0.00000000000E+00 0. -1.
         23    2    1    2    0    0 -0.31129044559E+03 -0.14773064406E+03 -0.81599175653E+02  0.36561447156E+03  0.91046315899E+02 0.  0.
        254    2    1    2    0    0  0.31129044559E+03  0.14773064406E+03  0.68210218199E+03  0.12070892363E+04  0.93438479922E+03 0.  0.
        -24    2    4    4    0    0 -0.26497611546E+03  0.84395650191E+02  0.52745642350E+03  0.60162670759E+03  0.80059034803E+02 0.  0.
         24    2    4    4    0    0  0.57626656105E+03  0.63334993868E+02  0.15464575849E+03  0.60546252871E+03  0.81086942388E+02 0.  0.
         11    1    3    3    0    0 -0.60473436139E+02  0.81521587075E+01 -0.11436940838E+02  0.62082991115E+02  0.00000000000E+00 0.  1.
        -11    1    3    3    0    0 -0.25081700945E+03 -0.15588280277E+03 -0.70162234815E+02  0.30353148045E+03  0.00000000000E+00 0. -1.
          4    1    6    6  502    0  0.50651077797E+03  0.71345321126E+02  0.11305803080E+03  0.52385631750E+03  0.00000000000E+00 0. -1.
          3    1    5    5  503    0 -0.19943808422E+03  0.82096268256E+02  0.33612345044E+03  0.39936740057E+03  0.00000000000E+00 0. -1.
         -4    1    5    5    0  503 -0.65538031238E+02  0.22993819354E+01  0.19133297306E+03  0.20225930702E+03  0.00000000000E+00 0.  1.
         -3    1    6    6    0  502  0.69755783075E+02 -0.80103272585E+01  0.41587727689E+02  0.81606211219E+02  0.00000000000E+00 0.  1.
<mgrwt>
<rscale>  0 0.14535450E+04</rscale>
<asrwt>0</asrwt>
<pdfrwt beam="1">  1        1 0.74784670E-01 0.14535450E+04</pdfrwt>
<pdfrwt beam="2">  1       -1 0.16716975E+00 0.14535450E+04</pdfrwt>
<totfact> 0.11551753E+01</totfact>
</mgrwt>
</event>
<event>
12    1  0.1472088E-007  0.1438017E+04  0.7818608E-02  0.8926750E-01
         -1   -1    0    0    0  501 -0.00000000000E+00  0.00000000000E+00  0.24788925210E+03  0.24788925210E+03  0.00000000000E+00 0.  1.
          1   -1    0    0  501    0  0.00000000000E+00 -0.00000000000E+00 -0.20855014864E+04  0.20855014864E+04  0.00000000000E+00 0. -1.
         23    2    1    2    0    0  0.30456274537E+03  0.75177531171E+02 -0.10487018621E+04  0.10984109107E+04  0.91218452585E+02 0.  0.
        254    2    1    2    0    0 -0.30456274537E+03 -0.75177531171E+02 -0.78891037219E+03  0.12349798278E+04  0.89687539417E+03 0.  0.
        -24    2    4    4    0    0 -0.12369944710E+03  0.13494339274E+03  0.15214258172E+03  0.25099899128E+03  0.79635770817E+02 0.  0.
         24    2    4    4    0    0 -0.18086329827E+03 -0.21012092391E+03 -0.94105295391E+03  0.98398083652E+03  0.75995323931E+02 0.  0.
         13    1    3    3    0    0  0.19910620584E+03  0.24800296794E+02 -0.77998983739E+03  0.80538343809E+03  0.00000000000E+00 0. -1.
        -13    1    3    3    0    0  0.10545653953E+03  0.50377234377E+02 -0.26871202475E+03  0.29302747264E+03  0.00000000000E+00 0.  1.
          2    1    6    6  502    0 -0.41497136695E+02 -0.10303432632E+02 -0.11235680817E+03  0.12021740897E+03  0.00000000000E+00 0. -1.
          1    1    5    5  503    0 -0.30799515937E+02  0.43505984205E+02  0.94446671838E+02  0.10845070154E+03  0.00000000000E+00 0. -1.
         -2    1    5    5    0  503 -0.92899931165E+02  0.91437408535E+02  0.57695909879E+02  0.14254828974E+03  0.00000000000E+00 0.  1.
         -1    1    6    6    0  502 -0.13936616157E+03 -0.19981749128E+03 -0.82869614574E+03  0.86376342755E+03  0.00000000000E+00 0.  1.
<mgrwt>
<rscale>  0 0.14380173E+04</rscale>
<asrwt>0</asrwt>
<pdfrwt beam="1">  1        1 0.32084639E+00 0.14380173E+04</pdfrwt>
<pdfrwt beam="2">  1       -1 0.38136808E-01 0.14380173E+04</pdfrwt>
<totfact> 0.16859688E+01</totfact>
</mgrwt>
</event>
<event>
12    1  0.1472088E-007  0.1607590E+04  0.7818608E-02  0.8815899E-01
          1   -1    0    0  501    0  0.00000000000E+00  0.00000000000E+00  0.14062100180E+04  0.14062100180E+04  0.00000000000E+00 0. -1.
         -1   -1    0    0    0  501 -0.00000000000E+00 -0.00000000000E+00 -0.45945202056E+03  0.45945202056E+03  0.00000000000E+00 0.  1.
         23    2    1    2    0    0 -0.28821429693E+03 -0.30592876759E+03  0.73141501387E+03  0.84859567396E+03  0.92123849042E+02 0.  0.
        254    2    1    2    0    0  0.28821429693E+03  0.30592876759E+03  0.21534298358E+03  0.10170663646E+04  0.90077272253E+03 0.  0.
        -24    2    4    4    0    0  0.35453342981E+02  0.58460377996E+03  0.22452763719E+03  0.63231174898E+03  0.79918514564E+02 0.  0.
         24    2    4    4    0    0  0.25276095394E+03 -0.27867501237E+03 -0.91846536057E+01  0.38475461563E+03  0.80024333975E+02 0.  0.
         13    1    3    3    0    0 -0.21640091291E+03 -0.24289708417E+03  0.63137217948E+03  0.71025289696E+03  0.00000000000E+00 0. -1.
        -13    1    3    3    0    0 -0.71813384015E+02 -0.63031683412E+02  0.10004283439E+03  0.13834277700E+03  0.00000000000E+00 0.  1.
          4    1    6    6  502    0  0.15561805628E+01 -0.16041744296E+01  0.10020838319E+02  0.10267047977E+02  0.00000000000E+00 0. -1.
          1    1    5    5  503    0 -0.19743528584E+02  0.53921323261E+02  0.17813743323E+02  0.60121921745E+02  0.00000000000E+00 0. -1.
         -2    1    5    5    0  503  0.55196871565E+02  0.53068245670E+03  0.20671389386E+03  0.57218982724E+03  0.00000000000E+00 0.  1.
         -1    1    6    6    0  502  0.25120477338E+03 -0.27707083794E+03 -0.19205491924E+02  0.37448756765E+03  0.00000000000E+00 0.  1.
<mgrwt>
<rscale>  0 0.16075895E+04</rscale>
<asrwt>0</asrwt>
<pdfrwt beam="1">  1        1 0.21634000E+00 0.16075895E+04</pdfrwt>
<pdfrwt beam="2">  1       -1 0.70684927E-01 0.16075895E+04</pdfrwt>
<totfact> 0.14749352E+01</totfact>
</mgrwt>
</event>
<event>
12    1  0.1472088E-007  0.2269854E+04  0.7818608E-02  0.8489903E-01
         -1   -1    0    0    0  501 -0.00000000000E+00  0.00000000000E+00  0.34986156776E+03  0.34986156776E+03  0.00000000000E+00 0.  1.
          1   -1    0    0  501    0  0.00000000000E+00 -0.00000000000E+00 -0.36816258203E+04  0.36816258203E+04  0.00000000000E+00 0. -1.
         23    2    1    2    0    0 -0.69511296199E+02  0.46442648666E+03 -0.28840398331E+04  0.29234346690E+04  0.90888520637E+02 0.  0.
        254    2    1    2    0    0  0.69511296199E+02 -0.46442648666E+03 -0.44772441944E+03  0.11080527191E+04  0.89822040204E+03 0.  0.
        -24    2    4    4    0    0 -0.28401566207E+03  0.12697256154E+03 -0.15526302243E+03  0.35506381626E+03  0.71949842205E+02 0.  0.
         24    2    4    4    0    0  0.35352695827E+03 -0.59139904820E+03 -0.29246139701E+03  0.75298890281E+03  0.82002893708E+02 0.  0.
         11    1    3    3    0    0  0.17937533468E+02  0.30984519446E+02 -0.18883539844E+03  0.19219938412E+03  0.00000000000E+00 0.  1.
        -11    1    3    3    0    0 -0.87448829667E+02  0.43344196721E+03 -0.26952044347E+04  0.27312352849E+04  0.00000000000E+00 0. -1.
          4    1    6    6  502    0  0.13090749552E+03 -0.26304246657E+03 -0.16118027296E+03  0.33512265216E+03  0.00000000000E+00 0. -1.
          1    1    5    5  503    0 -0.10854123352E+00 -0.58681469935E+01 -0.28595385823E+01  0.65286975148E+01  0.00000000000E+00 0. -1.
         -2    1    5    5    0  503 -0.28390712084E+03  0.13284070853E+03 -0.15240348385E+03  0.34853511874E+03  0.00000000000E+00 0.  1.
         -3    1    6    6    0  502  0.22261946275E+03 -0.32835658163E+03 -0.13128112405E+03  0.41786625065E+03  0.00000000000E+00 0.  1.
<mgrwt>
<rscale>  0 0.22698541E+04</rscale>
<asrwt>0</asrwt>
<pdfrwt beam="1">  1        1 0.56640397E+00 0.22698541E+04</pdfrwt>
<pdfrwt beam="2">  1       -1 0.53824857E-01 0.22698541E+04</pdfrwt>
<totfact> 0.56566284E-01</totfact>
</mgrwt>
</event>
<event>
12    1  0.1472088E-007  0.1406619E+04  0.7818608E-02  0.8949041E-01
          2   -1    0    0  501    0  0.00000000000E+00  0.00000000000E+00  0.25525457668E+04  0.25525457668E+04  0.00000000000E+00 0.  1.
         -2   -1    0    0    0  501 -0.00000000000E+00 -0.00000000000E+00 -0.19378475742E+03  0.19378475742E+03  0.00000000000E+00 0. -1.
         23    2    1    2    0    0 -0.80644594034E+02  0.83411027079E+02 -0.63730161582E+02  0.16124630206E+03  0.92075438901E+02 0.  0.
        254    2    1    2    0    0  0.80644594034E+02 -0.83411027079E+02  0.24224911710E+04  0.25850842222E+04  0.89483853979E+03 0.  0.
        -24    2    4    4    0    0  0.36057877443E+03  0.18719532702E+03  0.17967601276E+04  0.18438270167E+04  0.79321927794E+02 0.  0.
         24    2    4    4    0    0 -0.27993418040E+03 -0.27060635410E+03  0.62573104341E+03  0.74125720554E+03  0.79573625305E+02 0.  0.
         11    1    3    3    0    0 -0.79489331073E+02  0.55607157599E+02 -0.82776068503E+02  0.12752484953E+03  0.00000000000E+00 0. -1.
        -11    1    3    3    0    0 -0.11552629617E+01  0.27803869480E+02  0.19045906921E+02  0.33721452535E+02  0.00000000000E+00 0.  1.
          4    1    6    6  502    0 -0.17826757202E+03 -0.12976974478E+03  0.30281079857E+03  0.37458496183E+03  0.00000000000E+00 0. -1.
          3    1    5    5  503    0  0.28515089305E+03  0.16392632033E+03  0.15585793077E+04  0.15929068801E+04  0.00000000000E+00 0. -1.
         -4    1    5    5    0  503  0.75427881384E+02  0.23269006689E+02  0.23818081987E+03  0.25092013653E+03  0.00000000000E+00 0.  1.
         -3    1    6    6    0  502 -0.10166660837E+03 -0.14083660931E+03  0.32292024484E+03  0.36667224371E+03  0.00000000000E+00 0.  1.
<mgrwt>
<rscale>  0 0.14066193E+04</rscale>
<asrwt>0</asrwt>
<pdfrwt beam="1">  1        2 0.39269933E+00 0.14066193E+04</pdfrwt>
<pdfrwt beam="2">  1       -2 0.29813041E-01 0.14066193E+04</pdfrwt>
<totfact> 0.32879648E+01</totfact>
</mgrwt>
</event>
<event>
12    1  0.1472088E-007  0.3004884E+04  0.7818608E-02  0.8242338E-01
          2   -1    0    0  501    0  0.00000000000E+00  0.00000000000E+00  0.93310846577E+03  0.93310846577E+03  0.00000000000E+00 0. -1.
         -2   -1    0    0    0  501 -0.00000000000E+00 -0.00000000000E+00 -0.24191525013E+04  0.24191525013E+04  0.00000000000E+00 0.  1.
         23    2    1    2    0    0 -0.47840774583E+03  0.12755071599E+04 -0.55183261307E+03  0.14720999175E+04  0.82258421677E+02 0.  0.
        254    2    1    2    0    0  0.47840774583E+03 -0.12755071599E+04 -0.93421142247E+03  0.18801610496E+04  0.89803235155E+03 0.  0.
        -24    2    4    4    0    0  0.45376588148E+03 -0.71561590159E+03 -0.79125620052E+02  0.85487751143E+03  0.80901804570E+02 0.  0.
         24    2    4    4    0    0  0.24641864342E+02 -0.55989125829E+03 -0.85508580241E+03  0.10252835382E+04  0.77130808365E+02 0.  0.
         13    1    3    3    0    0 -0.42070034534E+02  0.77694421920E+02 -0.18770122173E+02  0.90325126568E+02  0.00000000000E+00 0.  1.
        -13    1    3    3    0    0 -0.43633771129E+03  0.11978127380E+04 -0.53306249089E+03  0.13817747909E+04  0.00000000000E+00 0. -1.
          2    1    6    6  502    0  0.31573017761E+02 -0.55697664265E+03 -0.83920543755E+03  0.10077130555E+04  0.00000000000E+00 0. -1.
          1    1    5    5  503    0  0.43057755096E+03 -0.67191033633E+03 -0.93146885622E+02  0.80345309120E+03  0.00000000000E+00 0. -1.
         -2    1    5    5    0  503  0.23188330522E+02 -0.43705565262E+02  0.14021265570E+02  0.51424420225E+02  0.00000000000E+00 0.  1.
         -1    1    6    6    0  502 -0.69311534187E+01 -0.29146156471E+01 -0.15880364866E+02  0.17570482644E+02  0.00000000000E+00 0.  1.
<mgrwt>
<rscale>  0 0.30048838E+04</rscale>
<asrwt>0</asrwt>
<pdfrwt beam="1">  1        2 0.14355515E+00 0.30048838E+04</pdfrwt>
<pdfrwt beam="2">  1       -2 0.37217731E+00 0.30048838E+04</pdfrwt>
<totfact> 0.26788753E-01</totfact>
</mgrwt>
</event>
<event>
12    1  0.1472088E-007  0.1616339E+04  0.7818608E-02  0.8810573E-01
          2   -1    0    0  501    0  0.00000000000E+00  0.00000000000E+00  0.21154389440E+04  0.21154389440E+04  0.00000000000E+00 0. -1.
         -2   -1    0    0    0  501 -0.00000000000E+00 -0.00000000000E+00 -0.30874827432E+03  0.30874827432E+03  0.00000000000E+00 0.  1.
         23    2    1    2    0    0 -0.18060538198E+03 -0.51755029338E+02  0.13963332862E+04  0.14119024307E+04  0.91787474697E+02 0.  0.
        254    2    1    2    0    0  0.18060538198E+03  0.51755029338E+02  0.41035738345E+03  0.10122847876E+04  0.90610729057E+03 0.  0.
        -24    2    4    4    0    0  0.35204624284E+02  0.30849878639E+03 -0.16511684878E+03  0.36079303116E+03  0.80605029679E+02 0.  0.
         24    2    4    4    0    0  0.14540075770E+03 -0.25674375705E+03  0.57547423223E+03  0.65149175645E+03  0.78817381589E+02 0.  0.
         13    1    3    3    0    0 -0.34807063501E+02 -0.91907933487E+01  0.92599701612E+02  0.99351432252E+02  0.00000000000E+00 0.  1.
        -13    1    3    3    0    0 -0.14579831848E+03 -0.42564235989E+02  0.13037335846E+04  0.13125509984E+04  0.00000000000E+00 0. -1.
          4    1    6    6  502    0  0.39236945820E+02 -0.13103742382E+03  0.20909812079E+03  0.24986470034E+03  0.00000000000E+00 0. -1.
          3    1    5    5  503    0  0.51330371956E+02  0.11343656098E+03 -0.53914804218E+02  0.13568148940E+03  0.00000000000E+00 0. -1.
         -4    1    5    5    0  503 -0.16125747672E+02  0.19506222541E+03 -0.11120204456E+03  0.22511154176E+03  0.00000000000E+00 0.  1.
         -3    1    6    6    0  502  0.10616381188E+03 -0.12570633323E+03  0.36637611143E+03  0.40162705611E+03  0.00000000000E+00 0.  1.
<mgrwt>
<rscale>  0 0.16163392E+04</rscale>
<asrwt>0</asrwt>
<pdfrwt beam="1">  1        2 0.32545214E+00 0.16163392E+04</pdfrwt>
<pdfrwt beam="2">  1       -2 0.47499736E-01 0.16163392E+04</pdfrwt>
<totfact> 0.23182570E+01</totfact>
</mgrwt>
</event>
<event>
12    1  0.1472088E-007  0.1287052E+04  0.7818608E-02  0.9039896E-01
         -2   -1    0    0    0  501 -0.00000000000E+00  0.00000000000E+00  0.47287447901E+03  0.47287447901E+03  0.00000000000E+00 0.  1.
          2   -1    0    0  501    0  0.00000000000E+00 -0.00000000000E+00 -0.87576266069E+03  0.87576266069E+03  0.00000000000E+00 0. -1.
         23    2    1    2    0    0  0.27056687607E+03 -0.54981938437E+02  0.60971323252E+02  0.29720057214E+03  0.91549057019E+02 0.  0.
        254    2    1    2    0    0 -0.27056687607E+03  0.54981938437E+02 -0.46385950493E+03  0.10514365676E+04  0.90228807334E+03 0.  0.
        -24    2    4    4    0    0  0.18831387410E+03  0.67009078095E+02 -0.53814004064E+03  0.57958568937E+03  0.79828167047E+02 0.  0.
         24    2    4    4    0    0 -0.45888075018E+03 -0.12027139659E+02  0.74280535713E+02  0.47185087818E+03  0.80059092435E+02 0.  0.
         13    1    3    3    0    0  0.14430787748E+03 -0.17343941739E+02 -0.13308236736E+02  0.14595439351E+03  0.00000000000E+00 0.  1.
        -13    1    3    3    0    0  0.12625899859E+03 -0.37637996697E+02  0.74279559988E+02  0.15124617864E+03  0.00000000000E+00 0. -1.
          2    1    6    6  502    0 -0.35386455237E+03 -0.21622248037E+02  0.88603986374E+02  0.36542893897E+03  0.00000000000E+00 0. -1.
          1    1    5    5  503    0  0.18715419456E+03  0.44213672280E+02 -0.48632709763E+03  0.52296805567E+03  0.00000000000E+00 0. -1.
         -2    1    5    5    0  503  0.11596795485E+01  0.22795405815E+02 -0.51812943010E+02  0.56617633704E+02  0.00000000000E+00 0.  1.
         -1    1    6    6    0  502 -0.10501619780E+03  0.95951083780E+01 -0.14323450661E+02  0.10642193921E+03  0.00000000000E+00 0.  1.
<mgrwt>
<rscale>  0 0.12870522E+04</rscale>
<asrwt>0</asrwt>
<pdfrwt beam="1">  1        2 0.13473272E+00 0.12870522E+04</pdfrwt>
<pdfrwt beam="2">  1       -2 0.72749920E-01 0.12870522E+04</pdfrwt>
<totfact> 0.51061733E+01</totfact>
</mgrwt>
</event>
<event>
12    1  0.1472088E-007  0.2523746E+04  0.7818608E-02  0.8394575E-01
         -1   -1    0    0    0  501 -0.00000000000E+00  0.00000000000E+00  0.13797570738E+04  0.13797570738E+04  0.00000000000E+00 0.  1.
          1   -1    0    0  501    0  0.00000000000E+00 -0.00000000000E+00 -0.11540604234E+04  0.11540604234E+04  0.00000000000E+00 0. -1.
         23    2    1    2    0    0 -0.10344025675E+04  0.30848540313E+03 -0.11417213431E+03  0.10916085195E+04  0.11585321768E+03 0.  0.
        254    2    1    2    0    0  0.10344025675E+04 -0.30848540313E+03  0.33986878474E+03  0.14422089777E+04  0.89403804669E+03 0.  0.
        -24    2    4    4    0    0  0.28034678998E+03  0.30711021472E+03  0.12309189418E+03  0.44160027855E+03  0.83355773443E+02 0.  0.
         24    2    4    4    0    0  0.75405577749E+03 -0.61559561785E+03  0.21677689055E+03  0.10006086991E+04  0.81654566420E+02 0.  0.
         11    1    3    3    0    0 -0.89912518533E+03  0.30617651141E+03 -0.11082529301E+03  0.95627004586E+03  0.00000000000E+00 0. -1.
        -11    1    3    3    0    0 -0.13527738214E+03  0.23088917209E+01 -0.33468412946E+01  0.13533847364E+03  0.00000000000E+00 0.  1.
          4    1    6    6  502    0  0.73761220178E+03 -0.61430853600E+03  0.20917061091E+03  0.98244546011E+03  0.00000000000E+00 0. -1.
          1    1    5    5  503    0  0.17559540924E+03  0.24726126448E+03  0.93944495751E+02  0.31748613976E+03  0.00000000000E+00 0. -1.
         -2    1    5    5    0  503  0.10475138074E+03  0.59848950233E+02  0.29147398433E+02  0.12411413879E+03  0.00000000000E+00 0.  1.
         -3    1    6    6    0  502  0.16443575708E+02 -0.12870818501E+01  0.76062796466E+01  0.18163239023E+02  0.00000000000E+00 0.  1.
<mgrwt>
<rscale>  0 0.25237457E+04</rscale>
<asrwt>0</asrwt>
<pdfrwt beam="1">  1        1 0.17754776E+00 0.25237457E+04</pdfrwt>
<pdfrwt beam="2">  1       -1 0.21227032E+00 0.25237457E+04</pdfrwt>
<totfact> 0.12707677E+00</totfact>
</mgrwt>
</event>
<event>
12    1  0.1472088E-007  0.2496728E+04  0.7818608E-02  0.8404152E-01
         -2   -1    0    0    0  501 -0.00000000000E+00  0.00000000000E+00  0.39523753831E+03  0.39523753831E+03  0.00000000000E+00 0.  1.
          2   -1    0    0  501    0  0.00000000000E+00 -0.00000000000E+00 -0.39429786960E+04  0.39429786960E+04  0.00000000000E+00 0. -1.
         23    2    1    2    0    0  0.44276645919E+03  0.86768486232E+03 -0.73743282596E+03  0.12262941870E+04  0.10521930747E+03 0.  0.
        254    2    1    2    0    0 -0.44276645919E+03 -0.86768486232E+03 -0.28103083318E+04  0.31119220473E+04  0.91504467171E+03 0.  0.
        -24    2    4    4    0    0 -0.51769924784E+03 -0.97751160432E+03 -0.27065747701E+04  0.29249708217E+04  0.79786427281E+02 0.  0.
         24    2    4    4    0    0  0.74932788647E+02  0.10982674200E+03 -0.10373356164E+03  0.18695122556E+03  0.80704850261E+02 0.  0.
         11    1    3    3    0    0  0.42312881171E+03  0.85893851047E+03 -0.71339558084E+03  0.11940463185E+04  0.00000000000E+00 0.  1.
        -11    1    3    3    0    0  0.19637647478E+02  0.87463518521E+01 -0.24037245114E+02  0.32247868486E+02  0.00000000000E+00 0. -1.
          2    1    6    6  502    0 -0.83514995440E+01  0.13897342220E+02  0.77150129054E+01  0.17955642276E+02  0.00000000000E+00 0. -1.
          3    1    5    5  503    0 -0.48167186917E+02 -0.14530997364E+03 -0.34715061024E+03  0.37940560423E+03  0.00000000000E+00 0. -1.
         -2    1    5    5    0  503 -0.46953206092E+03 -0.83220163068E+03 -0.23594241599E+04  0.25455652175E+04  0.00000000000E+00 0.  1.
         -1    1    6    6    0  502  0.83284288191E+02  0.95929399779E+02 -0.11144857455E+03  0.16899558329E+03  0.00000000000E+00 0.  1.
<mgrwt>
<rscale>  0 0.24967284E+04</rscale>
<asrwt>0</asrwt>
<pdfrwt beam="1">  1        2 0.60661208E+00 0.24967284E+04</pdfrwt>
<pdfrwt beam="2">  1       -2 0.60805778E-01 0.24967284E+04</pdfrwt>
<totfact> 0.85660240E-01</totfact>
</mgrwt>
</event>
<event>
12    1  0.1472088E-007  0.1723725E+04  0.7818608E-02  0.8747948E-01
          2   -1    0    0  501    0  0.00000000000E+00  0.00000000000E+00  0.16340309543E+04  0.16340309543E+04  0.00000000000E+00 0. -1.
         -2   -1    0    0    0  501 -0.00000000000E+00 -0.00000000000E+00 -0.45458544186E+03  0.45458544186E+03  0.00000000000E+00 0.  1.
         23    2    1    2    0    0  0.68571798843E+01 -0.58007565045E+03  0.15662278591E+03  0.60811604008E+03  0.93486041608E+02 0.  0.
        254    2    1    2    0    0 -0.68571798843E+01  0.58007565045E+03  0.10228227265E+04  0.14805003560E+04  0.89954443650E+03 0.  0.
        -24    2    4    4    0    0  0.26696445514E+03  0.15351728217E+03 -0.19710082109E+02  0.31862030839E+03  0.79327406052E+02 0.  0.
         24    2    4    4    0    0 -0.27382163502E+03  0.42655836829E+03  0.10425328086E+04  0.11618800476E+04  0.78487315905E+02 0.  0.
         13    1    3    3    0    0 -0.37207877115E+02 -0.31289143113E+03  0.61077441600E+02  0.32096094415E+03  0.00000000000E+00 0.  1.
        -13    1    3    3    0    0  0.44065056999E+02 -0.26718421932E+03  0.95545344314E+02  0.28715509594E+03  0.00000000000E+00 0. -1.
          4    1    6    6  502    0 -0.15731193804E+02  0.72319201221E+02  0.17170790488E+03  0.18697898791E+03  0.00000000000E+00 0. -1.
          3    1    5    5  503    0  0.55833226040E+01  0.28975409106E+00  0.12731823848E+02  0.13905279114E+02  0.00000000000E+00 0. -1.
         -4    1    5    5    0  503  0.26138113254E+03  0.15322752807E+03 -0.32441905957E+02  0.30471502928E+03  0.00000000000E+00 0.  1.
         -3    1    6    6    0  502 -0.25809044122E+03  0.35423916707E+03  0.87082490371E+03  0.97490105972E+03  0.00000000000E+00 0.  1.
<mgrwt>
<rscale>  0 0.17237247E+04</rscale>
<asrwt>0</asrwt>
<pdfrwt beam="1">  1        2 0.25138937E+00 0.17237247E+04</pdfrwt>
<pdfrwt beam="2">  1       -2 0.69936223E-01 0.17237247E+04</pdfrwt>
<totfact> 0.18881018E+01</totfact>
</mgrwt>
</event>
<event>
12    1  0.1472088E-007  0.2353806E+04  0.7818608E-02  0.8457003E-01
          1   -1    0    0  501    0  0.00000000000E+00  0.00000000000E+00  0.15495475744E+04  0.15495475744E+04  0.00000000000E+00 0. -1.
         -1   -1    0    0    0  501 -0.00000000000E+00 -0.00000000000E+00 -0.89387411408E+03  0.89387411408E+03  0.00000000000E+00 0.  1.
         23    2    1    2    0    0 -0.62701150268E+03  0.48318243079E+03  0.91602641697E+03  0.12141545725E+04  0.91968709060E+02 0.  0.
        254    2    1    2    0    0  0.62701150268E+03 -0.48318243079E+03 -0.26035295661E+03  0.12292671160E+04  0.90371748604E+03 0.  0.
        -24    2    4    4    0    0  0.63809857369E+02  0.21084369047E+03 -0.23452941774E+03  0.33146525165E+03  0.79614104004E+02 0.  0.
         24    2    4    4    0    0  0.56320164531E+03 -0.69402612126E+03 -0.25823538864E+02  0.89780186436E+03  0.80703049647E+02 0.  0.
         13    1    3    3    0    0 -0.12737000216E+03  0.14796603904E+03  0.22520184453E+03  0.29804854795E+03  0.00000000000E+00 0.  1.
        -13    1    3    3    0    0 -0.49964150052E+03  0.33521639176E+03  0.69082457245E+03  0.91610602456E+03  0.00000000000E+00 0. -1.
          2    1    6    6  502    0  0.14140305945E+03 -0.19332140698E+03 -0.40663830135E+02  0.24294348869E+03  0.00000000000E+00 0. -1.
          3    1    5    5  503    0 -0.19081546828E+02  0.40445774002E+02 -0.43000610296E+02  0.62040458975E+02  0.00000000000E+00 0. -1.
         -4    1    5    5    0  503  0.82891404196E+02  0.17039791646E+03 -0.19152880745E+03  0.26942479267E+03  0.00000000000E+00 0.  1.
         -1    1    6    6    0  502  0.42179858586E+03 -0.50070471428E+03  0.14840291271E+02  0.65485837567E+03  0.00000000000E+00 0.  1.
<mgrwt>
<rscale>  0 0.23538058E+04</rscale>
<asrwt>0</asrwt>
<pdfrwt beam="1">  1        1 0.23839193E+00 0.23538058E+04</pdfrwt>
<pdfrwt beam="2">  1       -1 0.13751909E+00 0.23538058E+04</pdfrwt>
<totfact> 0.23885802E+00</totfact>
</mgrwt>
</event>
<event>
12    1  0.1472088E-007  0.1770198E+04  0.7818608E-02  0.8722310E-01
         -1   -1    0    0    0  501 -0.00000000000E+00  0.00000000000E+00  0.58049742995E+03  0.58049742995E+03  0.00000000000E+00 0.  1.
          1   -1    0    0  501    0  0.00000000000E+00 -0.00000000000E+00 -0.13495326797E+04  0.13495326797E+04  0.00000000000E+00 0. -1.
         23    2    1    2    0    0  0.25829133408E+03  0.29093637703E+03 -0.85784899254E+03  0.94625637546E+03  0.90210006920E+02 0.  0.
        254    2    1    2    0    0 -0.25829133408E+03 -0.29093637703E+03  0.88813742815E+02  0.98377373417E+03  0.89920214101E+03 0.  0.
        -24    2    4    4    0    0  0.28638114393E+03 -0.22255519493E+03 -0.11893408137E+03  0.39145474254E+03  0.86870739358E+02 0.  0.
         24    2    4    4    0    0 -0.54467247801E+03 -0.68381182098E+02  0.20774782419E+03  0.59231899163E+03  0.79614917073E+02 0.  0.
         11    1    3    3    0    0  0.14235448794E+03  0.22272407763E+03 -0.54525201533E+03  0.60594601675E+03  0.00000000000E+00 0. -1.
        -11    1    3    3    0    0  0.11593684614E+03  0.68212299401E+02 -0.31259697721E+03  0.34031035871E+03  0.00000000000E+00 0.  1.
          4    1    6    6  502    0 -0.96695840441E+02  0.15893091147E+02  0.49589639086E+02  0.10982626375E+03  0.00000000000E+00 0. -1.
          3    1    5    5  503    0  0.10485067771E+03 -0.36430692319E+02 -0.17469418152E+02  0.11236565547E+03  0.00000000000E+00 0. -1.
         -4    1    5    5    0  503  0.18153046622E+03 -0.18612450262E+03 -0.10146466322E+03  0.27908908707E+03  0.00000000000E+00 0.  1.
         -3    1    6    6    0  502 -0.44797663757E+03 -0.84274273245E+02  0.15815818510E+03  0.48249272788E+03  0.00000000000E+00 0.  1.
<mgrwt>
<rscale>  0 0.17701980E+04</rscale>
<asrwt>0</asrwt>
<pdfrwt beam="1">  1        1 0.20762041E+00 0.17701980E+04</pdfrwt>
<pdfrwt beam="2">  1       -1 0.89307299E-01 0.17701980E+04</pdfrwt>
<totfact> 0.96942044E+00</totfact>
</mgrwt>
</event>
<event>
12    1  0.1472088E-007  0.1487095E+04  0.7818608E-02  0.8893080E-01
         -2   -1    0    0    0  501 -0.00000000000E+00  0.00000000000E+00  0.42603274376E+03  0.42603274376E+03  0.00000000000E+00 0.  1.
          2   -1    0    0  501    0  0.00000000000E+00 -0.00000000000E+00 -0.12977000427E+04  0.12977000427E+04  0.00000000000E+00 0. -1.
         23    2    1    2    0    0  0.21482790535E+03 -0.27739940230E+03  0.70237400533E+02  0.37209432552E+03  0.10207564516E+03 0.  0.
        254    2    1    2    0    0 -0.21482790535E+03  0.27739940230E+03 -0.94190469945E+03  0.13516384609E+04  0.90368169664E+03 0.  0.
        -24    2    4    4    0    0 -0.18682313239E+03  0.29411777446E+03  0.45546734975E+02  0.36049458518E+03  0.80459261915E+02 0.  0.
         24    2    4    4    0    0 -0.28004772967E+02 -0.16718372154E+02 -0.98745143442E+03  0.99114387573E+03  0.79006808466E+02 0.  0.
         11    1    3    3    0    0  0.15422972679E+03 -0.21675849897E+03  0.95612877488E+02  0.28268865885E+03  0.00000000000E+00 0.  1.
        -11    1    3    3    0    0  0.60598178566E+02 -0.60640903333E+02 -0.25375476955E+02  0.89405666673E+02  0.00000000000E+00 0. -1.
          2    1    6    6  502    0  0.17038077337E+02  0.17340038542E+02 -0.46823843109E+03  0.46886906633E+03  0.00000000000E+00 0. -1.
          3    1    5    5  503    0 -0.15628811059E+03  0.23215249255E+03  0.67734125366E+02  0.28793864806E+03  0.00000000000E+00 0. -1.
         -4    1    5    5    0  503 -0.30535021792E+02  0.61965281909E+02 -0.22187390391E+02  0.72555937113E+02  0.00000000000E+00 0.  1.
         -3    1    6    6    0  502 -0.45042850304E+02 -0.34058410696E+02 -0.51921300333E+03  0.52227480940E+03  0.00000000000E+00 0.  1.
<mgrwt>
<rscale>  0 0.14870948E+04</rscale>
<asrwt>0</asrwt>
<pdfrwt beam="1">  1        2 0.19964616E+00 0.14870948E+04</pdfrwt>
<pdfrwt beam="2">  1       -2 0.65543499E-01 0.14870948E+04</pdfrwt>
<totfact> 0.34389381E+01</totfact>
</mgrwt>
</event>
<event>
12    1  0.1472088E-007  0.1169478E+04  0.7818608E-02  0.9140000E-01
          2   -1    0    0  501    0  0.00000000000E+00  0.00000000000E+00  0.52546841099E+03  0.52546841099E+03  0.00000000000E+00 0.  1.
         -2   -1    0    0    0  501 -0.00000000000E+00 -0.00000000000E+00 -0.65069527271E+03  0.65069527271E+03  0.00000000000E+00 0. -1.
         23    2    1    2    0    0  0.94909834999E+02 -0.12829301881E+03  0.45842358168E+02  0.18910439500E+03  0.90509529627E+02 0.  0.
        254    2    1    2    0    0 -0.94909834999E+02  0.12829301881E+03 -0.17106921989E+03  0.98705928870E+03  0.95893398415E+03 0.  0.
        -24    2    4    4    0    0 -0.28929121009E+03 -0.97305700510E+02 -0.46436838659E+03  0.56148744900E+03  0.80450937449E+02 0.  0.
         24    2    4    4    0    0  0.19438137509E+03  0.22559871931E+03  0.29329916670E+03  0.42557183970E+03  0.80050536646E+02 0.  0.
         11    1    3    3    0    0  0.31067280129E+02 -0.57286472913E+02 -0.25426510689E+02  0.69953007935E+02  0.00000000000E+00 0. -1.
        -11    1    3    3    0    0  0.63842554871E+02 -0.71006545892E+02  0.71268868857E+02  0.11915138707E+03  0.00000000000E+00 0.  1.
          4    1    6    6  502    0  0.15700655766E+03  0.12958068072E+03  0.17277521382E+03  0.26700840150E+03  0.00000000000E+00 0. -1.
          3    1    5    5  503    0 -0.22645087321E+03 -0.78657373555E+02 -0.29657221820E+03  0.38134244584E+03  0.00000000000E+00 0. -1.
         -4    1    5    5    0  503 -0.62840336879E+02 -0.18648326955E+02 -0.16779616839E+03  0.18014500316E+03  0.00000000000E+00 0.  1.
         -3    1    6    6    0  502  0.37374817437E+02  0.96018038594E+02  0.12052395289E+03  0.15856343820E+03  0.00000000000E+00 0.  1.
<mgrwt>
<rscale>  0 0.11694782E+04</rscale>
<asrwt>0</asrwt>
<pdfrwt beam="1">  1        2 0.80841295E-01 0.11694782E+04</pdfrwt>
<pdfrwt beam="2">  1       -2 0.10010696E+00 0.11694782E+04</pdfrwt>
<totfact> 0.47339206E+01</totfact>
</mgrwt>
</event>
<event>
12    1  0.1472088E-007  0.1478291E+04  0.7818608E-02  0.8899019E-01
          1   -1    0    0  501    0  0.00000000000E+00  0.00000000000E+00  0.19622028303E+04  0.19622028303E+04  0.00000000000E+00 0. -1.
         -1   -1    0    0    0  501 -0.00000000000E+00 -0.00000000000E+00 -0.27842987232E+03  0.27842987232E+03  0.00000000000E+00 0.  1.
         23    2    1    2    0    0  0.13059703507E+03  0.42983576431E+03  0.70407576525E+03  0.84030270727E+03  0.92582864397E+02 0.  0.
        254    2    1    2    0    0 -0.13059703507E+03 -0.42983576431E+03  0.97969719275E+03  0.14003299954E+04  0.89403754767E+03 0.  0.
        -24    2    4    4    0    0  0.36550413638E+03 -0.78152918374E+02  0.30491081660E+03  0.48852862293E+03  0.77385121197E+02 0.  0.
         24    2    4    4    0    0 -0.49610117145E+03 -0.35168284593E+03  0.67478637616E+03  0.91180137245E+03  0.79043614081E+02 0.  0.
         11    1    3    3    0    0  0.43100753251E+02  0.24960934479E+03  0.33058581722E+03  0.41647266716E+03  0.00000000000E+00 0. -1.
        -11    1    3    3    0    0  0.87496281816E+02  0.18022641951E+03  0.37348994803E+03  0.42383004011E+03  0.00000000000E+00 0.  1.
          4    1    6    6  502    0 -0.35314776417E+03 -0.29182776341E+03  0.49619078668E+03  0.67533849559E+03  0.00000000000E+00 0. -1.
          3    1    5    5  503    0  0.19319166098E+03 -0.18074795695E+02  0.11694892557E+03  0.22655411561E+03  0.00000000000E+00 0. -1.
         -4    1    5    5    0  503  0.17231247540E+03 -0.60078122679E+02  0.18796189103E+03  0.26197450732E+03  0.00000000000E+00 0.  1.
         -3    1    6    6    0  502 -0.14295340728E+03 -0.59855082527E+02  0.17859558947E+03  0.23646287687E+03  0.00000000000E+00 0.  1.
<mgrwt>
<rscale>  0 0.14782907E+04</rscale>
<asrwt>0</asrwt>
<pdfrwt beam="1">  1        1 0.30187735E+00 0.14782907E+04</pdfrwt>
<pdfrwt beam="2">  1       -1 0.42835366E-01 0.14782907E+04</pdfrwt>
<totfact> 0.16455431E+01</totfact>
</mgrwt>
</event>
<event>
12    1  0.1472088E-007  0.1736959E+04  0.7818608E-02  0.8740562E-01
          2   -1    0    0  501    0  0.00000000000E+00  0.00000000000E+00  0.18163278442E+04  0.18163278442E+04  0.00000000000E+00 0. -1.
         -2   -1    0    0    0  501 -0.00000000000E+00 -0.00000000000E+00 -0.41526437828E+03  0.41526437828E+03  0.00000000000E+00 0.  1.
         23    2    1    2    0    0 -0.62082253848E+03  0.99861598059E+02  0.56285298225E+03  0.84862346273E+03  0.89248746906E+02 0.  0.
        254    2    1    2    0    0  0.62082253848E+03 -0.99861598059E+02  0.83821048368E+03  0.13829687598E+04  0.90255903545E+03 0.  0.
        -24    2    4    4    0    0 -0.21836513364E+03 -0.22716429010E+02  0.30241091630E+03  0.38113297207E+03  0.74904020989E+02 0.  0.
         24    2    4    4    0    0  0.83918767212E+03 -0.77145169049E+02  0.53579956737E+03  0.10018357877E+04  0.80040258345E+02 0.  0.
         13    1    3    3    0    0 -0.55900277137E+03  0.91200249122E+02  0.46628919444E+03  0.73363969133E+03  0.00000000000E+00 0.  1.
        -13    1    3    3    0    0 -0.61819767108E+02  0.86613489367E+01  0.96563787804E+02  0.11498377140E+03  0.00000000000E+00 0. -1.
          2    1    6    6  502    0  0.32462828876E+03 -0.25962702045E+02  0.25349371506E+03  0.41269438006E+03  0.00000000000E+00 0. -1.
          3    1    5    5  503    0  0.18147111604E+01  0.92296228915E+00  0.30001394228E+02  0.30070395601E+02  0.00000000000E+00 0. -1.
         -4    1    5    5    0  503 -0.22017984480E+03 -0.23639391299E+02  0.27240952208E+03  0.35106257647E+03  0.00000000000E+00 0.  1.
         -1    1    6    6    0  502  0.51455938336E+03 -0.51182467003E+02  0.28230585231E+03  0.58914140763E+03  0.00000000000E+00 0.  1.
<mgrwt>
<rscale>  0 0.17369586E+04</rscale>
<asrwt>0</asrwt>
<pdfrwt beam="1">  1        2 0.27943505E+00 0.17369586E+04</pdfrwt>
<pdfrwt beam="2">  1       -2 0.63886829E-01 0.17369586E+04</pdfrwt>
<totfact> 0.18164406E+01</totfact>
</mgrwt>
</event>
<event>
12    1  0.1472088E-007  0.1683320E+04  0.7818608E-02  0.8770935E-01
         -2   -1    0    0    0  501 -0.00000000000E+00  0.00000000000E+00  0.23670284824E+03  0.23670284824E+03  0.00000000000E+00 0. -1.
          2   -1    0    0  501    0  0.00000000000E+00 -0.00000000000E+00 -0.29927444775E+04  0.29927444775E+04  0.00000000000E+00 0.  1.
         23    2    1    2    0    0  0.22773532388E+03 -0.51383325152E+03 -0.59955962860E+03  0.82723995689E+03  0.94690072943E+02 0.  0.
        254    2    1    2    0    0 -0.22773532388E+03  0.51383325152E+03 -0.21564820007E+04  0.24022073689E+04  0.89682642451E+03 0.  0.
        -24    2    4    4    0    0 -0.34483265635E+03 -0.25580348083E+02 -0.14983452841E+04  0.15397601498E+04  0.79112662406E+02 0.  0.
         24    2    4    4    0    0  0.11709733247E+03  0.53941359961E+03 -0.65813671661E+03  0.86244721913E+03  0.77410925072E+02 0.  0.
         11    1    3    3    0    0  0.13513854101E+03 -0.38893662796E+03 -0.47008296453E+03  0.62490968898E+03  0.00000000000E+00 0.  1.
        -11    1    3    3    0    0  0.92596782870E+02 -0.12489662356E+03 -0.12947666407E+03  0.20233026791E+03  0.00000000000E+00 0. -1.
          4    1    6    6  502    0  0.11010997335E+03  0.53889651589E+03 -0.64606017038E+03  0.84848535923E+03  0.00000000000E+00 0. -1.
          1    1    5    5  503    0 -0.32437998531E+03 -0.69455922911E+01 -0.14222939705E+04  0.14588319830E+04  0.00000000000E+00 0. -1.
         -2    1    5    5    0  503 -0.20452671045E+02 -0.18634755792E+02 -0.76051313615E+02  0.80928166783E+02  0.00000000000E+00 0.  1.
         -3    1    6    6    0  502  0.69873591188E+01  0.51708371167E+00 -0.12076546225E+02  0.13961859896E+02  0.00000000000E+00 0.  1.
<mgrwt>
<rscale>  0 0.16833195E+04</rscale>
<asrwt>0</asrwt>
<pdfrwt beam="1">  1        2 0.46042222E+00 0.16833195E+04</pdfrwt>
<pdfrwt beam="2">  1       -2 0.36415823E-01 0.16833195E+04</pdfrwt>
<totfact> 0.11959403E+01</totfact>
</mgrwt>
</event>
<event>
12    1  0.1472088E-007  0.1600108E+04  0.7818608E-02  0.8820482E-01
          1   -1    0    0  501    0  0.00000000000E+00  0.00000000000E+00  0.13474645069E+04  0.13474645069E+04  0.00000000000E+00 0.  1.
         -1   -1    0    0    0  501 -0.00000000000E+00 -0.00000000000E+00 -0.47503040385E+03  0.47503040385E+03  0.00000000000E+00 0. -1.
         23    2    1    2    0    0 -0.14608205258E+03 -0.40401586298E+03  0.69253757231E+03  0.82013097997E+03  0.91857234988E+02 0.  0.
        254    2    1    2    0    0  0.14608205258E+03  0.40401586298E+03  0.17989653079E+03  0.10023639308E+04  0.88758205502E+03 0.  0.
        -24    2    4    4    0    0 -0.29134670714E+03  0.39132434163E+03  0.24737520517E+03  0.55271011437E+03  0.79223319041E+02 0.  0.
         24    2    4    4    0    0  0.43742875972E+03  0.12691521355E+02 -0.67478674376E+02  0.44965381645E+03  0.78295521012E+02 0.  0.
         13    1    3    3    0    0 -0.12904904798E+02 -0.32111808070E+02  0.19487044898E+02  0.39717121046E+02  0.00000000000E+00 0. -1.
        -13    1    3    3    0    0 -0.13317714778E+03 -0.37190405491E+03  0.67305052741E+03  0.78041385892E+03  0.00000000000E+00 0.  1.
          2    1    6    6  502    0  0.22853400805E+03  0.14926229395E+02 -0.73899260095E+02  0.24064846935E+03  0.00000000000E+00 0. -1.
          3    1    5    5  503    0 -0.21156543014E+02  0.36292455414E+02  0.48721881219E+02  0.64331666711E+02  0.00000000000E+00 0. -1.
         -4    1    5    5    0  503 -0.27019016413E+03  0.35503188621E+03  0.19865332395E+03  0.48837844766E+03  0.00000000000E+00 0.  1.
         -1    1    6    6    0  502  0.20889475167E+03 -0.22347080403E+01  0.64205857197E+01  0.20900534710E+03  0.00000000000E+00 0.  1.
<mgrwt>
<rscale>  0 0.16001083E+04</rscale>
<asrwt>0</asrwt>
<pdfrwt beam="1">  1        1 0.20730223E+00 0.16001083E+04</pdfrwt>
<pdfrwt beam="2">  1       -1 0.73081601E-01 0.16001083E+04</pdfrwt>
<totfact> 0.15153626E+01</totfact>
</mgrwt>
</event>
<event>
12    1  0.1472088E-007  0.2061454E+04  0.7818608E-02  0.8578416E-01
          2   -1    0    0  501    0  0.00000000000E+00  0.00000000000E+00  0.58413332925E+03  0.58413332925E+03  0.00000000000E+00 0. -1.
         -2   -1    0    0    0  501 -0.00000000000E+00 -0.00000000000E+00 -0.18187595797E+04  0.18187595797E+04  0.00000000000E+00 0.  1.
         23    2    1    2    0    0 -0.64120128417E+03 -0.44685996366E+03 -0.16881690973E+03  0.80496527217E+03  0.92989388962E+02 0.  0.
        254    2    1    2    0    0  0.64120128417E+03  0.44685996366E+03 -0.10658093407E+04  0.15979276368E+04  0.89810927380E+03 0.  0.
        -24    2    4    4    0    0  0.41311518652E+03  0.96211371439E+01 -0.10123876104E+04  0.10960335004E+04  0.74860114142E+02 0.  0.
         24    2    4    4    0    0  0.22808609765E+03  0.43723882651E+03 -0.53421730303E+02  0.50189413636E+03  0.76438102383E+02 0.  0.
         13    1    3    3    0    0 -0.32791734502E+03 -0.18624060423E+03 -0.11276090916E+03  0.39361195416E+03  0.00000000000E+00 0.  1.
        -13    1    3    3    0    0 -0.31328393915E+03 -0.26061935943E+03 -0.56056000569E+02  0.41135331801E+03  0.00000000000E+00 0. -1.
          4    1    6    6  502    0  0.16783337549E+03  0.28155205325E+03 -0.66448291896E+02  0.33444726955E+03  0.00000000000E+00 0. -1.
          1    1    5    5  503    0  0.27947187143E+03 -0.22808158255E+02 -0.62696613260E+03  0.68681239828E+03  0.00000000000E+00 0. -1.
         -2    1    5    5    0  503  0.13364331509E+03  0.32429295399E+02 -0.38542147784E+03  0.40922110215E+03  0.00000000000E+00 0.  1.
         -3    1    6    6    0  502  0.60252722161E+02  0.15568677327E+03  0.13026561593E+02  0.16744686681E+03  0.00000000000E+00 0.  1.
<mgrwt>
<rscale>  0 0.20614539E+04</rscale>
<asrwt>0</asrwt>
<pdfrwt beam="1">  1        2 0.89866667E-01 0.20614539E+04</pdfrwt>
<pdfrwt beam="2">  1       -2 0.27980916E+00 0.20614539E+04</pdfrwt>
<totfact> 0.20004626E+00</totfact>
</mgrwt>
</event>
<event>
12    1  0.1472088E-007  0.3483759E+04  0.7818608E-02  0.8117650E-01
         -1   -1    0    0    0  501 -0.00000000000E+00  0.00000000000E+00  0.27302439614E+04  0.27302439614E+04  0.00000000000E+00 0.  1.
          1   -1    0    0  501    0  0.00000000000E+00 -0.00000000000E+00 -0.11113086048E+04  0.11113086048E+04  0.00000000000E+00 0. -1.
         23    2    1    2    0    0  0.15892683358E+04  0.29217452237E+03  0.56263465788E+03  0.17136218582E+04  0.93820679916E+02 0.  0.
        254    2    1    2    0    0 -0.15892683358E+04 -0.29217452237E+03  0.10563006987E+04  0.21279307079E+04  0.89508554733E+03 0.  0.
        -24    2    4    4    0    0 -0.90921933525E+03  0.18650101103E+03  0.24469342267E+03  0.96321685956E+03  0.80308285576E+02 0.  0.
         24    2    4    4    0    0 -0.68004900054E+03 -0.47867553340E+03  0.81160727604E+03  0.11647138484E+04  0.79088992163E+02 0.  0.
         11    1    3    3    0    0  0.15704112876E+04  0.29218880158E+03  0.54492536929E+03  0.16877528154E+04  0.00000000000E+00 0. -1.
        -11    1    3    3    0    0  0.18857048225E+02 -0.14279212793E-01  0.17709288587E+02  0.25869042771E+02  0.00000000000E+00 0.  1.
          4    1    6    6  502    0 -0.60381012002E+03 -0.40796948034E+03  0.73925794969E+03  0.10380404973E+04  0.00000000000E+00 0. -1.
          1    1    5    5  503    0 -0.73625902431E+03  0.12821059420E+03  0.21991702884E+03  0.77902426593E+03  0.00000000000E+00 0. -1.
         -2    1    5    5    0  503 -0.17296031094E+03  0.58290416829E+02  0.24776393837E+02  0.18419259362E+03  0.00000000000E+00 0.  1.
         -3    1    6    6    0  502 -0.76238880518E+02 -0.70706053062E+02  0.72349326351E+02  0.12667335105E+03  0.00000000000E+00 0.  1.
<mgrwt>
<rscale>  0 0.34837587E+04</rscale>
<asrwt>0</asrwt>
<pdfrwt beam="1">  1        1 0.17097056E+00 0.34837587E+04</pdfrwt>
<pdfrwt beam="2">  1       -1 0.42003753E+00 0.34837587E+04</pdfrwt>
<totfact> 0.52874911E-02</totfact>
</mgrwt>
</event>
<event>
12    1  0.1472088E-007  0.2317741E+04  0.7818608E-02  0.8470959E-01
          2   -1    0    0  501    0  0.00000000000E+00  0.00000000000E+00  0.14696366388E+04  0.14696366388E+04  0.00000000000E+00 0. -1.
         -2   -1    0    0    0  501 -0.00000000000E+00 -0.00000000000E+00 -0.91381848096E+03  0.91381848096E+03  0.00000000000E+00 0.  1.
         23    2    1    2    0    0 -0.20008633241E+03 -0.67585866018E+03  0.93665096629E+03  0.11758356925E+04  0.91951477439E+02 0.  0.
        254    2    1    2    0    0  0.20008633241E+03  0.67585866018E+03 -0.38083280847E+03  0.12076194272E+04  0.90359923861E+03 0.  0.
        -24    2    4    4    0    0 -0.33726036368E+03  0.39104156715E+03 -0.96594598733E+02  0.53148518875E+03  0.80547682819E+02 0.  0.
         24    2    4    4    0    0  0.53734669609E+03  0.28481709303E+03 -0.28423820974E+03  0.67613423847E+03  0.80646762285E+02 0.  0.
         13    1    3    3    0    0 -0.15990779558E+03 -0.52369892904E+03  0.78637062608E+03  0.95823266117E+03  0.00000000000E+00 0. -1.
        -13    1    3    3    0    0 -0.40178536826E+02 -0.15215973114E+03  0.15028034021E+03  0.21760303135E+03  0.00000000000E+00 0.  1.
          2    1    6    6  502    0  0.41181770806E+03  0.23275023681E+03 -0.25397083655E+03  0.53690565579E+03  0.00000000000E+00 0. -1.
          3    1    5    5  503    0 -0.22831330654E+03  0.26139402661E+03 -0.26073297455E+02  0.34804255477E+03  0.00000000000E+00 0. -1.
         -4    1    5    5    0  503 -0.10894705714E+03  0.12964754054E+03 -0.70521301278E+02  0.18344263398E+03  0.00000000000E+00 0.  1.
         -3    1    6    6    0  502  0.12552898803E+03  0.52066856222E+02 -0.30267373192E+02  0.13922858267E+03  0.00000000000E+00 0.  1.
<mgrwt>
<rscale>  0 0.23177412E+04</rscale>
<asrwt>0</asrwt>
<pdfrwt beam="1">  1        2 0.22609794E+00 0.23177412E+04</pdfrwt>
<pdfrwt beam="2">  1       -2 0.14058746E+00 0.23177412E+04</pdfrwt>
<totfact> 0.42482742E+00</totfact>
</mgrwt>
</event>
<event>
12    1  0.1472088E-007  0.1705325E+04  0.7818608E-02  0.8758333E-01
          1   -1    0    0  501    0  0.00000000000E+00  0.00000000000E+00  0.17228621466E+04  0.17228621466E+04  0.00000000000E+00 0. -1.
         -1   -1    0    0    0  501 -0.00000000000E+00 -0.00000000000E+00 -0.42199152897E+03  0.42199152897E+03  0.00000000000E+00 0.  1.
         23    2    1    2    0    0  0.31409194859E+03 -0.28651539461E+03  0.10589018001E+04  0.11448081829E+04  0.92563113193E+02 0.  0.
        254    2    1    2    0    0 -0.31409194859E+03  0.28651539461E+03  0.24196881755E+03  0.10000454927E+04  0.87223692607E+03 0.  0.
        -24    2    4    4    0    0  0.54615268053E+02  0.16107770901E+03  0.49454365807E+03  0.52909603624E+03  0.80251666494E+02 0.  0.
         24    2    4    4    0    0 -0.36870721664E+03  0.12543768559E+03 -0.25257484052E+03  0.47094945642E+03  0.79496640622E+02 0.  0.
         13    1    3    3    0    0  0.81800393476E+01  0.72705020154E+01  0.28387632116E+02  0.30424182823E+02  0.00000000000E+00 0.  1.
        -13    1    3    3    0    0  0.30591190924E+03 -0.29378589662E+03  0.10305141679E+04  0.11143840001E+04  0.00000000000E+00 0. -1.
          4    1    6    6  502    0 -0.57038136802E+02  0.63101909720E+00 -0.64595294997E+02  0.86175979082E+02  0.00000000000E+00 0. -1.
          1    1    5    5  503    0  0.40298810289E+01  0.42520600080E+02  0.47676387671E+02  0.64009993858E+02  0.00000000000E+00 0. -1.
         -2    1    5    5    0  503  0.50585387024E+02  0.11855710893E+03  0.44686727040E+03  0.46508604238E+03  0.00000000000E+00 0.  1.
         -3    1    6    6    0  502 -0.31166907984E+03  0.12480666650E+03 -0.18797954552E+03  0.38477347734E+03  0.00000000000E+00 0.  1.
<mgrwt>
<rscale>  0 0.17053249E+04</rscale>
<asrwt>0</asrwt>
<pdfrwt beam="1">  1        1 0.26505571E+00 0.17053249E+04</pdfrwt>
<pdfrwt beam="2">  1       -1 0.64921775E-01 0.17053249E+04</pdfrwt>
<totfact> 0.10520148E+01</totfact>
</mgrwt>
</event>
<event>
12    1  0.1472088E-007  0.1482507E+04  0.7818608E-02  0.8896170E-01
         -2   -1    0    0    0  501 -0.00000000000E+00  0.00000000000E+00  0.40608124778E+03  0.40608124778E+03  0.00000000000E+00 0.  1.
          2   -1    0    0  501    0  0.00000000000E+00 -0.00000000000E+00 -0.13530705820E+04  0.13530705820E+04  0.00000000000E+00 0. -1.
         23    2    1    2    0    0  0.34660557458E+03 -0.23610202415E+03 -0.90418679578E+02  0.43852716702E+03  0.90834731572E+02 0.  0.
        254    2    1    2    0    0 -0.34660557458E+03  0.23610202415E+03 -0.85657065465E+03  0.13206246628E+04  0.91348597327E+03 0.  0.
        -24    2    4    4    0    0 -0.23847890872E+03 -0.33043800644E+03 -0.43762623076E+03  0.60324850703E+03  0.79564925515E+02 0.  0.
         24    2    4    4    0    0 -0.10812666586E+03  0.56654003059E+03 -0.41894442389E+03  0.71737615574E+03  0.80343863388E+02 0.  0.
         13    1    3    3    0    0 -0.37784444956E+01 -0.10805770509E+02  0.25150805109E+01  0.11720364716E+02  0.00000000000E+00 0.  1.
        -13    1    3    3    0    0  0.35038401907E+03 -0.22529625364E+03 -0.92933760088E+02  0.42680680230E+03  0.00000000000E+00 0. -1.
          2    1    6    6  502    0 -0.10283690065E+03  0.55324583323E+03 -0.38870026725E+03  0.68391832691E+03  0.00000000000E+00 0. -1.
          3    1    5    5  503    0 -0.86105566327E+02 -0.12886474758E+03 -0.22384414083E+03  0.27226180618E+03  0.00000000000E+00 0. -1.
         -2    1    5    5    0  503 -0.15237334239E+03 -0.20157325886E+03 -0.21378208993E+03  0.33098670084E+03  0.00000000000E+00 0.  1.
         -1    1    6    6    0  502 -0.52897652096E+01  0.13294197367E+02 -0.30244156639E+02  0.33457828836E+02  0.00000000000E+00 0.  1.
<mgrwt>
<rscale>  0 0.14825068E+04</rscale>
<asrwt>0</asrwt>
<pdfrwt beam="1">  1        2 0.20816470E+00 0.14825068E+04</pdfrwt>
<pdfrwt beam="2">  1       -2 0.62474038E-01 0.14825068E+04</pdfrwt>
<totfact> 0.35405752E+01</totfact>
</mgrwt>
</event>
<event>
12    1  0.1472088E-007  0.1540746E+04  0.7818608E-02  0.8857801E-01
         -2   -1    0    0    0  501 -0.00000000000E+00  0.00000000000E+00  0.14341232356E+03  0.14341232356E+03  0.00000000000E+00 0.  1.
          2   -1    0    0  501    0  0.00000000000E+00 -0.00000000000E+00 -0.41382379451E+04  0.41382379451E+04  0.00000000000E+00 0. -1.
         23    2    1    2    0    0 -0.45066440924E+03  0.18011438157E+03 -0.17311503606E+04  0.18001891741E+04  0.90883943080E+02 0.  0.
        254    2    1    2    0    0  0.45066440924E+03 -0.18011438157E+03 -0.22636752609E+04  0.24814610946E+04  0.89324345892E+03 0.  0.
        -24    2    4    4    0    0  0.52199049108E+03 -0.46895435478E+03 -0.14993064387E+04  0.16573321469E+04  0.80235830703E+02 0.  0.
         24    2    4    4    0    0 -0.71326081846E+02  0.28883997321E+03 -0.76436882219E+03  0.82412894762E+03  0.80080496374E+02 0.  0.
         13    1    3    3    0    0 -0.41361783480E+03  0.14043682657E+03 -0.14734506391E+04  0.15368340839E+04  0.00000000000E+00 0.  1.
        -13    1    3    3    0    0 -0.37046574437E+02  0.39677555001E+02 -0.25769972148E+03  0.26335509013E+03  0.00000000000E+00 0. -1.
          2    1    6    6  502    0  0.25453603861E+01  0.15616830155E+03 -0.39603079324E+03  0.42571751956E+03  0.00000000000E+00 0. -1.
          1    1    5    5  503    0  0.30414620256E+03 -0.32511937985E+03 -0.93790171276E+03  0.10382038078E+04  0.00000000000E+00 0. -1.
         -2    1    5    5    0  503  0.21784428852E+03 -0.14383497493E+03 -0.56140472594E+03  0.61912833917E+03  0.00000000000E+00 0.  1.
         -1    1    6    6    0  502 -0.73871442232E+02  0.13267167166E+03 -0.36833802895E+03  0.39841142806E+03  0.00000000000E+00 0.  1.
<mgrwt>
<rscale>  0 0.15407457E+04</rscale>
<asrwt>0</asrwt>
<pdfrwt beam="1">  1        2 0.63665193E+00 0.15407457E+04</pdfrwt>
<pdfrwt beam="2">  1       -2 0.22063437E-01 0.15407457E+04</pdfrwt>
<totfact> 0.46615896E+00</totfact>
</mgrwt>
</event>
<event>
12    1  0.1472088E-007  0.1206475E+04  0.7818608E-02  0.9107208E-01
          1   -1    0    0  501    0  0.00000000000E+00  0.00000000000E+00  0.16978009693E+03  0.16978009693E+03  0.00000000000E+00 0. -1.
         -1   -1    0    0    0  501 -0.00000000000E+00 -0.00000000000E+00 -0.21433339389E+04  0.21433339389E+04  0.00000000000E+00 0.  1.
         23    2    1    2    0    0  0.83502573061E+02  0.18606292836E+03 -0.17303434729E+03  0.28274021033E+03  0.91700862460E+02 0.  0.
        254    2    1    2    0    0 -0.83502573061E+02 -0.18606292836E+03 -0.18005194947E+04  0.20303738255E+04  0.91594504615E+03 0.  0.
        -24    2    4    4    0    0 -0.19066901066E+03 -0.24807857984E+03 -0.18457483297E+04  0.18738217514E+04  0.80767604585E+02 0.  0.
         24    2    4    4    0    0  0.10716643760E+03  0.62015651478E+02  0.45228835050E+02  0.15655207410E+03  0.84453052100E+02 0.  0.
         13    1    3    3    0    0  0.95622385875E+02  0.17947370527E+03 -0.13985527404E+03  0.24680751455E+03  0.00000000000E+00 0. -1.
        -13    1    3    3    0    0 -0.12119812814E+02  0.65892230918E+01 -0.33179073259E+02  0.35932695779E+02  0.00000000000E+00 0.  1.
          2    1    6    6  502    0  0.11220839544E+03  0.73624088921E+02  0.31447643855E+02  0.13784115779E+03  0.00000000000E+00 0. -1.
          3    1    5    5  503    0 -0.16059080683E+03 -0.23433462674E+03 -0.17395519215E+04  0.17625955328E+04  0.00000000000E+00 0. -1.
         -4    1    5    5    0  503 -0.30078203836E+02 -0.13743953102E+02 -0.10619640819E+03  0.11122621861E+03  0.00000000000E+00 0.  1.
         -1    1    6    6    0  502 -0.50419578337E+01 -0.11608437442E+02  0.13781191194E+02  0.18710916316E+02  0.00000000000E+00 0.  1.
<mgrwt>
<rscale>  0 0.12064749E+04</rscale>
<asrwt>0</asrwt>
<pdfrwt beam="1">  1        1 0.26120015E-01 0.12064749E+04</pdfrwt>
<pdfrwt beam="2">  1       -1 0.32974368E+00 0.12064749E+04</pdfrwt>
<totfact> 0.38906161E+00</totfact>
</mgrwt>
</event>
<event>
12    1  0.1472088E-007  0.1608143E+04  0.7818608E-02  0.8815561E-01
          3   -1    0    0  501    0  0.00000000000E+00  0.00000000000E+00  0.33230259361E+03  0.33230259361E+03  0.00000000000E+00 0. -1.
         -3   -1    0    0    0  501 -0.00000000000E+00 -0.00000000000E+00 -0.19456102729E+04  0.19456102729E+04  0.00000000000E+00 0.  1.
         23    2    1    2    0    0 -0.25635847120E+03  0.46139784185E+03 -0.76102197185E+03  0.93077240627E+03  0.92602356457E+02 0.  0.
        254    2    1    2    0    0  0.25635847120E+03 -0.46139784185E+03 -0.85228570745E+03  0.13471404602E+04  0.89988269140E+03 0.  0.
        -24    2    4    4    0    0 -0.63968209129E+02 -0.33486245795E+03  0.72134801442E+02  0.35743291565E+03  0.79561687323E+02 0.  0.
         24    2    4    4    0    0  0.32032668033E+03 -0.12653538390E+03 -0.92442050889E+03  0.98970754459E+03  0.79670327292E+02 0.  0.
         13    1    3    3    0    0  0.24514122135E+01 -0.28449353286E+01 -0.10128887101E+02  0.10802658598E+02  0.00000000000E+00 0.  1.
        -13    1    3    3    0    0 -0.25880988342E+03  0.46424277718E+03 -0.75089308475E+03  0.91996974768E+03  0.00000000000E+00 0. -1.
          4    1    6    6  502    0  0.24144628162E+03 -0.13008032639E+03 -0.70064080790E+03  0.75240596749E+03  0.00000000000E+00 0. -1.
          1    1    5    5  503    0 -0.53874979466E+02 -0.16794407115E+03  0.71211061593E+02  0.19020709698E+03  0.00000000000E+00 0. -1.
         -2    1    5    5    0  503 -0.10093229663E+02 -0.16691838680E+03  0.92373984883E+00  0.16722581868E+03  0.00000000000E+00 0.  1.
         -3    1    6    6    0  502  0.78880398712E+02  0.35449424912E+01 -0.22377970099E+03  0.23730157710E+03  0.00000000000E+00 0.  1.
<mgrwt>
<rscale>  0 0.16081435E+04</rscale>
<asrwt>0</asrwt>
<pdfrwt beam="1">  1        3 0.51123475E-01 0.16081435E+04</pdfrwt>
<pdfrwt beam="2">  1       -3 0.29932466E+00 0.16081435E+04</pdfrwt>
<totfact> 0.36587757E-01</totfact>
</mgrwt>
</event>
<event>
12    1  0.1472088E-007  0.1243955E+04  0.7818608E-02  0.9075230E-01
          2   -1    0    0  501    0  0.00000000000E+00  0.00000000000E+00  0.89685291577E+03  0.89685291577E+03  0.00000000000E+00 0. -1.
         -2   -1    0    0    0  501 -0.00000000000E+00 -0.00000000000E+00 -0.43134808055E+03  0.43134808055E+03  0.00000000000E+00 0.  1.
         23    2    1    2    0    0  0.22984116089E+03  0.14921201562E+03  0.20479038591E+03  0.35379904710E+03  0.90241225170E+02 0.  0.
        254    2    1    2    0    0 -0.22984116089E+03 -0.14921201562E+03  0.26071444931E+03  0.97440194922E+03  0.89799551765E+03 0.  0.
        -24    2    4    4    0    0 -0.33839528303E+03 -0.44560219877E+03  0.13298444606E+02  0.56557538300E+03  0.81400111174E+02 0.  0.
         24    2    4    4    0    0  0.10855412214E+03  0.29639018315E+03  0.24741600470E+03  0.40882656622E+03  0.79330597896E+02 0.  0.
         13    1    3    3    0    0  0.18546740464E+03  0.12913067758E+03  0.20495998938E+03  0.30509258812E+03  0.00000000000E+00 0. -1.
        -13    1    3    3    0    0  0.44373756245E+02  0.20081338035E+02 -0.16960346986E+00  0.48706458975E+02  0.00000000000E+00 0.  1.
          2    1    6    6  502    0  0.87567833148E+01  0.94081970349E+01 -0.50264948041E+01  0.13800763583E+02  0.00000000000E+00 0. -1.
          1    1    5    5  503    0 -0.13160677304E+03 -0.11177995858E+03  0.80723317152E+01  0.17285908825E+03  0.00000000000E+00 0. -1.
         -2    1    5    5    0  503 -0.20678851000E+03 -0.33382224018E+03  0.52261128904E+01  0.39271629475E+03  0.00000000000E+00 0.  1.
         -1    1    6    6    0  502  0.99797338829E+02  0.28698198611E+03  0.25244249951E+03  0.39502580264E+03  0.00000000000E+00 0.  1.
<mgrwt>
<rscale>  0 0.12439546E+04</rscale>
<asrwt>0</asrwt>
<pdfrwt beam="1">  1        2 0.13797737E+00 0.12439546E+04</pdfrwt>
<pdfrwt beam="2">  1       -2 0.66361243E-01 0.12439546E+04</pdfrwt>
<totfact> 0.60544367E+01</totfact>
</mgrwt>
</event>
<event>
12    1  0.1472088E-007  0.1360003E+04  0.7818608E-02  0.8983290E-01
          3   -1    0    0  501    0  0.00000000000E+00  0.00000000000E+00  0.10709375503E+04  0.10709375503E+04  0.00000000000E+00 0. -1.
         -3   -1    0    0    0  501 -0.00000000000E+00 -0.00000000000E+00 -0.43177328691E+03  0.43177328691E+03  0.00000000000E+00 0.  1.
         23    2    1    2    0    0  0.51962544112E+02 -0.95138104447E+02  0.57989296526E+03  0.59692985402E+03  0.91093548331E+02 0.  0.
        254    2    1    2    0    0 -0.51962544112E+02  0.95138104447E+02  0.59271298140E+02  0.90578098320E+03  0.89731529456E+03 0.  0.
        -24    2    4    4    0    0 -0.41709862493E+03  0.25594336036E+03  0.13699482152E+02  0.49612854196E+03  0.80483462305E+02 0.  0.
         24    2    4    4    0    0  0.36513608082E+03 -0.16080525591E+03  0.45571815988E+02  0.40965244124E+03  0.80966933731E+02 0.  0.
         13    1    3    3    0    0  0.44618266245E+02 -0.10670159675E+02  0.10584818807E+03  0.11536238948E+03  0.00000000000E+00 0.  1.
        -13    1    3    3    0    0  0.73442778673E+01 -0.84467944771E+02  0.47404477719E+03  0.48156746453E+03  0.00000000000E+00 0. -1.
          4    1    6    6  502    0  0.11530328513E+03 -0.67751639485E+02  0.50647166993E+02  0.14300443258E+03  0.00000000000E+00 0. -1.
          1    1    5    5  503    0 -0.17571642164E+03  0.13008486882E+03 -0.29115527986E+02  0.22055849089E+03  0.00000000000E+00 0. -1.
         -2    1    5    5    0  503 -0.24138220329E+03  0.12585849153E+03  0.42815010138E+02  0.27557005107E+03  0.00000000000E+00 0.  1.
         -3    1    6    6    0  502  0.24983279569E+03 -0.93053616426E+02 -0.50753510054E+01  0.26664800866E+03  0.00000000000E+00 0.  1.
<mgrwt>
<rscale>  0 0.13600033E+04</rscale>
<asrwt>0</asrwt>
<pdfrwt beam="1">  1        3 0.16475962E+00 0.13600033E+04</pdfrwt>
<pdfrwt beam="2">  1       -3 0.66426660E-01 0.13600033E+04</pdfrwt>
<totfact> 0.14126582E+00</totfact>
</mgrwt>
</event>
<event>
12    1  0.1472088E-007  0.2081161E+04  0.7818608E-02  0.8569588E-01
         -1   -1    0    0    0  501 -0.00000000000E+00  0.00000000000E+00  0.63877071984E+03  0.63877071984E+03  0.00000000000E+00 0.  1.
          1   -1    0    0  501    0  0.00000000000E+00 -0.00000000000E+00 -0.16951427723E+04  0.16951427723E+04  0.00000000000E+00 0. -1.
         23    2    1    2    0    0  0.72204826604E+03 -0.30538387737E+03 -0.77306235514E+03  0.11047609203E+04  0.90875051799E+02 0.  0.
        254    2    1    2    0    0 -0.72204826604E+03  0.30538387737E+03 -0.28330969729E+03  0.12291525718E+04  0.90329322433E+03 0.  0.
        -24    2    4    4    0    0 -0.24900894853E+03 -0.29599750924E+03 -0.23187275084E+03  0.45821187978E+03  0.81075102601E+02 0.  0.
         24    2    4    4    0    0 -0.47303931751E+03  0.60138138661E+03 -0.51436946444E+02  0.77094069202E+03  0.79233976761E+02 0.  0.
         11    1    3    3    0    0  0.48281475620E+03 -0.24250498134E+03 -0.56203145946E+03  0.77961408158E+03  0.00000000000E+00 0. -1.
        -11    1    3    3    0    0  0.23923350984E+03 -0.62878896027E+02 -0.21103089568E+03  0.32514683872E+03  0.00000000000E+00 0.  1.
          2    1    6    6  502    0 -0.42070003255E+03  0.48857311278E+03 -0.48172068118E+02  0.64653905688E+03  0.00000000000E+00 0. -1.
          1    1    5    5  503    0 -0.35210953733E+02 -0.84038913766E+02 -0.30804085449E+02  0.96183376787E+02  0.00000000000E+00 0. -1.
         -2    1    5    5    0  503 -0.21379799480E+03 -0.21195859547E+03 -0.20106866539E+03  0.36202850299E+03  0.00000000000E+00 0.  1.
         -1    1    6    6    0  502 -0.52339284957E+02  0.11280827383E+03 -0.32648783253E+01  0.12440163514E+03  0.00000000000E+00 0.  1.
<mgrwt>
<rscale>  0 0.20811608E+04</rscale>
<asrwt>0</asrwt>
<pdfrwt beam="1">  1        1 0.26079119E+00 0.20811608E+04</pdfrwt>
<pdfrwt beam="2">  1       -1 0.98272419E-01 0.20811608E+04</pdfrwt>
<totfact> 0.43872574E+00</totfact>
</mgrwt>
</event>
<event>
12    1  0.1472088E-007  0.1365318E+04  0.7818608E-02  0.8979313E-01
         -2   -1    0    0    0  501 -0.00000000000E+00  0.00000000000E+00  0.61361261756E+03  0.61361261756E+03  0.00000000000E+00 0. -1.
          2   -1    0    0  501    0  0.00000000000E+00 -0.00000000000E+00 -0.75947461409E+03  0.75947461409E+03  0.00000000000E+00 0.  1.
         23    2    1    2    0    0 -0.27099559750E+03  0.39205169560E+02  0.19535486989E+03  0.34817982734E+03  0.89944470604E+02 0.  0.
        254    2    1    2    0    0  0.27099559750E+03 -0.39205169560E+02 -0.34121686642E+03  0.10249074043E+04  0.92683902502E+03 0.  0.
        -24    2    4    4    0    0  0.15425514799E+02  0.11236656835E+03 -0.60502748966E+03  0.62095854074E+03  0.81652029276E+02 0.  0.
         24    2    4    4    0    0  0.25557008270E+03 -0.15157173791E+03  0.26381062324E+03  0.40394886357E+03  0.72722627430E+02 0.  0.
         11    1    3    3    0    0  0.22437359708E+01  0.23882807412E+01  0.22562891700E+02  0.22799612231E+02  0.00000000000E+00 0.  1.
        -11    1    3    3    0    0 -0.27323933347E+03  0.36816888819E+02  0.17279197819E+03  0.32538021511E+03  0.00000000000E+00 0. -1.
          2    1    6    6  502    0  0.93583233396E+01 -0.50951169144E+00  0.32690949756E+02  0.34007881643E+02  0.00000000000E+00 0. -1.
          3    1    5    5  503    0  0.17615546130E+02 -0.66036694963E+01 -0.52646441648E+02  0.55906741405E+02  0.00000000000E+00 0. -1.
         -4    1    5    5    0  503 -0.21900313303E+01  0.11897023785E+03 -0.55238104801E+03  0.56505179933E+03  0.00000000000E+00 0.  1.
         -1    1    6    6    0  502  0.24621175936E+03 -0.15106222622E+03  0.23111967349E+03  0.36994098192E+03  0.00000000000E+00 0.  1.
<mgrwt>
<rscale>  0 0.13653178E+04</rscale>
<asrwt>0</asrwt>
<pdfrwt beam="1">  1        2 0.11684225E+00 0.13653178E+04</pdfrwt>
<pdfrwt beam="2">  1       -2 0.94401940E-01 0.13653178E+04</pdfrwt>
<totfact> 0.34057818E+01</totfact>
</mgrwt>
</event>
<event>
12    1  0.1472088E-007  0.1305848E+04  0.7818608E-02  0.9024941E-01
         -2   -1    0    0    0  501 -0.00000000000E+00  0.00000000000E+00  0.62350786589E+03  0.62350786589E+03  0.00000000000E+00 0. -1.
          2   -1    0    0  501    0  0.00000000000E+00 -0.00000000000E+00 -0.68372746905E+03  0.68372746905E+03  0.00000000000E+00 0.  1.
         23    2    1    2    0    0 -0.48544931064E+02 -0.10064643890E+03  0.29828716469E+03  0.33306212186E+03  0.97307905128E+02 0.  0.
        254    2    1    2    0    0  0.48544931064E+02  0.10064643890E+03 -0.35850676785E+03  0.97417321308E+03  0.89888821913E+03 0.  0.
        -24    2    4    4    0    0 -0.20881816093E+03 -0.21753732684E+03 -0.44889973203E+03  0.54691679728E+03  0.81728213211E+02 0.  0.
         24    2    4    4    0    0  0.25736309199E+03  0.31818376574E+03  0.90392964180E+02  0.42725641580E+03  0.83069169770E+02 0.  0.
         13    1    3    3    0    0 -0.50389624345E+02 -0.21587411930E+02  0.56725379735E+02  0.78885355432E+02  0.00000000000E+00 0.  1.
        -13    1    3    3    0    0  0.18446932803E+01 -0.79059026972E+02  0.24156178496E+03  0.25417676643E+03  0.00000000000E+00 0. -1.
          2    1    6    6  502    0  0.18340565026E+03  0.20048214847E+03  0.22764804242E+02  0.27267005834E+03  0.00000000000E+00 0. -1.
          3    1    5    5  503    0 -0.38054125661E+02 -0.19718869659E+02 -0.27051909205E+02  0.50682897433E+02  0.00000000000E+00 0. -1.
         -4    1    5    5    0  503 -0.17076403527E+03 -0.19781845718E+03 -0.42184782282E+03  0.49623389985E+03  0.00000000000E+00 0.  1.
         -1    1    6    6    0  502  0.73957441732E+02  0.11770161727E+03  0.67628159938E+02  0.15458635746E+03  0.00000000000E+00 0.  1.
<mgrwt>
<rscale>  0 0.13058475E+04</rscale>
<asrwt>0</asrwt>
<pdfrwt beam="1">  1        2 0.10518884E+00 0.13058475E+04</pdfrwt>
<pdfrwt beam="2">  1       -2 0.95924287E-01 0.13058475E+04</pdfrwt>
<totfact> 0.37691462E+01</totfact>
</mgrwt>
</event>
<event>
12    1  0.1472088E-007  0.1432758E+04  0.7818608E-02  0.8930442E-01
         -2   -1    0    0    0  501 -0.00000000000E+00  0.00000000000E+00  0.66117622866E+03  0.66117622866E+03  0.00000000000E+00 0.  1.
          2   -1    0    0  501    0  0.00000000000E+00 -0.00000000000E+00 -0.77619058717E+03  0.77619058717E+03  0.00000000000E+00 0. -1.
         23    2    1    2    0    0 -0.27615055136E+03 -0.18924251461E+03 -0.27975838622E+03  0.44539042304E+03  0.89643839278E+02 0.  0.
        254    2    1    2    0    0  0.27615055136E+03  0.18924251461E+03  0.16474402770E+03  0.99197639280E+03  0.91913258720E+03 0.  0.
        -24    2    4    4    0    0  0.14033541201E+03  0.54336746405E+03 -0.13876103712E+02  0.56703498675E+03  0.79961872765E+02 0.  0.
         24    2    4    4    0    0  0.13581513935E+03 -0.35412494943E+03  0.17862013142E+03  0.42494140605E+03  0.69424889910E+02 0.  0.
         13    1    3    3    0    0 -0.21324350952E+03 -0.95622110169E+02 -0.18441092923E+03  0.29769745234E+03  0.00000000000E+00 0. -1.
        -13    1    3    3    0    0 -0.62907041836E+02 -0.93620404445E+02 -0.95347456984E+02  0.14769297070E+03  0.00000000000E+00 0.  1.
          4    1    6    6  502    0  0.87913166969E+02 -0.29036974588E+03  0.16024631188E+03  0.34310668125E+03  0.00000000000E+00 0. -1.
          1    1    5    5  503    0  0.98219230912E+02  0.39080052706E+03 -0.45882223080E+02  0.40555794613E+03  0.00000000000E+00 0. -1.
         -2    1    5    5    0  503  0.42116181098E+02  0.15256693699E+03  0.32006119367E+02  0.16147704062E+03  0.00000000000E+00 0.  1.
         -3    1    6    6    0  502  0.47901972381E+02 -0.63755203553E+02  0.18373819539E+02  0.81834724796E+02  0.00000000000E+00 0.  1.
<mgrwt>
<rscale>  0 0.14327579E+04</rscale>
<asrwt>0</asrwt>
<pdfrwt beam="1">  1        2 0.11941394E+00 0.14327579E+04</pdfrwt>
<pdfrwt beam="2">  1       -2 0.10171942E+00 0.14327579E+04</pdfrwt>
<totfact> 0.27617707E+01</totfact>
</mgrwt>
</event>
<event>
12    1  0.1472088E-007  0.1396887E+04  0.7818608E-02  0.8956075E-01
          1   -1    0    0  501    0  0.00000000000E+00  0.00000000000E+00  0.20836004675E+04  0.20836004675E+04  0.00000000000E+00 0. -1.
         -1   -1    0    0    0  501 -0.00000000000E+00 -0.00000000000E+00 -0.23412531719E+03  0.23412531719E+03  0.00000000000E+00 0.  1.
         23    2    1    2    0    0 -0.44871826219E+02  0.37933332237E+03  0.36074255261E+03  0.53467146625E+03  0.99152091836E+02 0.  0.
        254    2    1    2    0    0  0.44871826219E+02 -0.37933332237E+03  0.14887325977E+04  0.17830543185E+04  0.90390857105E+03 0.  0.
        -24    2    4    4    0    0  0.26999532805E+03  0.14102208202E+03  0.19849293826E+03  0.37160757059E+03  0.76863744319E+02 0.  0.
         24    2    4    4    0    0 -0.22512350183E+03 -0.52035540439E+03  0.12902396595E+04  0.14114467479E+04  0.77544859889E+02 0.  0.
         11    1    3    3    0    0 -0.46662672446E+02  0.38543670715E+03  0.35414209558E+03  0.52550498007E+03  0.00000000000E+00 0.  1.
        -11    1    3    3    0    0  0.17908462277E+01 -0.61033847787E+01  0.66004570266E+01  0.91664861822E+01  0.00000000000E+00 0. -1.
          2    1    6    6  502    0 -0.22646683174E+03 -0.48152884193E+03  0.12237942085E+04  0.13344772446E+04  0.00000000000E+00 0. -1.
          1    1    5    5  503    0  0.23791370124E+03  0.14703984052E+03  0.16447357386E+03  0.32446140054E+03  0.00000000000E+00 0. -1.
         -2    1    5    5    0  503  0.32081626805E+02 -0.60177585011E+01  0.34019364406E+02  0.47146170050E+02  0.00000000000E+00 0.  1.
         -1    1    6    6    0  502  0.13433299140E+01 -0.38826562456E+02  0.66445450965E+02  0.76969503320E+02  0.00000000000E+00 0.  1.
<mgrwt>
<rscale>  0 0.13968874E+04</rscale>
<asrwt>0</asrwt>
<pdfrwt beam="1">  1        1 0.32055390E+00 0.13968874E+04</pdfrwt>
<pdfrwt beam="2">  1       -1 0.36019281E-01 0.13968874E+04</pdfrwt>
<totfact> 0.18816116E+01</totfact>
</mgrwt>
</event>
<event>
12    1  0.1472088E-007  0.1349298E+04  0.7818608E-02  0.8991360E-01
          2   -1    0    0  501    0  0.00000000000E+00  0.00000000000E+00  0.52139349202E+03  0.52139349202E+03  0.00000000000E+00 0. -1.
         -2   -1    0    0    0  501 -0.00000000000E+00 -0.00000000000E+00 -0.87295104313E+03  0.87295104313E+03  0.00000000000E+00 0.  1.
         23    2    1    2    0    0  0.16406498154E+03  0.72686406636E+01  0.24498519256E+03  0.30786993660E+03  0.88294971434E+02 0.  0.
        254    2    1    2    0    0 -0.16406498154E+03 -0.72686406636E+01 -0.59654274368E+03  0.10864745986E+04  0.89308099127E+03 0.  0.
        -24    2    4    4    0    0 -0.95710080741E+02  0.43274339338E+03 -0.35588116168E+03  0.57401464420E+03  0.80088366456E+02 0.  0.
         24    2    4    4    0    0 -0.68354900801E+02 -0.44001203405E+03 -0.24066158200E+03  0.51245995435E+03  0.80088858141E+02 0.  0.
         11    1    3    3    0    0 -0.71494754447E+00 -0.18134188894E+02  0.37802166141E+02  0.41932847766E+02  0.00000000000E+00 0.  1.
        -11    1    3    3    0    0  0.16477992909E+03  0.25402829557E+02  0.20718302642E+03  0.26593708883E+03  0.00000000000E+00 0. -1.
          2    1    6    6  502    0 -0.59404042653E+01 -0.19209160023E+03 -0.67555347355E+02  0.20371106067E+03  0.00000000000E+00 0. -1.
          3    1    5    5  503    0 -0.13164575967E+02  0.15490102228E+03 -0.16645056277E+03  0.22775737663E+03  0.00000000000E+00 0. -1.
         -4    1    5    5    0  503 -0.82545504774E+02  0.27784237111E+03 -0.18943059891E+03  0.34625726757E+03  0.00000000000E+00 0.  1.
         -1    1    6    6    0  502 -0.62414496535E+02 -0.24792043382E+03 -0.17310623464E+03  0.30874889369E+03  0.00000000000E+00 0.  1.
<mgrwt>
<rscale>  0 0.13492976E+04</rscale>
<asrwt>0</asrwt>
<pdfrwt beam="1">  1        2 0.80214384E-01 0.13492976E+04</pdfrwt>
<pdfrwt beam="2">  1       -2 0.13430016E+00 0.13492976E+04</pdfrwt>
<totfact> 0.22884749E+01</totfact>
</mgrwt>
</event>
<event>
12    1  0.1472088E-007  0.1258151E+04  0.7818608E-02  0.9063426E-01
          2   -1    0    0  501    0  0.00000000000E+00  0.00000000000E+00  0.39366939591E+03  0.39366939591E+03  0.00000000000E+00 0. -1.
         -2   -1    0    0    0  501 -0.00000000000E+00 -0.00000000000E+00 -0.10052496554E+04  0.10052496554E+04  0.00000000000E+00 0.  1.
         23    2    1    2    0    0 -0.31401886212E+02  0.25525671249E+03  0.35467354289E+01  0.27603980252E+03  0.10021639343E+03 0.  0.
        254    2    1    2    0    0  0.31401886212E+02 -0.25525671249E+03 -0.61512699495E+03  0.11228792488E+04  0.90351232410E+03 0.  0.
        -24    2    4    4    0    0  0.42630776667E+03 -0.30026501511E+03 -0.27716862685E+03  0.59508806856E+03  0.73552501100E+02 0.  0.
         24    2    4    4    0    0 -0.39490588046E+03  0.45008302615E+02 -0.33795836810E+03  0.52779118026E+03  0.79820233437E+02 0.  0.
         11    1    3    3    0    0 -0.31356807801E+02  0.19045736668E+02 -0.13789213567E+02  0.39193518488E+02  0.00000000000E+00 0.  1.
        -11    1    3    3    0    0 -0.45078411189E-01  0.23621097582E+03  0.17335948996E+02  0.23684628403E+03  0.00000000000E+00 0. -1.
          4    1    6    6  502    0 -0.42826279063E+02 -0.13140369597E+02 -0.62979108077E+02  0.77286011320E+02  0.00000000000E+00 0. -1.
          3    1    5    5  503    0  0.27644741852E+03 -0.15062034392E+03 -0.16622527748E+03  0.35600632871E+03  0.00000000000E+00 0. -1.
         -4    1    5    5    0  503  0.14986034815E+03 -0.14964467119E+03 -0.11094334937E+03  0.23908173986E+03  0.00000000000E+00 0.  1.
         -3    1    6    6    0  502 -0.35207960140E+03  0.58148672212E+02 -0.27497926003E+03  0.45050516894E+03  0.00000000000E+00 0.  1.
<mgrwt>
<rscale>  0 0.12581511E+04</rscale>
<asrwt>0</asrwt>
<pdfrwt beam="1">  1        2 0.60564524E-01 0.12581511E+04</pdfrwt>
<pdfrwt beam="2">  1       -2 0.15465379E+00 0.12581511E+04</pdfrwt>
<totfact> 0.21955168E+01</totfact>
</mgrwt>
</event>
<event>
12    1  0.1472088E-007  0.1912008E+04  0.7818608E-02  0.8648902E-01
         -1   -1    0    0    0  501 -0.00000000000E+00  0.00000000000E+00  0.36212294797E+03  0.36212294797E+03  0.00000000000E+00 0.  1.
          1   -1    0    0  501    0  0.00000000000E+00 -0.00000000000E+00 -0.25238477674E+04  0.25238477674E+04  0.00000000000E+00 0. -1.
         23    2    1    2    0    0 -0.26727900517E+03 -0.23948995734E+03 -0.18260426628E+04  0.18631831836E+04  0.90698749109E+02 0.  0.
        254    2    1    2    0    0  0.26727900517E+03  0.23948995734E+03 -0.33568215667E+03  0.10227875318E+04  0.89700519430E+03 0.  0.
        -24    2    4    4    0    0 -0.21904673534E+03 -0.19370626518E+03 -0.53683137184E+02  0.30784061647E+03  0.79877258938E+02 0.  0.
         24    2    4    4    0    0  0.48632574051E+03  0.43319622252E+03 -0.28199901948E+03  0.71494691532E+03  0.86336270738E+02 0.  0.
         13    1    3    3    0    0 -0.19389499595E+03 -0.11451306884E+03 -0.10964237865E+04  0.11193094443E+04  0.00000000000E+00 0. -1.
        -13    1    3    3    0    0 -0.73384009219E+02 -0.12497688851E+03 -0.72961887622E+03  0.74387373929E+03  0.00000000000E+00 0.  1.
          4    1    6    6  502    0  0.33059180858E+03  0.23959546092E+03 -0.16605468953E+03  0.44076194108E+03  0.00000000000E+00 0. -1.
          1    1    5    5  503    0 -0.12020889697E+03 -0.63052233995E+02 -0.98133184913E+00  0.13574507776E+03  0.00000000000E+00 0. -1.
         -2    1    5    5    0  503 -0.98837838369E+02 -0.13065403119E+03 -0.52701805335E+02  0.17209553871E+03  0.00000000000E+00 0.  1.
         -3    1    6    6    0  502  0.15573393193E+03  0.19360076161E+03 -0.11594432995E+03  0.27418497423E+03  0.00000000000E+00 0.  1.
<mgrwt>
<rscale>  0 0.19120075E+04</rscale>
<asrwt>0</asrwt>
<pdfrwt beam="1">  1        1 0.38828427E+00 0.19120075E+04</pdfrwt>
<pdfrwt beam="2">  1       -1 0.55711223E-01 0.19120075E+04</pdfrwt>
<totfact> 0.39746762E+00</totfact>
</mgrwt>
</event>
<event>
12    1  0.1472088E-007  0.2131098E+04  0.7818608E-02  0.8547667E-01
          1   -1    0    0  501    0  0.00000000000E+00  0.00000000000E+00  0.23093756835E+04  0.23093756835E+04  0.00000000000E+00 0.  1.
         -1   -1    0    0    0  501 -0.00000000000E+00 -0.00000000000E+00 -0.49164581416E+03  0.49164581416E+03  0.00000000000E+00 0. -1.
         23    2    1    2    0    0  0.53429939374E+03  0.59425826623E+03  0.28977945022E+03  0.85539835372E+03  0.95475047172E+02 0.  0.
        254    2    1    2    0    0 -0.53429939374E+03 -0.59425826623E+03  0.15279504191E+04  0.19456231440E+04  0.90122039806E+03 0.  0.
        -24    2    4    4    0    0  0.16209303790E+03  0.58151588184E+02  0.53105618295E+03  0.56330015374E+03  0.75037547995E+02 0.  0.
         24    2    4    4    0    0 -0.69639243164E+03 -0.65240985442E+03  0.99689423619E+03  0.13823229902E+04  0.80110512329E+02 0.  0.
         11    1    3    3    0    0  0.11189574703E+03  0.76499584450E+02  0.65629231914E+02  0.15059893992E+03  0.00000000000E+00 0.  1.
        -11    1    3    3    0    0  0.42240364671E+03  0.51775868178E+03  0.22415021831E+03  0.70479941379E+03  0.00000000000E+00 0. -1.
          4    1    6    6  502    0 -0.41011261492E+03 -0.43523605783E+03  0.63829759520E+03  0.87466942498E+03  0.00000000000E+00 0. -1.
          3    1    5    5  503    0  0.10343682629E+03  0.69683934802E+02  0.40536090134E+03  0.42411376792E+03  0.00000000000E+00 0. -1.
         -4    1    5    5    0  503  0.58656211612E+02 -0.11532346617E+02  0.12569528161E+03  0.13918638583E+03  0.00000000000E+00 0.  1.
         -3    1    6    6    0  502 -0.28627981672E+03 -0.21717379659E+03  0.35859664099E+03  0.50765356525E+03  0.00000000000E+00 0.  1.
<mgrwt>
<rscale>  0 0.21310982E+04</rscale>
<asrwt>0</asrwt>
<pdfrwt beam="1">  1        1 0.35528856E+00 0.21310982E+04</pdfrwt>
<pdfrwt beam="2">  1       -1 0.75637819E-01 0.21310982E+04</pdfrwt>
<totfact> 0.29542082E+00</totfact>
</mgrwt>
</event>
<event>
12    1  0.1472088E-007  0.1335392E+04  0.7818608E-02  0.9001960E-01
         -2   -1    0    0    0  501 -0.00000000000E+00  0.00000000000E+00  0.12671060053E+04  0.12671060053E+04  0.00000000000E+00 0.  1.
          2   -1    0    0  501    0  0.00000000000E+00 -0.00000000000E+00 -0.35183946392E+03  0.35183946392E+03  0.00000000000E+00 0. -1.
         23    2    1    2    0    0  0.27331138258E+03  0.10273418980E+03  0.48439403714E+03  0.57319694138E+03  0.93079131886E+02 0.  0.
        254    2    1    2    0    0 -0.27331138258E+03 -0.10273418980E+03  0.43087250428E+03  0.10457485279E+04  0.90702008965E+03 0.  0.
        -24    2    4    4    0    0 -0.39210509788E+03 -0.30151192515E+03 -0.52511300917E+02  0.50374901636E+03  0.79685544278E+02 0.  0.
         24    2    4    4    0    0  0.11879371530E+03  0.19877773536E+03  0.48338380519E+03  0.54199951152E+03  0.80492437530E+02 0.  0.
         13    1    3    3    0    0  0.19647826357E+03  0.32441868948E+02  0.35567571606E+03  0.40762899543E+03  0.00000000000E+00 0.  1.
        -13    1    3    3    0    0  0.76833119004E+02  0.70292320847E+02  0.12871832108E+03  0.16556794595E+03  0.00000000000E+00 0. -1.
          4    1    6    6  502    0  0.67870097939E+02  0.14648189613E+03  0.39901402623E+03  0.43043639393E+03  0.00000000000E+00 0. -1.
          3    1    5    5  503    0 -0.33197656147E+03 -0.23066606309E+03 -0.66818534517E+02  0.40973160311E+03  0.00000000000E+00 0. -1.
         -4    1    5    5    0  503 -0.60128536406E+02 -0.70845862057E+02  0.14307233600E+02  0.94017413250E+02  0.00000000000E+00 0.  1.
         -3    1    6    6    0  502  0.50923617362E+02  0.52295839227E+02  0.84369778965E+02  0.11156311760E+03  0.00000000000E+00 0.  1.
<mgrwt>
<rscale>  0 0.13353919E+04</rscale>
<asrwt>0</asrwt>
<pdfrwt beam="1">  1        2 0.54129149E-01 0.13353919E+04</pdfrwt>
<pdfrwt beam="2">  1       -2 0.19493938E+00 0.13353919E+04</pdfrwt>
<totfact> 0.12890735E+01</totfact>
</mgrwt>
</event>
<event>
12    1  0.1472088E-007  0.2445658E+04  0.7818608E-02  0.8422605E-01
          2   -1    0    0  501    0  0.00000000000E+00  0.00000000000E+00  0.10891206931E+04  0.10891206931E+04  0.00000000000E+00 0. -1.
         -2   -1    0    0    0  501 -0.00000000000E+00 -0.00000000000E+00 -0.13729523472E+04  0.13729523472E+04  0.00000000000E+00 0.  1.
         23    2    1    2    0    0 -0.88363724363E+03  0.72496276489E+02 -0.69965945171E+03  0.11327175428E+04  0.86343471533E+02 0.  0.
        254    2    1    2    0    0  0.88363724363E+03 -0.72496276489E+02  0.41582779766E+03  0.13293554974E+04  0.89900099711E+03 0.  0.
        -24    2    4    4    0    0  0.66417473234E+03  0.15029722126E+03 -0.12791633266E+03  0.69716400536E+03  0.77186348545E+02 0.  0.
         24    2    4    4    0    0  0.21946251128E+03 -0.22279349775E+03  0.54374413032E+03  0.63219149207E+03  0.78788748529E+02 0.  0.
         13    1    3    3    0    0 -0.28474516575E+03 -0.16139082597E+02 -0.23481239438E+03  0.36942812556E+03  0.00000000000E+00 0. -1.
        -13    1    3    3    0    0 -0.59889207788E+03  0.88635359085E+02 -0.46484705734E+03  0.76328941728E+03  0.00000000000E+00 0.  1.
          4    1    6    6  502    0  0.37699308280E+02 -0.67006127528E+02  0.19093143189E+03  0.20582971276E+03  0.00000000000E+00 0. -1.
          1    1    5    5  503    0  0.37999317682E+03  0.11077249912E+03 -0.10404138444E+03  0.40925538563E+03  0.00000000000E+00 0. -1.
         -2    1    5    5    0  503  0.28418155552E+03  0.39524722137E+02 -0.23874948216E+02  0.28790861972E+03  0.00000000000E+00 0.  1.
         -3    1    6    6    0  502  0.18176320300E+03 -0.15578737022E+03  0.35281269843E+03  0.42636177931E+03  0.00000000000E+00 0.  1.
<mgrwt>
<rscale>  0 0.24456580E+04</rscale>
<asrwt>0</asrwt>
<pdfrwt beam="1">  1        2 0.16755703E+00 0.24456580E+04</pdfrwt>
<pdfrwt beam="2">  1       -2 0.21122344E+00 0.24456580E+04</pdfrwt>
<totfact> 0.22287926E+00</totfact>
</mgrwt>
</event>
<event>
12    1  0.1472088E-007  0.1812098E+04  0.7818608E-02  0.8699892E-01
          1   -1    0    0  501    0  0.00000000000E+00  0.00000000000E+00  0.21469148626E+04  0.21469148626E+04  0.00000000000E+00 0. -1.
         -1   -1    0    0    0  501 -0.00000000000E+00 -0.00000000000E+00 -0.38237404750E+03  0.38237404750E+03  0.00000000000E+00 0.  1.
         23    2    1    2    0    0 -0.65446061151E+03  0.10316983758E+03  0.87390253717E+03  0.11003294759E+04  0.89758585888E+02 0.  0.
        254    2    1    2    0    0  0.65446061151E+03 -0.10316983758E+03  0.89063827796E+03  0.14289594342E+04  0.89984766211E+03 0.  0.
        -24    2    4    4    0    0  0.39002545160E+03 -0.48906527212E+03  0.60933939107E+03  0.87740981302E+03  0.85139844855E+02 0.  0.
         24    2    4    4    0    0  0.26443515991E+03  0.38589543454E+03  0.28129888689E+03  0.55154962118E+03  0.78972657644E+02 0.  0.
         11    1    3    3    0    0 -0.65608765444E+03  0.10204840399E+03  0.87472905602E+03  0.10981875106E+04  0.00000000000E+00 0. -1.
        -11    1    3    3    0    0  0.16270429265E+01  0.11214335864E+01 -0.82651884790E+00  0.21419653077E+01  0.00000000000E+00 0.  1.
          4    1    6    6  502    0  0.16568143523E+03  0.18894301560E+03  0.17965109473E+03  0.30890826626E+03  0.00000000000E+00 0. -1.
          3    1    5    5  503    0  0.11788445136E+03 -0.21416905793E+03  0.23230875348E+03  0.33724247388E+03  0.00000000000E+00 0. -1.
         -4    1    5    5    0  503  0.27214100023E+03 -0.27489621419E+03  0.37703063760E+03  0.54016733914E+03  0.00000000000E+00 0.  1.
         -3    1    6    6    0  502  0.98753724682E+02  0.19695241894E+03  0.10164779216E+03  0.24264135492E+03  0.00000000000E+00 0.  1.
<mgrwt>
<rscale>  0 0.18120977E+04</rscale>
<asrwt>0</asrwt>
<pdfrwt beam="1">  1        1 0.33029459E+00 0.18120977E+04</pdfrwt>
<pdfrwt beam="2">  1       -1 0.58826778E-01 0.18120977E+04</pdfrwt>
<totfact> 0.65387778E+00</totfact>
</mgrwt>
</event>
<event>
12    1  0.1472088E-007  0.1784050E+04  0.7818608E-02  0.8714828E-01
          2   -1    0    0  501    0  0.00000000000E+00  0.00000000000E+00  0.86449854867E+03  0.86449854867E+03  0.00000000000E+00 0. -1.
         -2   -1    0    0    0  501 -0.00000000000E+00 -0.00000000000E+00 -0.92042753316E+03  0.92042753316E+03  0.00000000000E+00 0.  1.
         23    2    1    2    0    0 -0.12690919424E+03 -0.20974420829E+03  0.60447883613E+03  0.65689890626E+03  0.77607559109E+02 0.  0.
        254    2    1    2    0    0  0.12690919424E+03  0.20974420829E+03 -0.66040782062E+03  0.11280271756E+04  0.88102681163E+03 0.  0.
        -24    2    4    4    0    0  0.15063072844E+03 -0.11163082380E+03 -0.75544426530E+03  0.78282859883E+03  0.83507604496E+02 0.  0.
         24    2    4    4    0    0 -0.23721534199E+02  0.32137503208E+03  0.95036444684E+02  0.34519857674E+03  0.79281202895E+02 0.  0.
         11    1    3    3    0    0 -0.74642589936E+02 -0.18382933816E+03  0.48191876750E+03  0.52116258526E+03  0.00000000000E+00 0.  1.
        -11    1    3    3    0    0 -0.52266604301E+02 -0.25914870131E+02  0.12256006862E+03  0.13573632100E+03  0.00000000000E+00 0. -1.
          4    1    6    6  502    0 -0.48272664944E+02  0.26432176770E+03  0.66249411857E+02  0.27674036864E+03  0.00000000000E+00 0. -1.
          3    1    5    5  503    0  0.14561300676E+03 -0.11115679462E+03 -0.60093379943E+03  0.62823595251E+03  0.00000000000E+00 0. -1.
         -4    1    5    5    0  503  0.50177216739E+01 -0.47402917657E+00 -0.15451046587E+03  0.15459264633E+03  0.00000000000E+00 0.  1.
         -3    1    6    6    0  502  0.24551130745E+02  0.57053264382E+02  0.28787032827E+02  0.68458208102E+02  0.00000000000E+00 0.  1.
<mgrwt>
<rscale>  0 0.17840496E+04</rscale>
<asrwt>0</asrwt>
<pdfrwt beam="1">  1        2 0.13299978E+00 0.17840496E+04</pdfrwt>
<pdfrwt beam="2">  1       -2 0.14160424E+00 0.17840496E+04</pdfrwt>
<totfact> 0.10217774E+01</totfact>
</mgrwt>
</event>
<event>
12    1  0.1472088E-007  0.1227907E+04  0.7818608E-02  0.9088775E-01
          2   -1    0    0  501    0  0.00000000000E+00  0.00000000000E+00  0.38842952088E+03  0.38842952088E+03  0.00000000000E+00 0. -1.
         -2   -1    0    0    0  501 -0.00000000000E+00 -0.00000000000E+00 -0.97041724649E+03  0.97041724649E+03  0.00000000000E+00 0.  1.
         23    2    1    2    0    0 -0.14116886107E+03  0.14158444021E+02 -0.48574472014E+03  0.51425187402E+03  0.91531130868E+02 0.  0.
        254    2    1    2    0    0  0.14116886107E+03 -0.14158444021E+02 -0.96243005478E+02  0.84459489335E+03  0.82701191582E+03 0.  0.
        -24    2    4    4    0    0  0.39924534063E+03  0.21356109761E+03 -0.15438098697E+03  0.48496113736E+03  0.79678298058E+02 0.  0.
         24    2    4    4    0    0 -0.25807647956E+03 -0.22771954163E+03  0.58137981494E+02  0.35963375600E+03  0.86583801148E+02 0.  0.
         13    1    3    3    0    0 -0.95415196882E+02  0.14262701468E+00 -0.17038400028E+03  0.19528130400E+03  0.00000000000E+00 0. -1.
        -13    1    3    3    0    0 -0.45753664190E+02  0.14015817006E+02 -0.31536071986E+03  0.31897057002E+03  0.00000000000E+00 0.  1.
          4    1    6    6  502    0 -0.23239721000E+03 -0.18623281568E+03  0.76537865830E+02  0.30748848720E+03  0.00000000000E+00 0. -1.
          3    1    5    5  503    0  0.22428796447E+03  0.91764726129E+02 -0.11475858148E+03  0.26813315347E+03  0.00000000000E+00 0. -1.
         -4    1    5    5    0  503  0.17495737616E+03  0.12179637148E+03 -0.39622405490E+02  0.21682798388E+03  0.00000000000E+00 0.  1.
         -3    1    6    6    0  502 -0.25679269554E+02 -0.41486725948E+02 -0.18399884336E+02  0.52145268801E+02  0.00000000000E+00 0.  1.
<mgrwt>
<rscale>  0 0.12279067E+04</rscale>
<asrwt>0</asrwt>
<pdfrwt beam="1">  1        2 0.59758388E-01 0.12279067E+04</pdfrwt>
<pdfrwt beam="2">  1       -2 0.14929496E+00 0.12279067E+04</pdfrwt>
<totfact> 0.24536606E+01</totfact>
</mgrwt>
</event>
<event>
12    1  0.1472088E-007  0.2839574E+04  0.7818608E-02  0.8291087E-01
         -2   -1    0    0    0  501 -0.00000000000E+00  0.00000000000E+00  0.10109161395E+04  0.10109161395E+04  0.00000000000E+00 0.  1.
          2   -1    0    0  501    0  0.00000000000E+00 -0.00000000000E+00 -0.19940276484E+04  0.19940276484E+04  0.00000000000E+00 0. -1.
         23    2    1    2    0    0 -0.64117754564E+03  0.23862182538E+03  0.69763964083E+03  0.98137425050E+03  0.91352780518E+02 0.  0.
        254    2    1    2    0    0  0.64117754564E+03 -0.23862182538E+03 -0.16807511498E+04  0.20235695374E+04  0.89546648428E+03 0.  0.
        -24    2    4    4    0    0  0.37465353806E+03  0.30844229101E+03 -0.55671565607E+03  0.74294083458E+03  0.80788869983E+02 0.  0.
         24    2    4    4    0    0  0.26652400758E+03 -0.54706411639E+03 -0.11240354937E+04  0.12806287028E+04  0.78992969309E+02 0.  0.
         13    1    3    3    0    0 -0.45999125369E+02  0.10315781581E+02  0.85249784023E+02  0.97415915334E+02  0.00000000000E+00 0. -1.
        -13    1    3    3    0    0 -0.59517842027E+03  0.22830604380E+03  0.61238985680E+03  0.88395833517E+03  0.00000000000E+00 0.  1.
          4    1    6    6  502    0  0.12929384335E+03 -0.18131323796E+03 -0.42754780541E+03  0.48206691870E+03  0.00000000000E+00 0. -1.
          3    1    5    5  503    0 -0.42896594124E+01  0.34149099814E+01 -0.54451714455E+01  0.77273980179E+01  0.00000000000E+00 0. -1.
         -4    1    5    5    0  503  0.37894319748E+03  0.30502738102E+03 -0.55127048462E+03  0.73521343656E+03  0.00000000000E+00 0.  1.
         -3    1    6    6    0  502  0.13723016423E+03 -0.36575087843E+03 -0.69648768829E+03  0.79856178408E+03  0.00000000000E+00 0.  1.
<mgrwt>
<rscale>  0 0.28395737E+04</rscale>
<asrwt>0</asrwt>
<pdfrwt beam="1">  1        2 0.30677348E+00 0.28395737E+04</pdfrwt>
<pdfrwt beam="2">  1       -2 0.15552556E+00 0.28395737E+04</pdfrwt>
<totfact> 0.15886420E+00</totfact>
</mgrwt>
</event>
<event>
12    1  0.1472088E-007  0.1113657E+04  0.7818608E-02  0.9191982E-01
         -1   -1    0    0    0  501 -0.00000000000E+00  0.00000000000E+00  0.17485187452E+03  0.17485187452E+03  0.00000000000E+00 0.  1.
          1   -1    0    0  501    0  0.00000000000E+00 -0.00000000000E+00 -0.17732608243E+04  0.17732608243E+04  0.00000000000E+00 0. -1.
         23    2    1    2    0    0 -0.12949514418E+03 -0.70142071769E+02 -0.21499955174E+03  0.27654875895E+03  0.92550020172E+02 0.  0.
        254    2    1    2    0    0  0.12949514418E+03  0.70142071769E+02 -0.13834093980E+04  0.16715639399E+04  0.92661509801E+03 0.  0.
        -24    2    4    4    0    0  0.41769173364E+03  0.29937325064E+03 -0.54853380230E+03  0.75523913692E+03  0.73526145829E+02 0.  0.
         24    2    4    4    0    0 -0.28819658946E+03 -0.22923117888E+03 -0.83487559574E+03  0.91632480294E+03  0.83843166501E+02 0.  0.
         13    1    3    3    0    0 -0.11868889453E+03 -0.18933692664E+02 -0.13290403158E+03  0.17918989931E+03  0.00000000000E+00 0.  1.
        -13    1    3    3    0    0 -0.10806249646E+02 -0.51208379104E+02 -0.82095520158E+02  0.97358859648E+02  0.00000000000E+00 0. -1.
          2    1    6    6  502    0 -0.17479940807E+03 -0.88710904844E+02 -0.46905297960E+03  0.50836517915E+03  0.00000000000E+00 0. -1.
          3    1    5    5  503    0  0.33166991697E+03  0.20592342431E+03 -0.43942403604E+03  0.58779492508E+03  0.00000000000E+00 0. -1.
         -2    1    5    5    0  503  0.86021816669E+02  0.93449826336E+02 -0.10910976625E+03  0.16744421184E+03  0.00000000000E+00 0.  1.
         -1    1    6    6    0  502 -0.11339718139E+03 -0.14052027403E+03 -0.36582261614E+03  0.40795962379E+03  0.00000000000E+00 0.  1.
<mgrwt>
<rscale>  0 0.11136570E+04</rscale>
<asrwt>0</asrwt>
<pdfrwt beam="1">  1        1 0.27280934E+00 0.11136570E+04</pdfrwt>
<pdfrwt beam="2">  1       -1 0.26900290E-01 0.11136570E+04</pdfrwt>
<totfact> 0.52263383E+01</totfact>
</mgrwt>
</event>
<event>
12    1  0.1472088E-007  0.1340565E+04  0.7818608E-02  0.8998001E-01
         -1   -1    0    0    0  501 -0.00000000000E+00  0.00000000000E+00  0.57213796231E+03  0.57213796231E+03  0.00000000000E+00 0.  1.
          1   -1    0    0  501    0  0.00000000000E+00 -0.00000000000E+00 -0.78526229053E+03  0.78526229053E+03  0.00000000000E+00 0. -1.
         23    2    1    2    0    0 -0.16758891658E+03  0.18314949320E+03  0.19409132422E+03  0.32811142814E+03  0.91410531760E+02 0.  0.
        254    2    1    2    0    0  0.16758891658E+03 -0.18314949320E+03 -0.40721565244E+03  0.10292888247E+04  0.91212998813E+03 0.  0.
        -24    2    4    4    0    0 -0.46189878845E+01 -0.53181679117E+03 -0.30748970450E+03  0.61954366597E+03  0.80212226268E+02 0.  0.
         24    2    4    4    0    0  0.17220790446E+03  0.34866729797E+03 -0.99725947938E+02  0.40974515873E+03  0.81984043427E+02 0.  0.
         13    1    3    3    0    0 -0.17464583349E+03  0.18751644673E+03  0.18794005590E+03  0.31778144937E+03  0.00000000000E+00 0.  1.
        -13    1    3    3    0    0  0.70569169153E+01 -0.43669535258E+01  0.61512683237E+01  0.10329978772E+02  0.00000000000E+00 0. -1.
          4    1    6    6  502    0  0.28033313796E+01  0.36215019716E+02 -0.30971264896E+02  0.47734741741E+02  0.00000000000E+00 0. -1.
          1    1    5    5  503    0  0.36406877034E+01 -0.27796424966E+01  0.35449348029E+01  0.57920274619E+01  0.00000000000E+00 0. -1.
         -2    1    5    5    0  503 -0.82596755879E+01 -0.52903714868E+03 -0.31103463931E+03  0.61375163851E+03  0.00000000000E+00 0.  1.
         -3    1    6    6    0  502  0.16940457308E+03  0.31245227826E+03 -0.68754683043E+02  0.36201041699E+03  0.00000000000E+00 0.  1.
<mgrwt>
<rscale>  0 0.13405646E+04</rscale>
<asrwt>0</asrwt>
<pdfrwt beam="1">  1        1 0.12080958E+00 0.13405646E+04</pdfrwt>
<pdfrwt beam="2">  1       -1 0.88021224E-01 0.13405646E+04</pdfrwt>
<totfact> 0.28316472E+01</totfact>
</mgrwt>
</event>
<event>
12    1  0.1472088E-007  0.2783311E+04  0.7818608E-02  0.8308468E-01
          1   -1    0    0  501    0  0.00000000000E+00  0.00000000000E+00  0.26164849008E+04  0.26164849008E+04  0.00000000000E+00 0. -1.
         -1   -1    0    0    0  501 -0.00000000000E+00 -0.00000000000E+00 -0.74019338810E+03  0.74019338810E+03  0.00000000000E+00 0.  1.
         23    2    1    2    0    0  0.11123408463E+03  0.23767291849E+03  0.23081461247E+04  0.23247766457E+04  0.90479177014E+02 0.  0.
        254    2    1    2    0    0 -0.11123408463E+03 -0.23767291849E+03 -0.43185461197E+03  0.10319016433E+04  0.89970059339E+03 0.  0.
        -24    2    4    4    0    0 -0.53487794296E+02  0.23476020713E+03 -0.48395394850E+03  0.54614146143E+03  0.78011362192E+02 0.  0.
         24    2    4    4    0    0 -0.57746290332E+02 -0.47243312562E+03  0.52099336529E+02  0.48576018184E+03  0.81981224463E+02 0.  0.
         11    1    3    3    0    0  0.22873641829E+02  0.27165847510E+02  0.13220672664E+03  0.13689340864E+03  0.00000000000E+00 0.  1.
        -11    1    3    3    0    0  0.88360442799E+02  0.21050707098E+03  0.21759393981E+04  0.21878832370E+04  0.00000000000E+00 0. -1.
          2    1    6    6  502    0 -0.20094405749E+02 -0.37278139528E+03  0.63278897015E+02  0.37864755726E+03  0.00000000000E+00 0. -1.
          1    1    5    5  503    0 -0.56414354431E+02  0.20940891241E+03 -0.36575703817E+03  0.42522098132E+03  0.00000000000E+00 0. -1.
         -2    1    5    5    0  503  0.29265601357E+01  0.25351294718E+02 -0.11819691032E+03  0.12092048010E+03  0.00000000000E+00 0.  1.
         -1    1    6    6    0  502 -0.37651884583E+02 -0.99651730340E+02 -0.11179560486E+02  0.10711262458E+03  0.00000000000E+00 0.  1.
<mgrwt>
<rscale>  0 0.27833109E+04</rscale>
<asrwt>0</asrwt>
<pdfrwt beam="1">  1        1 0.40253613E+00 0.27833109E+04</pdfrwt>
<pdfrwt beam="2">  1       -1 0.11387591E+00 0.27833109E+04</pdfrwt>
<totfact> 0.68422176E-01</totfact>
</mgrwt>
</event>
<event>
12    1  0.1472088E-007  0.1569802E+04  0.7818608E-02  0.8839318E-01
          2   -1    0    0  501    0  0.00000000000E+00  0.00000000000E+00  0.13674128242E+04  0.13674128242E+04  0.00000000000E+00 0.  1.
         -2   -1    0    0    0  501 -0.00000000000E+00 -0.00000000000E+00 -0.45053640078E+03  0.45053640078E+03  0.00000000000E+00 0. -1.
         23    2    1    2    0    0  0.36211999217E+03  0.29038049832E+03  0.31985732793E+02  0.47419387645E+03  0.91569770291E+02 0.  0.
        254    2    1    2    0    0 -0.36211999217E+03 -0.29038049832E+03  0.88489069062E+03  0.13437553485E+04  0.89844041526E+03 0.  0.
        -24    2    4    4    0    0 -0.21036166130E+03  0.26905784366E+03  0.10108307655E+03  0.36554460313E+03  0.82224793929E+02 0.  0.
         24    2    4    4    0    0 -0.15175833087E+03 -0.55943834198E+03  0.78380761407E+03  0.97821074537E+03  0.80870495448E+02 0.  0.
         11    1    3    3    0    0  0.22548275305E+03  0.14136454505E+03  0.51527776300E+02  0.27107474661E+03  0.00000000000E+00 0.  1.
        -11    1    3    3    0    0  0.13663723912E+03  0.14901595327E+03 -0.19542043507E+02  0.20311912984E+03  0.00000000000E+00 0. -1.
          2    1    6    6  502    0 -0.10774600697E+03 -0.28161758307E+03  0.45016881555E+03  0.54182066000E+03  0.00000000000E+00 0. -1.
          3    1    5    5  503    0 -0.86499257273E+02  0.13579431566E+03  0.80590714661E+01  0.16120535446E+03  0.00000000000E+00 0. -1.
         -4    1    5    5    0  503 -0.12386240402E+03  0.13326352800E+03  0.93024005084E+02  0.20433924867E+03  0.00000000000E+00 0.  1.
         -1    1    6    6    0  502 -0.44012323900E+02 -0.27782075891E+03  0.33363879852E+03  0.43639008537E+03  0.00000000000E+00 0.  1.
<mgrwt>
<rscale>  0 0.15698016E+04</rscale>
<asrwt>0</asrwt>
<pdfrwt beam="1">  1        2 0.21037120E+00 0.15698016E+04</pdfrwt>
<pdfrwt beam="2">  1       -2 0.69313293E-01 0.15698016E+04</pdfrwt>
<totfact> 0.27580537E+01</totfact>
</mgrwt>
</event>
<event>
12    1  0.1472088E-007  0.2441323E+04  0.7818608E-02  0.8424193E-01
         -2   -1    0    0    0  501 -0.00000000000E+00  0.00000000000E+00  0.88374474710E+03  0.88374474710E+03  0.00000000000E+00 0.  1.
          2   -1    0    0  501    0  0.00000000000E+00 -0.00000000000E+00 -0.16860237607E+04  0.16860237607E+04  0.00000000000E+00 0. -1.
         23    2    1    2    0    0  0.39250361540E+03 -0.65359632880E+03 -0.11069654625E+04  0.13482759954E+04  0.10596402948E+03 0.  0.
        254    2    1    2    0    0 -0.39250361540E+03  0.65359632880E+03  0.30468644892E+03  0.12214925124E+04  0.90441300105E+03 0.  0.
        -24    2    4    4    0    0  0.63948692975E+02 -0.92214210142E+02 -0.17361126472E+03  0.22185766673E+03  0.80542269429E+02 0.  0.
         24    2    4    4    0    0 -0.45645230837E+03  0.74581053895E+03  0.47829771364E+03  0.99963484562E+03  0.76935374730E+02 0.  0.
         13    1    3    3    0    0  0.17523981027E+03 -0.26679446583E+03 -0.37603833135E+03  0.49324750861E+03  0.00000000000E+00 0. -1.
        -13    1    3    3    0    0  0.21726380512E+03 -0.38680186297E+03 -0.73092713117E+03  0.85502848683E+03  0.00000000000E+00 0.  1.
          4    1    6    6  502    0 -0.30454843574E+03  0.56127125604E+03  0.33869138241E+03  0.72283263975E+03  0.00000000000E+00 0. -1.
          3    1    5    5  503    0  0.66548089312E+02 -0.10508439883E+03 -0.16261243005E+03  0.20472953250E+03  0.00000000000E+00 0. -1.
         -4    1    5    5    0  503 -0.25993963367E+01  0.12870188692E+02 -0.10998834670E+02  0.17128134236E+02  0.00000000000E+00 0.  1.
         -3    1    6    6    0  502 -0.15190387263E+03  0.18453928291E+03  0.13960633123E+03  0.27680220587E+03  0.00000000000E+00 0.  1.
<mgrwt>
<rscale>  0 0.24413231E+04</rscale>
<asrwt>0</asrwt>
<pdfrwt beam="1">  1        2 0.25938827E+00 0.24413231E+04</pdfrwt>
<pdfrwt beam="2">  1       -2 0.13596073E+00 0.24413231E+04</pdfrwt>
<totfact> 0.34670332E+00</totfact>
</mgrwt>
</event>
<event>
12    1  0.1472088E-007  0.1760720E+04  0.7818608E-02  0.8727472E-01
         -2   -1    0    0    0  501 -0.00000000000E+00  0.00000000000E+00  0.61366547460E+03  0.61366547460E+03  0.00000000000E+00 0. -1.
          2   -1    0    0  501    0  0.00000000000E+00 -0.00000000000E+00 -0.12629581952E+04  0.12629581952E+04  0.00000000000E+00 0.  1.
         23    2    1    2    0    0  0.38917112066E+03  0.43625575049E+01  0.30966686833E+03  0.50563899168E+03  0.91126436923E+02 0.  0.
        254    2    1    2    0    0 -0.38917112066E+03 -0.43625575049E+01 -0.95895958890E+03  0.13709846781E+04  0.89917868154E+03 0.  0.
        -24    2    4    4    0    0  0.37310344167E+02 -0.25181164857E+03  0.25139812479E+02  0.26772124827E+03  0.79003091495E+02 0.  0.
         24    2    4    4    0    0 -0.42648146483E+03  0.24744909106E+03 -0.98409940138E+03  0.11032634298E+04  0.74973803833E+02 0.  0.
         13    1    3    3    0    0  0.68741433569E+02  0.30567053324E+02  0.35839368236E+02  0.83331805174E+02  0.00000000000E+00 0.  1.
        -13    1    3    3    0    0  0.32042968709E+03 -0.26204495819E+02  0.27382750009E+03  0.42230718651E+03  0.00000000000E+00 0. -1.
          4    1    6    6  502    0 -0.21143843616E+03  0.13398113723E+03 -0.41900283506E+03  0.48807840887E+03  0.00000000000E+00 0. -1.
          3    1    5    5  503    0  0.58413653957E+02 -0.22013144236E+03  0.28412385428E+02  0.22951529476E+03  0.00000000000E+00 0. -1.
         -4    1    5    5    0  503 -0.21103309790E+02 -0.31680206207E+02 -0.32725729489E+01  0.38205953504E+02  0.00000000000E+00 0.  1.
         -3    1    6    6    0  502 -0.21504302867E+03  0.11346795384E+03 -0.56509656632E+03  0.61518502094E+03  0.00000000000E+00 0.  1.
<mgrwt>
<rscale>  0 0.17607201E+04</rscale>
<asrwt>0</asrwt>
<pdfrwt beam="1">  1        2 0.19430126E+00 0.17607201E+04</pdfrwt>
<pdfrwt beam="2">  1       -2 0.94410073E-01 0.17607201E+04</pdfrwt>
<totfact> 0.15566654E+01</totfact>
</mgrwt>
</event>
<event>
12    1  0.1472088E-007  0.1631500E+04  0.7818608E-02  0.8801427E-01
          2   -1    0    0  501    0  0.00000000000E+00  0.00000000000E+00  0.76749044237E+03  0.76749044237E+03  0.00000000000E+00 0. -1.
         -2   -1    0    0    0  501 -0.00000000000E+00 -0.00000000000E+00 -0.86704392266E+03  0.86704392266E+03  0.00000000000E+00 0.  1.
         23    2    1    2    0    0  0.21578377077E+02 -0.30243785076E+03  0.43802541764E+03  0.54067040302E+03  0.92325176831E+02 0.  0.
        254    2    1    2    0    0 -0.21578377077E+02  0.30243785076E+03 -0.53757889793E+03  0.10938639620E+04  0.90311295858E+03 0.  0.
        -24    2    4    4    0    0 -0.14609815172E+03 -0.26565710300E+03 -0.23129138708E+02  0.31337303403E+03  0.75824370024E+02 0.  0.
         24    2    4    4    0    0  0.12451977464E+03  0.56809495376E+03 -0.51444975923E+03  0.78049092798E+03  0.79186382252E+02 0.  0.
         13    1    3    3    0    0  0.42931536699E+02 -0.25278200834E+03  0.31405492869E+03  0.40542861125E+03  0.00000000000E+00 0. -1.
        -13    1    3    3    0    0 -0.21353159622E+02 -0.49655842421E+02  0.12397048895E+03  0.13524179177E+03  0.00000000000E+00 0.  1.
          2    1    6    6  502    0  0.10564267013E+03  0.55231882238E+03 -0.49398989799E+03  0.74849347000E+03  0.00000000000E+00 0. -1.
          1    1    5    5  503    0 -0.89296574306E+02 -0.21878652025E+03 -0.41993471734E+00  0.23630826472E+03  0.00000000000E+00 0. -1.
         -2    1    5    5    0  503 -0.56801577411E+02 -0.46870582743E+02 -0.22709203990E+02  0.77064769310E+02  0.00000000000E+00 0.  1.
         -1    1    6    6    0  502  0.18877104507E+02  0.15776131371E+02 -0.20459861239E+02  0.31997457985E+02  0.00000000000E+00 0.  1.
<mgrwt>
<rscale>  0 0.16314998E+04</rscale>
<asrwt>0</asrwt>
<pdfrwt beam="1">  1        2 0.11807545E+00 0.16314998E+04</pdfrwt>
<pdfrwt beam="2">  1       -2 0.13339137E+00 0.16314998E+04</pdfrwt>
<totfact> 0.14156103E+01</totfact>
</mgrwt>
</event>
<event>
12    1  0.1472088E-007  0.1517473E+04  0.7818608E-02  0.8872916E-01
         -1   -1    0    0    0  501 -0.00000000000E+00  0.00000000000E+00  0.11108846156E+04  0.11108846156E+04  0.00000000000E+00 0.  1.
          1   -1    0    0  501    0  0.00000000000E+00 -0.00000000000E+00 -0.51821881239E+03  0.51821881239E+03  0.00000000000E+00 0. -1.
         23    2    1    2    0    0  0.45876863201E+02 -0.16891325936E+03  0.67649313477E+03  0.70595897588E+03  0.10049247968E+03 0.  0.
        254    2    1    2    0    0 -0.45876863201E+02  0.16891325936E+03 -0.83827331574E+02  0.92314445209E+03  0.90251442213E+03 0.  0.
        -24    2    4    4    0    0  0.10599705171E+03  0.51456338855E+03 -0.77152171626E+02  0.53707496168E+03  0.80536954652E+02 0.  0.
         24    2    4    4    0    0 -0.15187391491E+03 -0.34565012919E+03 -0.66751599481E+01  0.38606949042E+03  0.80407685151E+02 0.  0.
         11    1    3    3    0    0  0.49869708924E+02 -0.61612888271E+02  0.42771441830E+03  0.43499742470E+03  0.00000000000E+00 0. -1.
        -11    1    3    3    0    0 -0.39928457230E+01 -0.10730037109E+03  0.24877871647E+03  0.27096155118E+03  0.00000000000E+00 0.  1.
          2    1    6    6  502    0 -0.10106326243E+01 -0.47116583408E+02  0.18516472836E+02  0.50634509741E+02  0.00000000000E+00 0. -1.
          1    1    5    5  503    0 -0.12701462307E+02  0.62993899933E+02 -0.31616348713E+01  0.64339369818E+02  0.00000000000E+00 0. -1.
         -2    1    5    5    0  503  0.11869851402E+03  0.45156948862E+03 -0.73990536755E+02  0.47273559186E+03  0.00000000000E+00 0.  1.
         -1    1    6    6    0  502 -0.15086328228E+03 -0.29853354578E+03 -0.25191632784E+02  0.33543498068E+03  0.00000000000E+00 0.  1.
<mgrwt>
<rscale>  0 0.15174733E+04</rscale>
<asrwt>0</asrwt>
<pdfrwt beam="1">  1        1 0.79725971E-01 0.15174733E+04</pdfrwt>
<pdfrwt beam="2">  1       -1 0.17090533E+00 0.15174733E+04</pdfrwt>
<totfact> 0.98708260E+00</totfact>
</mgrwt>
</event>
<event>
12    1  0.1472088E-007  0.2305357E+04  0.7818608E-02  0.8475812E-01
          1   -1    0    0  501    0  0.00000000000E+00  0.00000000000E+00  0.16777745961E+04  0.16777745961E+04  0.00000000000E+00 0.  1.
         -1   -1    0    0    0  501 -0.00000000000E+00 -0.00000000000E+00 -0.79192297772E+03  0.79192297772E+03  0.00000000000E+00 0. -1.
         23    2    1    2    0    0  0.87050346562E+03  0.39173621558E+03  0.43144867342E+03  0.10514377819E+04  0.90221423230E+02 0.  0.
        254    2    1    2    0    0 -0.87050346562E+03 -0.39173621558E+03  0.45440294491E+03  0.14182597918E+04  0.94538101027E+03 0.  0.
        -24    2    4    4    0    0 -0.12549524326E+03 -0.23148583228E+03 -0.25520884232E+03  0.37427709707E+03  0.74946951694E+02 0.  0.
         24    2    4    4    0    0 -0.74500822236E+03 -0.16025038331E+03  0.70961178723E+03  0.10439826948E+04  0.75056922999E+02 0.  0.
         11    1    3    3    0    0  0.77810212338E+03  0.37104201425E+03  0.36709554196E+03  0.93694942642E+03  0.00000000000E+00 0.  1.
        -11    1    3    3    0    0  0.92401342237E+02  0.20694201330E+02  0.64353131469E+02  0.11448835550E+03  0.00000000000E+00 0. -1.
          2    1    6    6  502    0 -0.43247837564E+01 -0.79497069958E+01  0.46923796193E+01  0.10194117046E+02  0.00000000000E+00 0. -1.
          1    1    5    5  503    0 -0.39233093409E+02 -0.14965745247E+03 -0.13795753831E+03  0.20728934144E+03  0.00000000000E+00 0. -1.
         -2    1    5    5    0  503 -0.86262149853E+02 -0.81828379808E+02 -0.11725130401E+03  0.16698775563E+03  0.00000000000E+00 0.  1.
         -1    1    6    6    0  502 -0.74068343860E+03 -0.15230067631E+03  0.70491940761E+03  0.10337885777E+04  0.00000000000E+00 0.  1.
<mgrwt>
<rscale>  0 0.23053575E+04</rscale>
<asrwt>0</asrwt>
<pdfrwt beam="1">  1        1 0.25811917E+00 0.23053575E+04</pdfrwt>
<pdfrwt beam="2">  1       -1 0.12183430E+00 0.23053575E+04</pdfrwt>
<totfact> 0.26592470E+00</totfact>
</mgrwt>
</event>
<event>
12    1  0.1472088E-007  0.1176350E+04  0.7818608E-02  0.9133813E-01
          1   -1    0    0  501    0  0.00000000000E+00  0.00000000000E+00  0.20211756915E+04  0.20211756915E+04  0.00000000000E+00 0. -1.
         -1   -1    0    0    0  501 -0.00000000000E+00 -0.00000000000E+00 -0.17116253381E+03  0.17116253381E+03  0.00000000000E+00 0.  1.
         23    2    1    2    0    0 -0.10358355792E+03 -0.95542757072E+02  0.38090675525E+03  0.41624925102E+03  0.91189423100E+02 0.  0.
        254    2    1    2    0    0  0.10358355792E+03  0.95542757072E+02  0.14691064025E+04  0.17760889743E+04  0.98810953389E+03 0.  0.
        -24    2    4    4    0    0  0.51207302938E+03  0.16452921116E+03  0.10447591978E+04  0.11780426900E+04  0.83511372505E+02 0.  0.
         24    2    4    4    0    0 -0.40848947147E+03 -0.68986454087E+02  0.42434720466E+03  0.59804628429E+03  0.77240073172E+02 0.  0.
         11    1    3    3    0    0 -0.10903355505E+03 -0.10189519441E+03  0.37946557595E+03  0.40775614048E+03  0.00000000000E+00 0. -1.
        -11    1    3    3    0    0  0.54499971387E+01  0.63524373345E+01  0.14411792989E+01  0.84931105416E+01  0.00000000000E+00 0.  1.
          4    1    6    6  502    0 -0.18122862125E+03 -0.65128842328E+01  0.14247448219E+03  0.23061918588E+03  0.00000000000E+00 0. -1.
          1    1    5    5  503    0  0.42411659044E+03  0.10343982771E+03  0.81507195180E+03  0.92461720017E+03  0.00000000000E+00 0. -1.
         -2    1    5    5    0  503  0.87956438947E+02  0.61089383448E+02  0.22968724599E+03  0.25342548983E+03  0.00000000000E+00 0.  1.
         -3    1    6    6    0  502 -0.22726085022E+03 -0.62473569854E+02  0.28187272248E+03  0.36742709841E+03  0.00000000000E+00 0.  1.
<mgrwt>
<rscale>  0 0.11763495E+04</rscale>
<asrwt>0</asrwt>
<pdfrwt beam="1">  1        1 0.31095009E+00 0.11763495E+04</pdfrwt>
<pdfrwt beam="2">  1       -1 0.26332699E-01 0.11763495E+04</pdfrwt>
<totfact> 0.36688703E+01</totfact>
</mgrwt>
</event>
<event>
12    1  0.1472088E-007  0.1619581E+04  0.7818608E-02  0.8808608E-01
         -1   -1    0    0    0  501 -0.00000000000E+00  0.00000000000E+00  0.28719767371E+03  0.28719767371E+03  0.00000000000E+00 0.  1.
          1   -1    0    0  501    0  0.00000000000E+00 -0.00000000000E+00 -0.22833082674E+04  0.22833082674E+04  0.00000000000E+00 0. -1.
         23    2    1    2    0    0  0.29082586580E+03  0.43829981603E+03 -0.91517383530E+03  0.10583169656E+04  0.76192111159E+02 0.  0.
        254    2    1    2    0    0 -0.29082586580E+03 -0.43829981603E+03 -0.10809367584E+04  0.15121889755E+04  0.91739021642E+03 0.  0.
        -24    2    4    4    0    0  0.38785621280E+02 -0.26851745002E+03 -0.10969410795E+04  0.11328729126E+04  0.80717773088E+02 0.  0.
         24    2    4    4    0    0 -0.32961148708E+03 -0.16978236602E+03  0.16004321111E+02  0.37931606292E+03  0.78452234314E+02 0.  0.
         11    1    3    3    0    0  0.44033515587E+02  0.11177055545E+03 -0.17048720047E+03  0.20856052620E+03  0.00000000000E+00 0.  1.
        -11    1    3    3    0    0  0.24679235022E+03  0.32652926058E+03 -0.74468663483E+03  0.84975643936E+03  0.00000000000E+00 0. -1.
          2    1    6    6  502    0 -0.12671337369E+03 -0.50852937324E+02  0.41622749691E+02  0.14274016112E+03  0.00000000000E+00 0. -1.
          3    1    5    5  503    0  0.30093409596E+02 -0.17313260694E+03 -0.85068903074E+03  0.86864972222E+03  0.00000000000E+00 0. -1.
         -4    1    5    5    0  503  0.86922116841E+01 -0.95384843076E+02 -0.24625204875E+03  0.26422319040E+03  0.00000000000E+00 0.  1.
         -1    1    6    6    0  502 -0.20289811339E+03 -0.11892942869E+03 -0.25618428580E+02  0.23657590180E+03  0.00000000000E+00 0.  1.
<mgrwt>
<rscale>  0 0.16195812E+04</rscale>
<asrwt>0</asrwt>
<pdfrwt beam="1">  1        1 0.35127819E+00 0.16195812E+04</pdfrwt>
<pdfrwt beam="2">  1       -1 0.44184258E-01 0.16195812E+04</pdfrwt>
<totfact> 0.92868586E+00</totfact>
</mgrwt>
</event>
<event>
12    1  0.1472088E-007  0.1392317E+04  0.7818608E-02  0.8959399E-01
          1   -1    0    0  501    0  0.00000000000E+00  0.00000000000E+00  0.14386728821E+04  0.14386728821E+04  0.00000000000E+00 0. -1.
         -1   -1    0    0    0  501 -0.00000000000E+00 -0.00000000000E+00 -0.33686380905E+03  0.33686380905E+03  0.00000000000E+00 0.  1.
         23    2    1    2    0    0 -0.40250657315E+03  0.98424499467E+01  0.30547643526E+03  0.51336106080E+03  0.90085020951E+02 0.  0.
        254    2    1    2    0    0  0.40250657315E+03 -0.98424499467E+01  0.79633263777E+03  0.12621756303E+04  0.89265516106E+03 0.  0.
        -24    2    4    4    0    0 -0.27729905449E+03  0.28061993742E+02  0.28926410624E+03  0.40950863127E+03  0.79632624039E+02 0.  0.
         24    2    4    4    0    0  0.67980562764E+03 -0.37904443689E+02  0.50706853153E+03  0.85266699905E+03  0.79687372785E+02 0.  0.
         13    1    3    3    0    0 -0.36239010052E+03  0.36372183734E+02  0.26365770938E+03  0.44962752187E+03  0.00000000000E+00 0. -1.
        -13    1    3    3    0    0 -0.40116472629E+02 -0.26529733788E+02  0.41818725876E+02  0.63733538933E+02  0.00000000000E+00 0.  1.
          2    1    6    6  502    0  0.42022068481E+03  0.13169796067E+02  0.29496629356E+03  0.51357957690E+03  0.00000000000E+00 0. -1.
          1    1    5    5  503    0 -0.70854965392E+02 -0.27382888928E+02  0.70191232920E+02  0.10342658220E+03  0.00000000000E+00 0. -1.
         -2    1    5    5    0  503 -0.20644408910E+03  0.55444882670E+02  0.21907287332E+03  0.30608204907E+03  0.00000000000E+00 0.  1.
         -1    1    6    6    0  502  0.25958494283E+03 -0.51074239756E+02  0.21210223797E+03  0.33908742215E+03  0.00000000000E+00 0.  1.
<mgrwt>
<rscale>  0 0.13923172E+04</rscale>
<asrwt>0</asrwt>
<pdfrwt beam="1">  1        1 0.22133429E+00 0.13923172E+04</pdfrwt>
<pdfrwt beam="2">  1       -1 0.51825202E-01 0.13923172E+04</pdfrwt>
<totfact> 0.26388782E+01</totfact>
</mgrwt>
</event>
<event>
12    1  0.1472088E-007  0.1230484E+04  0.7818608E-02  0.9086585E-01
          2   -1    0    0  501    0  0.00000000000E+00  0.00000000000E+00  0.11741935707E+04  0.11741935707E+04  0.00000000000E+00 0.  1.
         -2   -1    0    0    0  501 -0.00000000000E+00 -0.00000000000E+00 -0.32236817089E+03  0.32236817089E+03  0.00000000000E+00 0. -1.
         23    2    1    2    0    0  0.11414309458E+03 -0.20887351070E+02 -0.10254014255E+03  0.17964936106E+03  0.91074061186E+02 0.  0.
        254    2    1    2    0    0 -0.11414309458E+03  0.20887351070E+02  0.95436554240E+03  0.13169123806E+04  0.89998872334E+03 0.  0.
        -24    2    4    4    0    0 -0.39569686129E+03  0.13869268301E+03  0.90080316837E+03  0.99682960076E+03  0.80070209500E+02 0.  0.
         24    2    4    4    0    0  0.28155376671E+03 -0.11780533194E+03  0.53562374027E+02  0.32008277982E+03  0.80208716755E+02 0.  0.
         13    1    3    3    0    0  0.12974027087E+03 -0.21768629204E+02 -0.95212939641E+02  0.16239431942E+03  0.00000000000E+00 0. -1.
        -13    1    3    3    0    0 -0.15597176298E+02  0.88127813370E+00 -0.73272029061E+01  0.17255041641E+02  0.00000000000E+00 0.  1.
          2    1    6    6  502    0  0.11563046036E+03 -0.74435080322E+01  0.27722853892E+02  0.11914010997E+03  0.00000000000E+00 0. -1.
          1    1    5    5  503    0 -0.15102420829E+02  0.20179635986E+02  0.30400195943E+02  0.39490159999E+02  0.00000000000E+00 0. -1.
         -2    1    5    5    0  503 -0.38059444046E+03  0.11851304703E+03  0.87040297243E+03  0.95733944076E+03  0.00000000000E+00 0.  1.
         -1    1    6    6    0  502  0.16592330635E+03 -0.11036182391E+03  0.25839520135E+02  0.20094266985E+03  0.00000000000E+00 0.  1.
<mgrwt>
<rscale>  0 0.12304839E+04</rscale>
<asrwt>0</asrwt>
<pdfrwt beam="1">  1        2 0.18064516E+00 0.12304839E+04</pdfrwt>
<pdfrwt beam="2">  1       -2 0.49595104E-01 0.12304839E+04</pdfrwt>
<totfact> 0.74355405E+01</totfact>
</mgrwt>
</event>
<event>
12    1  0.1472088E-007  0.1391744E+04  0.7818608E-02  0.8959817E-01
          2   -1    0    0  501    0  0.00000000000E+00  0.00000000000E+00  0.36483466428E+03  0.36483466428E+03  0.00000000000E+00 0. -1.
         -2   -1    0    0    0  501 -0.00000000000E+00 -0.00000000000E+00 -0.13272796590E+04  0.13272796590E+04  0.00000000000E+00 0.  1.
         23    2    1    2    0    0  0.46939550160E+02 -0.70853082564E+02 -0.74765211062E+03  0.75815268596E+03  0.92673275777E+02 0.  0.
        254    2    1    2    0    0 -0.46939550160E+02  0.70853082564E+02 -0.21479288411E+03  0.93396163732E+03  0.90494468132E+03 0.  0.
        -24    2    4    4    0    0  0.15545130112E+03  0.44262170085E+03 -0.14511504490E+03  0.49756870563E+03  0.80231935529E+02 0.  0.
         24    2    4    4    0    0 -0.20239085128E+03 -0.37176861829E+03 -0.69677839213E+02  0.43639293170E+03  0.80061397276E+02 0.  0.
         13    1    3    3    0    0 -0.14848290443E+01 -0.22464351181E+02 -0.51862314226E+03  0.51911156362E+03  0.00000000000E+00 0. -1.
        -13    1    3    3    0    0  0.48424379205E+02 -0.48388731383E+02 -0.22902896836E+03  0.23904112235E+03  0.00000000000E+00 0.  1.
          2    1    6    6  502    0 -0.20786490334E+03 -0.34105681153E+03 -0.67962821126E+02  0.40514998678E+03  0.00000000000E+00 0. -1.
          1    1    5    5  503    0  0.88522325153E+02  0.15358803845E+03 -0.76392037649E+02  0.19303168398E+03  0.00000000000E+00 0. -1.
         -2    1    5    5    0  503  0.66928975963E+02  0.28903366241E+03 -0.68723007250E+02  0.30453702165E+03  0.00000000000E+00 0.  1.
         -1    1    6    6    0  502  0.54740520596E+01 -0.30711806754E+02 -0.17150180870E+01  0.31242944917E+02  0.00000000000E+00 0.  1.
<mgrwt>
<rscale>  0 0.13917437E+04</rscale>
<asrwt>0</asrwt>
<pdfrwt beam="1">  1        2 0.56128409E-01 0.13917437E+04</pdfrwt>
<pdfrwt beam="2">  1       -2 0.20419687E+00 0.13917437E+04</pdfrwt>
<totfact> 0.10715519E+01</totfact>
</mgrwt>
</event>
<event>
12    1  0.1472088E-007  0.1400067E+04  0.7818608E-02  0.8953770E-01
         -2   -1    0    0    0  501 -0.00000000000E+00  0.00000000000E+00  0.28268815856E+03  0.28268815856E+03  0.00000000000E+00 0.  1.
          2   -1    0    0  501    0  0.00000000000E+00 -0.00000000000E+00 -0.17335248656E+04  0.17335248656E+04  0.00000000000E+00 0. -1.
         23    2    1    2    0    0 -0.12748036681E+03 -0.23102471591E+03  0.15103265577E+02  0.28016644805E+03  0.92959489536E+02 0.  0.
        254    2    1    2    0    0  0.12748036681E+03  0.23102471591E+03 -0.14659399726E+04  0.17360465761E+04  0.89177017656E+03 0.  0.
        -24    2    4    4    0    0 -0.13079929196E+03 -0.28678273360E+03 -0.70862179910E+03  0.77961270382E+03  0.79361972840E+02 0.  0.
         24    2    4    4    0    0  0.25827965876E+03  0.51780744952E+03 -0.75731817352E+03  0.95643387229E+03  0.80012494050E+02 0.  0.
         11    1    3    3    0    0 -0.10224004302E+03 -0.10190485458E+03  0.31006776995E+02  0.14764499992E+03  0.00000000000E+00 0. -1.
        -11    1    3    3    0    0 -0.25240323788E+02 -0.12911986134E+03 -0.15903511418E+02  0.13252144812E+03  0.00000000000E+00 0.  1.
          4    1    6    6  502    0 -0.26878478860E+00 -0.21964857029E+01 -0.16961261248E+00  0.22193609765E+01  0.00000000000E+00 0. -1.
          1    1    5    5  503    0 -0.10594232011E+03 -0.14862346994E+03 -0.44427347522E+03  0.48030368704E+03  0.00000000000E+00 0. -1.
         -2    1    5    5    0  503 -0.24856971850E+02 -0.13815926366E+03 -0.26434832388E+03  0.29930901678E+03  0.00000000000E+00 0.  1.
         -3    1    6    6    0  502  0.25854844355E+03  0.52000393522E+03 -0.75714856091E+03  0.95421451131E+03  0.00000000000E+00 0.  1.
<mgrwt>
<rscale>  0 0.14000671E+04</rscale>
<asrwt>0</asrwt>
<pdfrwt beam="1">  1        2 0.26669613E+00 0.14000671E+04</pdfrwt>
<pdfrwt beam="2">  1       -2 0.43490486E-01 0.14000671E+04</pdfrwt>
<totfact> 0.45837445E+01</totfact>
</mgrwt>
</event>
<event>
12    1  0.1472088E-007  0.2182815E+04  0.7818608E-02  0.8525615E-01
          2   -1    0    0  501    0  0.00000000000E+00  0.00000000000E+00  0.12486415253E+04  0.12486415253E+04  0.00000000000E+00 0. -1.
         -2   -1    0    0    0  501 -0.00000000000E+00 -0.00000000000E+00 -0.95397344250E+03  0.95397344250E+03  0.00000000000E+00 0.  1.
         23    2    1    2    0    0 -0.32374410082E+03 -0.53213233381E+03  0.78701457419E+03  0.10076879240E+04  0.89821760257E+02 0.  0.
        254    2    1    2    0    0  0.32374410082E+03  0.53213233381E+03 -0.49234649142E+03  0.11949270438E+04  0.89301204298E+03 0.  0.
        -24    2    4    4    0    0 -0.14426137030E+03 -0.12781762185E+03  0.53863681152E+02  0.21560673154E+03  0.80226424091E+02 0.  0.
         24    2    4    4    0    0  0.46800547113E+03  0.65994995565E+03 -0.54621017258E+03  0.97932031227E+03  0.78483478656E+02 0.  0.
         11    1    3    3    0    0 -0.25548877661E+03 -0.36469178406E+03  0.60422554153E+03  0.75057519102E+03  0.00000000000E+00 0. -1.
        -11    1    3    3    0    0 -0.68255324211E+02 -0.16744054974E+03  0.18278903267E+03  0.25711273295E+03  0.00000000000E+00 0.  1.
          4    1    6    6  502    0  0.36427276753E+02  0.34778280439E+02 -0.15729342343E+02  0.52762557676E+02  0.00000000000E+00 0. -1.
          3    1    5    5  503    0 -0.10650239438E+02  0.10835832326E+02 -0.14599039348E+01  0.15263491795E+02  0.00000000000E+00 0. -1.
         -4    1    5    5    0  503 -0.13361113087E+03 -0.13865345417E+03  0.55323585087E+02  0.20034323975E+03  0.00000000000E+00 0.  1.
         -3    1    6    6    0  502  0.43157819438E+03  0.62517167521E+03 -0.53048083023E+03  0.92655775459E+03  0.00000000000E+00 0.  1.
<mgrwt>
<rscale>  0 0.21828155E+04</rscale>
<asrwt>0</asrwt>
<pdfrwt beam="1">  1        2 0.19209870E+00 0.21828155E+04</pdfrwt>
<pdfrwt beam="2">  1       -2 0.14676514E+00 0.21828155E+04</pdfrwt>
<totfact> 0.51489444E+00</totfact>
</mgrwt>
</event>
<event>
12    1  0.1472088E-007  0.1781029E+04  0.7818608E-02  0.8716453E-01
          1   -1    0    0  501    0  0.00000000000E+00  0.00000000000E+00  0.17743989312E+04  0.17743989312E+04  0.00000000000E+00 0. -1.
         -1   -1    0    0    0  501 -0.00000000000E+00 -0.00000000000E+00 -0.44692120158E+03  0.44692120158E+03  0.00000000000E+00 0.  1.
         23    2    1    2    0    0 -0.31013974942E+03  0.38681660258E+03 -0.76858396547E+02  0.50865232860E+03  0.83703226149E+02 0.  0.
        254    2    1    2    0    0  0.31013974942E+03 -0.38681660258E+03  0.14043361261E+04  0.17126678042E+04  0.84572885963E+03 0.  0.
        -24    2    4    4    0    0  0.36689577118E+02 -0.48011951101E+03  0.13111388821E+04  0.13990028830E+04  0.79139298166E+02 0.  0.
         24    2    4    4    0    0  0.27345017230E+03  0.93302908434E+02  0.93197244012E+02  0.31366492115E+03  0.78863977919E+02 0.  0.
         13    1    3    3    0    0 -0.13594450946E+02  0.41973569321E+02 -0.25470397289E+02  0.50944388858E+02  0.00000000000E+00 0. -1.
        -13    1    3    3    0    0 -0.29654529847E+03  0.34484303326E+03 -0.51387999259E+02  0.45770793974E+03  0.00000000000E+00 0.  1.
          4    1    6    6  502    0  0.24703481463E+03  0.56232903606E+02  0.71566998036E+02  0.26326825538E+03  0.00000000000E+00 0. -1.
          3    1    5    5  503    0  0.37616002322E+01 -0.27556158106E+03  0.84732566007E+03  0.89101577360E+03  0.00000000000E+00 0. -1.
         -4    1    5    5    0  503  0.32927976886E+02 -0.20455792996E+03  0.46381322206E+03  0.50798710941E+03  0.00000000000E+00 0.  1.
         -3    1    6    6    0  502  0.26415357676E+02  0.37070004829E+02  0.21630245976E+02  0.50396665764E+02  0.00000000000E+00 0.  1.
<mgrwt>
<rscale>  0 0.17810295E+04</rscale>
<asrwt>0</asrwt>
<pdfrwt beam="1">  1        1 0.27298445E+00 0.17810295E+04</pdfrwt>
<pdfrwt beam="2">  1       -1 0.68757109E-01 0.17810295E+04</pdfrwt>
<totfact> 0.85790019E+00</totfact>
</mgrwt>
</event>
<event>
12    1  0.1472088E-007  0.1561654E+04  0.7818608E-02  0.8844458E-01
         -1   -1    0    0    0  501 -0.00000000000E+00  0.00000000000E+00  0.20265472280E+04  0.20265472280E+04  0.00000000000E+00 0.  1.
          1   -1    0    0  501    0  0.00000000000E+00 -0.00000000000E+00 -0.30085190446E+03  0.30085190446E+03  0.00000000000E+00 0. -1.
         23    2    1    2    0    0  0.20776646594E+03 -0.11708223045E+03  0.10537904353E+04  0.10841399947E+04  0.89499126862E+02 0.  0.
        254    2    1    2    0    0 -0.20776646594E+03  0.11708223045E+03  0.67190488828E+03  0.12432591377E+04  0.10185096718E+04 0.  0.
        -24    2    4    4    0    0 -0.36024624704E+03 -0.31070557650E+03  0.61066462292E+03  0.77817291779E+03  0.79539263990E+02 0.  0.
         24    2    4    4    0    0  0.15247978110E+03  0.42778780695E+03  0.61240265358E+02  0.46508621993E+03  0.79387218421E+02 0.  0.
         13    1    3    3    0    0  0.73377499880E+02  0.43777447056E-01  0.38916958673E+03  0.39602680040E+03  0.00000000000E+00 0. -1.
        -13    1    3    3    0    0  0.13438896606E+03 -0.11712600790E+03  0.66462084853E+03  0.68811319434E+03  0.00000000000E+00 0.  1.
          2    1    6    6  502    0  0.32289479434E+02  0.75370732902E+02 -0.19048718975E+02  0.84179638600E+02  0.00000000000E+00 0. -1.
          3    1    5    5  503    0 -0.11022819949E+03 -0.12764112606E+03  0.26328805400E+03  0.31267093310E+03  0.00000000000E+00 0. -1.
         -4    1    5    5    0  503 -0.25001804755E+03 -0.18306445043E+03  0.34737656892E+03  0.46550198469E+03  0.00000000000E+00 0.  1.
         -1    1    6    6    0  502  0.12019030167E+03  0.35241707405E+03  0.80288984334E+02  0.38090658133E+03  0.00000000000E+00 0.  1.
<mgrwt>
<rscale>  0 0.15616537E+04</rscale>
<asrwt>0</asrwt>
<pdfrwt beam="1">  1        1 0.46284910E-01 0.15616537E+04</pdfrwt>
<pdfrwt beam="2">  1       -1 0.31177649E+00 0.15616537E+04</pdfrwt>
<totfact> 0.23343811E+00</totfact>
</mgrwt>
</event>
<event>
12    1  0.2090328E-007  0.2923738E+04  0.7818608E-02  0.8265850E-01
         -2   -1    0    0    0  501 -0.00000000000E+00  0.00000000000E+00  0.10841749580E+04  0.10841749580E+04  0.00000000000E+00 0.  1.
          2   -1    0    0  501    0  0.00000000000E+00 -0.00000000000E+00 -0.19711402437E+04  0.19711402437E+04  0.00000000000E+00 0. -1.
         23    2    1    2    0    0 -0.46484156061E+03  0.55651926848E+03 -0.15224676549E+04  0.16890285879E+04  0.95490513233E+02 0.  0.
        254    2    1    2    0    0  0.46484156061E+03 -0.55651926848E+03  0.63550236918E+03  0.13662866137E+04  0.96803123762E+03 0.  0.
        -24    2    4    4    0    0  0.36460899540E+03  0.12649510498E+03 -0.41489074623E+02  0.39614698961E+03  0.79185623375E+02 0.  0.
         24    2    4    4    0    0  0.10023256521E+03 -0.68301437346E+03  0.67699144381E+03  0.97013962414E+03  0.79361664839E+02 0.  0.
         13    1    3    3    0    0 -0.29778121136E+02  0.61993637914E+02 -0.98827754217E+02  0.12040295945E+03  0.00000000000E+00 0.  1.
        -13    1    3    3    0    0 -0.43506343948E+03  0.49452563056E+03 -0.14236399006E+04  0.15686256285E+04  0.00000000000E+00 0. -1.
          2    1    6    6  502    0  0.71259205254E+02 -0.55236915814E+03  0.50160482547E+03  0.74953116155E+03  0.00000000000E+00 0. -1.
          1    1    5    5  503    0  0.36492706795E+03  0.13084087374E+03 -0.45359878896E+02  0.39031861059E+03  0.00000000000E+00 0. -1.
         -2    1    5    5    0  503 -0.31807254449E+00 -0.43457687567E+01  0.38708042728E+01  0.58283790155E+01  0.00000000000E+00 0.  1.
         -1    1    6    6    0  502  0.28973359957E+02 -0.13064521533E+03  0.17538661834E+03  0.22060846259E+03  0.00000000000E+00 0.  1.
<mgrwt>
<rscale>  0 0.29237379E+04</rscale>
<asrwt>0</asrwt>
<pdfrwt beam="1">  1        2 0.30325234E+00 0.29237379E+04</pdfrwt>
<pdfrwt beam="2">  1       -2 0.16679615E+00 0.29237379E+04</pdfrwt>
<totfact> 0.13419881E+00</totfact>
</mgrwt>
</event>
<event>
12    1  0.1480523E-007  0.1664595E+04  0.7818608E-02  0.8781818E-01
         -1   -1    0    0    0  501 -0.00000000000E+00  0.00000000000E+00  0.89723745740E+03  0.89723745740E+03  0.00000000000E+00 0.  1.
          1   -1    0    0  501    0  0.00000000000E+00 -0.00000000000E+00 -0.77205817120E+03  0.77205817120E+03  0.00000000000E+00 0. -1.
         23    2    1    2    0    0 -0.19257350178E+03 -0.76576740465E+01  0.59976163021E+03  0.63662882138E+03  0.91864299825E+02 0.  0.
        254    2    1    2    0    0  0.19257350178E+03  0.76576740465E+01 -0.47458234402E+03  0.10326668072E+04  0.89667671985E+03 0.  0.
        -24    2    4    4    0    0 -0.17205074623E+03 -0.51686644091E+02 -0.60251758763E+03  0.63364081223E+03  0.78741774569E+02 0.  0.
         24    2    4    4    0    0  0.36462424801E+03  0.59344318137E+02  0.12793524361E+03  0.39902599499E+03  0.79885717019E+02 0.  0.
         13    1    3    3    0    0 -0.16078911146E+03 -0.26261117344E+02  0.37488048202E+03  0.40875195467E+03  0.00000000000E+00 0.  1.
        -13    1    3    3    0    0 -0.31784390322E+02  0.18603443298E+02  0.22488114820E+03  0.22787686672E+03  0.00000000000E+00 0. -1.
          2    1    6    6  502    0  0.14557462984E+02 -0.14007539398E+02  0.88197602925E+01  0.22043571855E+02  0.00000000000E+00 0. -1.
          3    1    5    5  503    0  0.16162406706E+01  0.10336144286E+02 -0.19168506622E+02  0.21837576760E+02  0.00000000000E+00 0. -1.
         -4    1    5    5    0  503 -0.17366698691E+03 -0.62022788377E+02 -0.58334908101E+03  0.61180323547E+03  0.00000000000E+00 0.  1.
         -1    1    6    6    0  502  0.35006678503E+03  0.73351857536E+02  0.11911548332E+03  0.37698242313E+03  0.00000000000E+00 0.  1.
<mgrwt>
<rscale>  0 0.16645955E+04</rscale>
<asrwt>0</asrwt>
<pdfrwt beam="1">  1        1 0.11877818E+00 0.16645955E+04</pdfrwt>
<pdfrwt beam="2">  1       -1 0.13803653E+00 0.16645955E+04</pdfrwt>
<totfact> 0.97148606E+00</totfact>
</mgrwt>
</event>
<event>
12    1  0.1472088E-007  0.1648289E+04  0.7818608E-02  0.8791419E-01
          2   -1    0    0  501    0  0.00000000000E+00  0.00000000000E+00  0.26483920560E+04  0.26483920560E+04  0.00000000000E+00 0. -1.
         -2   -1    0    0    0  501 -0.00000000000E+00 -0.00000000000E+00 -0.25646285458E+03  0.25646285458E+03  0.00000000000E+00 0.  1.
         23    2    1    2    0    0 -0.43423431784E+01  0.54221644446E+03  0.42659686004E+03  0.69589764588E+03  0.90945719841E+02 0.  0.
        254    2    1    2    0    0  0.43423431784E+01 -0.54221644446E+03  0.19653323413E+04  0.22089572647E+04  0.85026081680E+03 0.  0.
        -24    2    4    4    0    0  0.28988863406E+03  0.76062908932E+02  0.78240038189E+03  0.84173967189E+03  0.80958825165E+02 0.  0.
         24    2    4    4    0    0 -0.28554629088E+03 -0.61827935339E+03  0.11829319595E+04  0.13672175928E+04  0.78421184893E+02 0.  0.
         11    1    3    3    0    0 -0.28820344127E+02  0.43263459133E+03  0.30335327238E+03  0.52917531095E+03  0.00000000000E+00 0.  1.
        -11    1    3    3    0    0  0.24478000948E+02  0.10958185312E+03  0.12324358766E+03  0.16672233493E+03  0.00000000000E+00 0. -1.
          2    1    6    6  502    0 -0.75855134081E+02 -0.17882194121E+03  0.27090349471E+03  0.33334665361E+03  0.00000000000E+00 0. -1.
          3    1    5    5  503    0  0.33442438530E+02 -0.16490548326E+02  0.79249082268E+02  0.87582828906E+02  0.00000000000E+00 0. -1.
         -4    1    5    5    0  503  0.25644619553E+03  0.92553457258E+02  0.70315129962E+03  0.75415684298E+03  0.00000000000E+00 0.  1.
         -1    1    6    6    0  502 -0.20969115680E+03 -0.43945741217E+03  0.91202846474E+03  0.10338709392E+04  0.00000000000E+00 0.  1.
<mgrwt>
<rscale>  0 0.16482890E+04</rscale>
<asrwt>0</asrwt>
<pdfrwt beam="1">  1        2 0.40744491E+00 0.16482890E+04</pdfrwt>
<pdfrwt beam="2">  1       -2 0.39455826E-01 0.16482890E+04</pdfrwt>
<totfact> 0.16585112E+01</totfact>
</mgrwt>
</event>
<event>
12    1  0.1472088E-007  0.1720149E+04  0.7818608E-02  0.8749956E-01
          1   -1    0    0  501    0  0.00000000000E+00  0.00000000000E+00  0.12088592009E+04  0.12088592009E+04  0.00000000000E+00 0. -1.
         -1   -1    0    0    0  501 -0.00000000000E+00 -0.00000000000E+00 -0.61192215332E+03  0.61192215332E+03  0.00000000000E+00 0.  1.
         23    2    1    2    0    0 -0.41608060097E+02  0.57489225684E+03 -0.31903372022E+02  0.58444699691E+03  0.91258585452E+02 0.  0.
        254    2    1    2    0    0  0.41608060097E+02 -0.57489225684E+03  0.62884041963E+03  0.12363343573E+04  0.89490224725E+03 0.  0.
        -24    2    4    4    0    0 -0.38998944809E+03 -0.26165703958E+03  0.48191313309E+03  0.67769882985E+03  0.80493851565E+02 0.  0.
         24    2    4    4    0    0  0.43159750819E+03 -0.31323521725E+03  0.14692728654E+03  0.55863552749E+03  0.78059686427E+02 0.  0.
         13    1    3    3    0    0 -0.50738036608E+02  0.24853899384E+03  0.17414271164E+02  0.25426214161E+03  0.00000000000E+00 0.  1.
        -13    1    3    3    0    0  0.91299765115E+01  0.32635326300E+03 -0.49317643186E+02  0.33018485530E+03  0.00000000000E+00 0. -1.
          2    1    6    6  502    0  0.25095783860E+03 -0.18815613033E+03  0.46622593904E+02  0.31710602706E+03  0.00000000000E+00 0. -1.
          3    1    5    5  503    0 -0.51520704775E+02 -0.57439116959E+02  0.11411539693E+03  0.13775325402E+03  0.00000000000E+00 0. -1.
         -4    1    5    5    0  503 -0.33846874332E+03 -0.20421792262E+03  0.36779773616E+03  0.53994557582E+03  0.00000000000E+00 0.  1.
         -1    1    6    6    0  502  0.18063966959E+03 -0.12507908693E+03  0.10030469264E+03  0.24152950044E+03  0.00000000000E+00 0.  1.
<mgrwt>
<rscale>  0 0.17201485E+04</rscale>
<asrwt>0</asrwt>
<pdfrwt beam="1">  1        1 0.18597834E+00 0.17201485E+04</pdfrwt>
<pdfrwt beam="2">  1       -1 0.94141870E-01 0.17201485E+04</pdfrwt>
<totfact> 0.10930372E+01</totfact>
</mgrwt>
</event>
<event>
12    1  0.1472088E-007  0.2478896E+04  0.7818608E-02  0.8410543E-01
         -2   -1    0    0    0  501 -0.00000000000E+00  0.00000000000E+00  0.46358378407E+03  0.46358378407E+03  0.00000000000E+00 0.  1.
          2   -1    0    0  501    0  0.00000000000E+00 -0.00000000000E+00 -0.33138160295E+04  0.33138160295E+04  0.00000000000E+00 0. -1.
         23    2    1    2    0    0 -0.13956960997E+03 -0.50245753785E+01  0.38268005209E+03  0.41806517331E+03  0.93965655865E+02 0.  0.
        254    2    1    2    0    0  0.13956960997E+03  0.50245753785E+01 -0.32329122975E+04  0.33593346403E+04  0.90216538360E+03 0.  0.
        -24    2    4    4    0    0  0.31014246835E+03 -0.59740464917E+02 -0.31057502208E+04  0.31227382524E+04  0.77797722095E+02 0.  0.
         24    2    4    4    0    0 -0.17057285838E+03  0.64765040295E+02 -0.12716207676E+03  0.23659638783E+03  0.80734419595E+02 0.  0.
         11    1    3    3    0    0 -0.12183515059E+03  0.16287491680E+02  0.36509829358E+03  0.38523479889E+03  0.00000000000E+00 0.  1.
        -11    1    3    3    0    0 -0.17734459386E+02 -0.21312067059E+02  0.17581758509E+02  0.32830374416E+02  0.00000000000E+00 0. -1.
          4    1    6    6  502    0 -0.10973285473E+03  0.73950231366E+02 -0.11166721026E+03  0.17314589795E+03  0.00000000000E+00 0. -1.
          1    1    5    5  503    0  0.23850261780E+02 -0.28055558690E+02 -0.30471111112E+03  0.30692802186E+03  0.00000000000E+00 0. -1.
         -2    1    5    5    0  503  0.28629220657E+03 -0.31684906227E+02 -0.28010391097E+04  0.28158102306E+04  0.00000000000E+00 0.  1.
         -3    1    6    6    0  502 -0.60840003645E+02 -0.91851910705E+01 -0.15494866493E+02  0.63450489882E+02  0.00000000000E+00 0.  1.
<mgrwt>
<rscale>  0 0.24788960E+04</rscale>
<asrwt>0</asrwt>
<pdfrwt beam="1">  1        2 0.50981785E+00 0.24788960E+04</pdfrwt>
<pdfrwt beam="2">  1       -2 0.71320583E-01 0.24788960E+04</pdfrwt>
<totfact> 0.17398218E+00</totfact>
</mgrwt>
</event>
<event>
12    1  0.1472088E-007  0.1107426E+04  0.7818608E-02  0.9197984E-01
         -2   -1    0    0    0  501 -0.00000000000E+00  0.00000000000E+00  0.15174084779E+03  0.15174084779E+03  0.00000000000E+00 0.  1.
          2   -1    0    0  501    0  0.00000000000E+00 -0.00000000000E+00 -0.20205389037E+04  0.20205389037E+04  0.00000000000E+00 0. -1.
         23    2    1    2    0    0  0.69368068490E+02  0.21814955374E+02 -0.75040734553E+02  0.14017790479E+03  0.93439349022E+02 0.  0.
        254    2    1    2    0    0 -0.69368068490E+02 -0.21814955374E+02 -0.17937573214E+04  0.20321018467E+04  0.95214744983E+03 0.  0.
        -24    2    4    4    0    0 -0.37747367682E+03 -0.33306046748E+03 -0.97179044588E+03  0.10974758933E+04  0.81615035308E+02 0.  0.
         24    2    4    4    0    0  0.30810560833E+03  0.31124551211E+03 -0.82196687548E+03  0.93462595339E+03  0.78059552109E+02 0.  0.
         13    1    3    3    0    0 -0.31731763083E+01 -0.64527903383E+01 -0.60563590444E+02  0.60988982927E+02  0.00000000000E+00 0. -1.
        -13    1    3    3    0    0  0.72541244798E+02  0.28267745712E+02 -0.14477144109E+02  0.79188921865E+02  0.00000000000E+00 0.  1.
          4    1    6    6  502    0  0.20212751240E+02  0.26921446061E+02 -0.11746826671E+03  0.12219702637E+03  0.00000000000E+00 0. -1.
          3    1    5    5  503    0 -0.25854900982E+03 -0.17515915703E+03 -0.59761198123E+03  0.67429103574E+03  0.00000000000E+00 0. -1.
         -4    1    5    5    0  503 -0.11892466700E+03 -0.15790131045E+03 -0.37417846465E+03  0.42318485756E+03  0.00000000000E+00 0.  1.
         -3    1    6    6    0  502  0.28789285709E+03  0.28432406605E+03 -0.70449860877E+03  0.81242892702E+03  0.00000000000E+00 0.  1.
<mgrwt>
<rscale>  0 0.11074264E+04</rscale>
<asrwt>0</asrwt>
<pdfrwt beam="1">  1        2 0.31085214E+00 0.11074264E+04</pdfrwt>
<pdfrwt beam="2">  1       -2 0.23344746E-01 0.11074264E+04</pdfrwt>
<totfact> 0.10509986E+02</totfact>
</mgrwt>
</event>
<event>
12    1  0.1472088E-007  0.1631394E+04  0.7818608E-02  0.8801490E-01
          1   -1    0    0  501    0  0.00000000000E+00  0.00000000000E+00  0.14264537739E+04  0.14264537739E+04  0.00000000000E+00 0. -1.
         -1   -1    0    0    0  501 -0.00000000000E+00 -0.00000000000E+00 -0.46644433287E+03  0.46644433287E+03  0.00000000000E+00 0.  1.
         23    2    1    2    0    0  0.45197755145E+03 -0.22773276383E+03  0.56097282610E+03  0.76091075135E+03  0.90270378121E+02 0.  0.
        254    2    1    2    0    0 -0.45197755145E+03  0.22773276383E+03  0.39903661493E+03  0.11319873554E+04  0.93060154417E+03 0.  0.
        -24    2    4    4    0    0 -0.40500990289E+01 -0.15016120546E+03 -0.21824838714E+03  0.27708048852E+03  0.81095300116E+02 0.  0.
         24    2    4    4    0    0 -0.44792745242E+03  0.37789396929E+03  0.61728500207E+03  0.85490686689E+03  0.79888188233E+02 0.  0.
         11    1    3    3    0    0  0.38936611204E+03 -0.20455901590E+03  0.43649715659E+03  0.61966130095E+03  0.00000000000E+00 0. -1.
        -11    1    3    3    0    0  0.62611439417E+02 -0.23173747932E+02  0.12447566951E+03  0.14124945040E+03  0.00000000000E+00 0.  1.
          2    1    6    6  502    0 -0.30487934696E+03  0.24495024469E+03  0.35717588751E+03  0.52964766892E+03  0.00000000000E+00 0. -1.
          1    1    5    5  503    0  0.43942914929E+01  0.61041274325E+00  0.55471361707E+01  0.71030360507E+01  0.00000000000E+00 0. -1.
         -2    1    5    5    0  503 -0.84443905219E+01 -0.15077161820E+03 -0.22379552331E+03  0.26997745247E+03  0.00000000000E+00 0.  1.
         -1    1    6    6    0  502 -0.14304810547E+03  0.13294372460E+03  0.26010911456E+03  0.32525919797E+03  0.00000000000E+00 0.  1.
<mgrwt>
<rscale>  0 0.16313936E+04</rscale>
<asrwt>0</asrwt>
<pdfrwt beam="1">  1        1 0.21945442E+00 0.16313936E+04</pdfrwt>
<pdfrwt beam="2">  1       -1 0.71760667E-01 0.16313936E+04</pdfrwt>
<totfact> 0.13809045E+01</totfact>
</mgrwt>
</event>
<event>
12    1  0.1472088E-007  0.1174861E+04  0.7818608E-02  0.9135149E-01
          1   -1    0    0  501    0  0.00000000000E+00  0.00000000000E+00  0.42397021409E+03  0.42397021409E+03  0.00000000000E+00 0.  1.
         -1   -1    0    0    0  501 -0.00000000000E+00 -0.00000000000E+00 -0.81391274063E+03  0.81391274063E+03  0.00000000000E+00 0. -1.
         23    2    1    2    0    0 -0.34373241215E+02  0.15959308670E+03  0.77909622469E+02  0.20272513711E+03  0.91521029859E+02 0.  0.
        254    2    1    2    0    0  0.34373241215E+02 -0.15959308670E+03 -0.46785214901E+03  0.10351578176E+04  0.90885345408E+03 0.  0.
        -24    2    4    4    0    0 -0.25776393579E+02  0.29152091130E+03 -0.48578042961E+03  0.57283010876E+03  0.80640210290E+02 0.  0.
         24    2    4    4    0    0  0.60149634794E+02 -0.45111399800E+03  0.17928280604E+02  0.46232770885E+03  0.79395650845E+02 0.  0.
         11    1    3    3    0    0 -0.13394338408E+02  0.23397292113E+02  0.57385578294E+02  0.63403045477E+02  0.00000000000E+00 0.  1.
        -11    1    3    3    0    0 -0.20978902807E+02  0.13619579459E+03  0.20524044175E+02  0.13932209163E+03  0.00000000000E+00 0. -1.
          4    1    6    6  502    0  0.36192811557E+02 -0.20534375778E+03 -0.30383427353E+02  0.21071101330E+03  0.00000000000E+00 0. -1.
          3    1    5    5  503    0  0.22661791367E+02  0.69424385120E+02 -0.15657155898E+03  0.17276560746E+03  0.00000000000E+00 0. -1.
         -4    1    5    5    0  503 -0.48438184946E+02  0.22209652618E+03 -0.32920887063E+03  0.40006450130E+03  0.00000000000E+00 0.  1.
         -3    1    6    6    0  502  0.23956823237E+02 -0.24577024022E+03  0.48311707957E+02  0.25161669556E+03  0.00000000000E+00 0.  1.
<mgrwt>
<rscale>  0 0.11748613E+04</rscale>
<asrwt>0</asrwt>
<pdfrwt beam="1">  1        1 0.65226187E-01 0.11748613E+04</pdfrwt>
<pdfrwt beam="2">  1       -1 0.12521734E+00 0.11748613E+04</pdfrwt>
<totfact> 0.30669317E+01</totfact>
</mgrwt>
</event>
<event>
12    1  0.1472088E-007  0.1866400E+04  0.7818608E-02  0.8671765E-01
         -1   -1    0    0    0  501 -0.00000000000E+00  0.00000000000E+00  0.36243061016E+03  0.36243061016E+03  0.00000000000E+00 0.  1.
          1   -1    0    0  501    0  0.00000000000E+00 -0.00000000000E+00 -0.24028375985E+04  0.24028375985E+04  0.00000000000E+00 0. -1.
         23    2    1    2    0    0  0.50585207731E+03 -0.35423967129E+03 -0.24522732382E+03  0.67073238506E+03  0.91506410558E+02 0.  0.
        254    2    1    2    0    0 -0.50585207731E+03  0.35423967129E+03 -0.17951796646E+04  0.20945358236E+04  0.88489446807E+03 0.  0.
        -24    2    4    4    0    0 -0.28140984112E+03  0.45960759467E+03 -0.17461846970E+04  0.18293249193E+04  0.82692347785E+02 0.  0.
         24    2    4    4    0    0 -0.22444223619E+03 -0.10536792338E+03 -0.48994967518E+02  0.26521090435E+03  0.80371638548E+02 0.  0.
         13    1    3    3    0    0  0.34754723481E+03 -0.27425279562E+03 -0.13919310472E+03  0.46408878109E+03  0.00000000000E+00 0. -1.
        -13    1    3    3    0    0  0.15830484250E+03 -0.79986875670E+02 -0.10603421910E+03  0.20664360397E+03  0.00000000000E+00 0.  1.
          2    1    6    6  502    0 -0.10306070505E+03 -0.85325968503E+02 -0.48102757672E+02  0.14218264705E+03  0.00000000000E+00 0. -1.
          1    1    5    5  503    0 -0.62580461870E+02  0.85167694793E+02 -0.46012283687E+03  0.47210472933E+03  0.00000000000E+00 0. -1.
         -2    1    5    5    0  503 -0.21882937925E+03  0.37443989988E+03 -0.12860618602E+04  0.13572201900E+04  0.00000000000E+00 0.  1.
         -1    1    6    6    0  502 -0.12138153114E+03 -0.20041954875E+02 -0.89220984686E+00  0.12302825730E+03  0.00000000000E+00 0.  1.
<mgrwt>
<rscale>  0 0.18663996E+04</rscale>
<asrwt>0</asrwt>
<pdfrwt beam="1">  1        1 0.36966733E+00 0.18663996E+04</pdfrwt>
<pdfrwt beam="2">  1       -1 0.55758555E-01 0.18663996E+04</pdfrwt>
<totfact> 0.48306049E+00</totfact>
</mgrwt>
</event>
<event>
12    1  0.1472088E-007  0.1355670E+04  0.7818608E-02  0.8986547E-01
         -2   -1    0    0    0  501 -0.00000000000E+00  0.00000000000E+00  0.18927381130E+03  0.18927381130E+03  0.00000000000E+00 0.  1.
          2   -1    0    0  501    0  0.00000000000E+00 -0.00000000000E+00 -0.24274904282E+04  0.24274904282E+04  0.00000000000E+00 0. -1.
         23    2    1    2    0    0  0.39202817536E+02 -0.44063364744E+02  0.52399429687E+02  0.12083495703E+03  0.91525655390E+02 0.  0.
        254    2    1    2    0    0 -0.39202817536E+02  0.44063364744E+02 -0.22906160466E+04  0.24959292825E+04  0.98957701530E+03 0.  0.
        -24    2    4    4    0    0 -0.13946049425E+03 -0.45165780989E+03 -0.10990117293E+04  0.11990307520E+04  0.80024722798E+02 0.  0.
         24    2    4    4    0    0  0.10025767671E+03  0.49572117464E+03 -0.11916043173E+04  0.12968985305E+04  0.78954827600E+02 0.  0.
         13    1    3    3    0    0  0.24653554104E+02 -0.47376473788E+02 -0.11992188279E+02  0.54737012873E+02  0.00000000000E+00 0. -1.
        -13    1    3    3    0    0  0.14549263431E+02  0.33131090439E+01  0.64391617967E+02  0.66097944161E+02  0.00000000000E+00 0.  1.
          2    1    6    6  502    0  0.67707415342E+02  0.37415475703E+03 -0.97302431449E+03  0.10446781288E+04  0.00000000000E+00 0. -1.
          1    1    5    5  503    0 -0.11711997157E+03 -0.38416937240E+03 -0.99545051647E+03  0.10734174049E+04  0.00000000000E+00 0. -1.
         -2    1    5    5    0  503 -0.22340522675E+02 -0.67488437489E+02 -0.10356121287E+03  0.12561334706E+03  0.00000000000E+00 0.  1.
         -1    1    6    6    0  502  0.32550261372E+02  0.12156641761E+03 -0.21858000280E+03  0.25222040169E+03  0.00000000000E+00 0.  1.
<mgrwt>
<rscale>  0 0.13556701E+04</rscale>
<asrwt>0</asrwt>
<pdfrwt beam="1">  1        2 0.37346006E+00 0.13556701E+04</pdfrwt>
<pdfrwt beam="2">  1       -2 0.29119048E-01 0.13556701E+04</pdfrwt>
<totfact> 0.40716725E+01</totfact>
</mgrwt>
</event>
<event>
12    1  0.1472088E-007  0.1896573E+04  0.7818608E-02  0.8656564E-01
          2   -1    0    0  501    0  0.00000000000E+00  0.00000000000E+00  0.24695182415E+04  0.24695182415E+04  0.00000000000E+00 0.  1.
         -2   -1    0    0    0  501 -0.00000000000E+00 -0.00000000000E+00 -0.36413858586E+03  0.36413858586E+03  0.00000000000E+00 0. -1.
         23    2    1    2    0    0  0.32937280396E+02 -0.54869662565E+03  0.95535091584E+02  0.56550273230E+03  0.92268819607E+02 0.  0.
        254    2    1    2    0    0 -0.32937280396E+02  0.54869662565E+03  0.20098445640E+04  0.22681540950E+04  0.89604407027E+03 0.  0.
        -24    2    4    4    0    0  0.35308660172E+03  0.52650213424E+03  0.14345466277E+04  0.15704410690E+04  0.80538676786E+02 0.  0.
         24    2    4    4    0    0 -0.38602388211E+03  0.22194491411E+02  0.57529793628E+03  0.69771302601E+03  0.79553241054E+02 0.  0.
         11    1    3    3    0    0  0.20416740867E+02 -0.19068175199E+03  0.77424988217E+02  0.20681151479E+03  0.00000000000E+00 0. -1.
        -11    1    3    3    0    0  0.12520539529E+02 -0.35801487366E+03  0.18110103367E+02  0.35869121751E+03  0.00000000000E+00 0.  1.
          2    1    6    6  502    0 -0.21295624040E+03  0.51313245073E+02  0.30808409009E+03  0.37802012646E+03  0.00000000000E+00 0. -1.
          1    1    5    5  503    0  0.23453168750E+03  0.41253396771E+03  0.10576733476E+04  0.11592507482E+04  0.00000000000E+00 0. -1.
         -2    1    5    5    0  503  0.11855491422E+03  0.11396816653E+03  0.37687328010E+03  0.41119032081E+03  0.00000000000E+00 0.  1.
         -3    1    6    6    0  502 -0.17306764171E+03 -0.29118753662E+02  0.26721384619E+03  0.31969289955E+03  0.00000000000E+00 0.  1.
<mgrwt>
<rscale>  0 0.18965726E+04</rscale>
<asrwt>0</asrwt>
<pdfrwt beam="1">  1        2 0.37992587E+00 0.18965726E+04</pdfrwt>
<pdfrwt beam="2">  1       -2 0.56021322E-01 0.18965726E+04</pdfrwt>
<totfact> 0.10169596E+01</totfact>
</mgrwt>
</event>
<event>
12    1  0.1472088E-007  0.1079150E+04  0.7818608E-02  0.9225755E-01
          1   -1    0    0  501    0  0.00000000000E+00  0.00000000000E+00  0.60665043285E+03  0.60665043285E+03  0.00000000000E+00 0. -1.
         -1   -1    0    0    0  501 -0.00000000000E+00 -0.00000000000E+00 -0.47991616658E+03  0.47991616658E+03  0.00000000000E+00 0.  1.
         23    2    1    2    0    0  0.86547757646E+02 -0.67948937996E+02  0.11997143868E+03  0.18482966538E+03  0.87528775703E+02 0.  0.
        254    2    1    2    0    0 -0.86547757646E+02  0.67948937996E+02  0.67628275913E+01  0.90173693406E+03  0.89497273136E+03 0.  0.
        -24    2    4    4    0    0 -0.40092332616E+03  0.13138528411E+03  0.24490380718E+03  0.49433492794E+03  0.79922086252E+02 0.  0.
         24    2    4    4    0    0  0.31437556851E+03 -0.63436346113E+02 -0.23814097959E+03  0.40740200612E+03  0.80056856953E+02 0.  0.
         13    1    3    3    0    0  0.31087059847E+01 -0.36335114478E+02  0.14773803241E+01  0.36497770475E+02  0.00000000000E+00 0.  1.
        -13    1    3    3    0    0  0.83439051661E+02 -0.31613823518E+02  0.11849405836E+03  0.14833189490E+03  0.00000000000E+00 0. -1.
          2    1    6    6  502    0  0.23705841123E+02 -0.28927934786E+02 -0.33911729885E+02  0.50485619122E+02  0.00000000000E+00 0. -1.
          3    1    5    5  503    0 -0.19578720899E+03  0.60693186994E+02  0.73261555694E+02  0.21767762792E+03  0.00000000000E+00 0. -1.
         -4    1    5    5    0  503 -0.20513611716E+03  0.70692097115E+02  0.17164225149E+03  0.27665730002E+03  0.00000000000E+00 0.  1.
         -1    1    6    6    0  502  0.29066972739E+03 -0.34508411327E+02 -0.20422924970E+03  0.35691638700E+03  0.00000000000E+00 0.  1.
<mgrwt>
<rscale>  0 0.10791503E+04</rscale>
<asrwt>0</asrwt>
<pdfrwt beam="1">  1        1 0.93330836E-01 0.10791503E+04</pdfrwt>
<pdfrwt beam="2">  1       -1 0.73833256E-01 0.10791503E+04</pdfrwt>
<totfact> 0.62163719E+01</totfact>
</mgrwt>
</event>
<event>
12    1  0.1472088E-007  0.2841688E+04  0.7818608E-02  0.8290441E-01
          2   -1    0    0  501    0  0.00000000000E+00  0.00000000000E+00  0.23376483702E+04  0.23376483702E+04  0.00000000000E+00 0.  1.
         -2   -1    0    0    0  501 -0.00000000000E+00 -0.00000000000E+00 -0.86360211275E+03  0.86360211275E+03  0.00000000000E+00 0. -1.
         23    2    1    2    0    0 -0.22268692845E+03  0.38162024226E+03  0.20365317210E+04  0.20858826212E+04  0.90671832428E+02 0.  0.
        254    2    1    2    0    0  0.22268692845E+03 -0.38162024226E+03 -0.56248546360E+03  0.11153678618E+04  0.85582246574E+03 0.  0.
        -24    2    4    4    0    0 -0.21964467415E+03 -0.81511730436E+02 -0.51630909915E+03  0.57232419205E+03  0.78050944012E+02 0.  0.
         24    2    4    4    0    0  0.44233160260E+03 -0.30010851183E+03 -0.46176364445E+02  0.54304366970E+03  0.83915463631E+02 0.  0.
         11    1    3    3    0    0 -0.22976158988E+03  0.37264598910E+03  0.19461903430E+04  0.19948213636E+04  0.00000000000E+00 0.  1.
        -11    1    3    3    0    0  0.70746614242E+01  0.89742531657E+01  0.90341377999E+02  0.91061257584E+02  0.00000000000E+00 0. -1.
          2    1    6    6  502    0  0.25897787115E+03 -0.22382972080E+03 -0.22295534225E+02  0.34302532342E+03  0.00000000000E+00 0. -1.
          3    1    5    5  503    0 -0.21951794757E+03 -0.69272535997E+02 -0.50743858054E+03  0.55720797425E+03  0.00000000000E+00 0. -1.
         -4    1    5    5    0  503 -0.12672657293E+00 -0.12239194440E+02 -0.88705186169E+01  0.15116217804E+02  0.00000000000E+00 0.  1.
         -3    1    6    6    0  502  0.18335373145E+03 -0.76278791028E+02 -0.23880830221E+02  0.20001834628E+03  0.00000000000E+00 0.  1.
<mgrwt>
<rscale>  0 0.28416883E+04</rscale>
<asrwt>0</asrwt>
<pdfrwt beam="1">  1        2 0.35963821E+00 0.28416883E+04</pdfrwt>
<pdfrwt beam="2">  1       -2 0.13286186E+00 0.28416883E+04</pdfrwt>
<totfact> 0.15376331E+00</totfact>
</mgrwt>
</event>
<event>
12    1  0.1472088E-007  0.2095490E+04  0.7818608E-02  0.8563233E-01
          1   -1    0    0  501    0  0.00000000000E+00  0.00000000000E+00  0.11971170181E+04  0.11971170181E+04  0.00000000000E+00 0.  1.
         -1   -1    0    0    0  501 -0.00000000000E+00 -0.00000000000E+00 -0.91701117069E+03  0.91701117069E+03  0.00000000000E+00 0. -1.
         23    2    1    2    0    0  0.42926360472E+03 -0.21790597789E+03  0.82185970232E+03  0.95784622081E+03  0.10132006165E+03 0.  0.
        254    2    1    2    0    0 -0.42926360472E+03  0.21790597789E+03 -0.54175385487E+03  0.11562819680E+04  0.90096642155E+03 0.  0.
        -24    2    4    4    0    0 -0.47631795363E+02  0.13413175949E+03  0.23305587434E+03  0.28496945328E+03  0.81439744017E+02 0.  0.
         24    2    4    4    0    0 -0.38163180935E+03  0.83774218398E+02 -0.77480972921E+03  0.87131251473E+03  0.78704664931E+02 0.  0.
         13    1    3    3    0    0  0.61027002582E+02  0.54385362236E+01  0.10409741134E+03  0.12078966747E+03  0.00000000000E+00 0. -1.
        -13    1    3    3    0    0  0.36823660213E+03 -0.22334451411E+03  0.71776229098E+03  0.83705655334E+03  0.00000000000E+00 0.  1.
          2    1    6    6  502    0 -0.13248213987E+03  0.65382609112E+02 -0.31825799997E+03  0.35087684093E+03  0.00000000000E+00 0. -1.
          3    1    5    5  503    0 -0.48367875390E+02  0.33818622065E+02  0.55392739943E+02  0.80941375121E+02  0.00000000000E+00 0. -1.
         -4    1    5    5    0  503  0.73608002701E+00  0.10031313743E+03  0.17766313440E+03  0.20402807816E+03  0.00000000000E+00 0.  1.
         -1    1    6    6    0  502 -0.24914966948E+03  0.18391609286E+02 -0.45655172924E+03  0.52043567380E+03  0.00000000000E+00 0.  1.
<mgrwt>
<rscale>  0 0.20954901E+04</rscale>
<asrwt>0</asrwt>
<pdfrwt beam="1">  1        1 0.18417185E+00 0.20954901E+04</pdfrwt>
<pdfrwt beam="2">  1       -1 0.14107864E+00 0.20954901E+04</pdfrwt>
<totfact> 0.40587457E+00</totfact>
</mgrwt>
</event>
<event>
12    1  0.1472088E-007  0.1352777E+04  0.7818608E-02  0.8988728E-01
         -2   -1    0    0    0  501 -0.00000000000E+00  0.00000000000E+00  0.70654266003E+03  0.70654266003E+03  0.00000000000E+00 0. -1.
          2   -1    0    0  501    0  0.00000000000E+00 -0.00000000000E+00 -0.64752145651E+03  0.64752145651E+03  0.00000000000E+00 0.  1.
         23    2    1    2    0    0  0.11337206838E+03  0.37059662230E+03  0.92847041736E+02  0.40851379736E+03  0.89821306650E+02 0.  0.
        254    2    1    2    0    0 -0.11337206838E+03 -0.37059662230E+03 -0.33825838216E+02  0.94555031918E+03  0.86181560466E+03 0.  0.
        -24    2    4    4    0    0 -0.30264953891E+03 -0.17004027657E+03 -0.36292607178E+03  0.50896808497E+03  0.82599872182E+02 0.  0.
         24    2    4    4    0    0  0.18927747053E+03 -0.20055634573E+03  0.32910023356E+03  0.43658223421E+03  0.79046029864E+02 0.  0.
         13    1    3    3    0    0  0.77467216514E+02  0.21338287468E+03  0.97789387963E+02  0.24717642533E+03  0.00000000000E+00 0. -1.
        -13    1    3    3    0    0  0.35904851869E+02  0.15721374762E+03 -0.49423462269E+01  0.16133737203E+03  0.00000000000E+00 0.  1.
          4    1    6    6  502    0  0.47321680516E+01 -0.48467310060E+01 -0.44306382478E+01  0.80941195442E+01  0.00000000000E+00 0. -1.
          3    1    5    5  503    0  0.53567523301E+01 -0.51948318084E+01 -0.66618733496E+01  0.10003081004E+02  0.00000000000E+00 0. -1.
         -4    1    5    5    0  503 -0.30800629124E+03 -0.16484544476E+03 -0.35626419843E+03  0.49896500397E+03  0.00000000000E+00 0.  1.
         -3    1    6    6    0  502  0.18454530248E+03 -0.19570961472E+03  0.33353087181E+03  0.42848811467E+03  0.00000000000E+00 0.  1.
<mgrwt>
<rscale>  0 0.13527772E+04</rscale>
<asrwt>0</asrwt>
<pdfrwt beam="1">  1        2 0.99618685E-01 0.13527772E+04</pdfrwt>
<pdfrwt beam="2">  1       -2 0.10869887E+00 0.13527772E+04</pdfrwt>
<totfact> 0.29835758E+01</totfact>
</mgrwt>
</event>
<event>
12    1  0.1472088E-007  0.2143589E+04  0.7818608E-02  0.8542282E-01
          2   -1    0    0  501    0  0.00000000000E+00  0.00000000000E+00  0.56431771672E+03  0.56431771672E+03  0.00000000000E+00 0. -1.
         -2   -1    0    0    0  501 -0.00000000000E+00 -0.00000000000E+00 -0.20356321397E+04  0.20356321397E+04  0.00000000000E+00 0.  1.
         23    2    1    2    0    0 -0.70329035308E+03 -0.12493442633E+03  0.17625688729E+02  0.72008199103E+03  0.89339113937E+02 0.  0.
        254    2    1    2    0    0  0.70329035308E+03  0.12493442633E+03 -0.14889401117E+04  0.18798678654E+04  0.89818405879E+03 0.  0.
        -24    2    4    4    0    0  0.31348218251E+03  0.34411521947E+03 -0.13090433951E+04  0.13914849342E+04  0.77132021716E+02 0.  0.
         24    2    4    4    0    0  0.38980817057E+03 -0.21918079314E+03 -0.17989671659E+03  0.48838293120E+03  0.78513877234E+02 0.  0.
         13    1    3    3    0    0 -0.37005756113E+02 -0.26018777750E+01 -0.18982411905E+02  0.41671665615E+02  0.00000000000E+00 0.  1.
        -13    1    3    3    0    0 -0.66628459697E+03 -0.12233254855E+03  0.36608100634E+02  0.67841032541E+03  0.00000000000E+00 0. -1.
          4    1    6    6  502    0  0.19104875705E+03 -0.72991372895E+02 -0.54707269588E+02  0.21170794372E+03  0.00000000000E+00 0. -1.
          3    1    5    5  503    0  0.13660085224E+03  0.97951333538E+02 -0.50188809927E+03  0.52928812642E+03  0.00000000000E+00 0. -1.
         -4    1    5    5    0  503  0.17688133027E+03  0.24616388593E+03 -0.80715529586E+03  0.86219680779E+03  0.00000000000E+00 0.  1.
         -3    1    6    6    0  502  0.19875941352E+03 -0.14618942025E+03 -0.12518944701E+03  0.27667498748E+03  0.00000000000E+00 0.  1.
<mgrwt>
<rscale>  0 0.21435888E+04</rscale>
<asrwt>0</asrwt>
<pdfrwt beam="1">  1        2 0.86818110E-01 0.21435888E+04</pdfrwt>
<pdfrwt beam="2">  1       -2 0.31317418E+00 0.21435888E+04</pdfrwt>
<totfact> 0.12947065E+00</totfact>
</mgrwt>
</event>
<event>
12    1  0.1472088E-007  0.2093158E+04  0.7818608E-02  0.8564263E-01
          2   -1    0    0  501    0  0.00000000000E+00  0.00000000000E+00  0.22515133134E+04  0.22515133134E+04  0.00000000000E+00 0. -1.
         -2   -1    0    0    0  501 -0.00000000000E+00 -0.00000000000E+00 -0.48648492992E+03  0.48648492992E+03  0.00000000000E+00 0.  1.
         23    2    1    2    0    0  0.40197838540E+02  0.62031720580E+03  0.14346570744E+04  0.15661301821E+04  0.90075102019E+02 0.  0.
        254    2    1    2    0    0 -0.40197838540E+02 -0.62031720580E+03  0.33037130907E+03  0.11718680613E+04  0.93686725266E+03 0.  0.
        -24    2    4    4    0    0 -0.62287400332E+02  0.23899510817E+03  0.48116317660E+02  0.26364843406E+03  0.78720612228E+02 0.  0.
         24    2    4    4    0    0  0.22089561792E+02 -0.85931231397E+03  0.28225499141E+03  0.90821962720E+03  0.79305796620E+02 0.  0.
         11    1    3    3    0    0  0.53406500802E+02  0.21603788797E+03  0.55369968722E+03  0.59674782529E+03  0.00000000000E+00 0. -1.
        -11    1    3    3    0    0 -0.13208662263E+02  0.40427931783E+03  0.88095738718E+03  0.96938235676E+03  0.00000000000E+00 0.  1.
          4    1    6    6  502    0 -0.21440818802E+02 -0.52097808716E+03  0.15263941445E+03  0.54330163524E+03  0.00000000000E+00 0. -1.
          1    1    5    5  503    0 -0.16861911840E+02  0.19004124256E+03  0.48533763411E+02  0.19686422767E+03  0.00000000000E+00 0. -1.
         -2    1    5    5    0  503 -0.45425488492E+02  0.48953865611E+02 -0.41744575081E+00  0.66784206396E+02  0.00000000000E+00 0.  1.
         -3    1    6    6    0  502  0.43530380594E+02 -0.33833422681E+03  0.12961557696E+03  0.36491799196E+03  0.00000000000E+00 0.  1.
<mgrwt>
<rscale>  0 0.20931577E+04</rscale>
<asrwt>0</asrwt>
<pdfrwt beam="1">  1        2 0.34638666E+00 0.20931577E+04</pdfrwt>
<pdfrwt beam="2">  1       -2 0.74843836E-01 0.20931577E+04</pdfrwt>
<totfact> 0.71437645E+00</totfact>
</mgrwt>
</event>
<event>
12    1  0.1472088E-007  0.1390723E+04  0.7818608E-02  0.8960561E-01
          1   -1    0    0  501    0  0.00000000000E+00  0.00000000000E+00  0.32685980377E+03  0.32685980377E+03  0.00000000000E+00 0. -1.
         -1   -1    0    0    0  501 -0.00000000000E+00 -0.00000000000E+00 -0.14793126642E+04  0.14793126642E+04  0.00000000000E+00 0.  1.
         23    2    1    2    0    0 -0.11308009860E+03  0.93728714744E+02  0.15995315810E+03  0.23375954683E+03  0.86523593784E+02 0.  0.
        254    2    1    2    0    0  0.11308009860E+03 -0.93728714744E+02 -0.13124060185E+04  0.15724129211E+04  0.85352249906E+03 0.  0.
        -24    2    4    4    0    0  0.18929911177E+03 -0.14703492881E+03  0.45793859635E+00  0.25397632554E+03  0.83966304089E+02 0.  0.
         24    2    4    4    0    0 -0.76219013167E+02  0.53306214066E+02 -0.13128639571E+04  0.13184365956E+04  0.77539642966E+02 0.  0.
         11    1    3    3    0    0 -0.57455532498E+02  0.88250687430E+02  0.13827726384E+03  0.17381002199E+03  0.00000000000E+00 0. -1.
        -11    1    3    3    0    0 -0.55624566104E+02  0.54780273136E+01  0.21675894258E+02  0.59949524847E+02  0.00000000000E+00 0.  1.
          2    1    6    6  502    0  0.16068542090E+01  0.17948776489E+02 -0.62801514041E+03  0.62827363238E+03  0.00000000000E+00 0. -1.
          3    1    5    5  503    0  0.18404023716E+03 -0.12120464670E+03  0.19839559127E+02  0.22125773067E+03  0.00000000000E+00 0. -1.
         -4    1    5    5    0  503  0.52588746092E+01 -0.25830282109E+02 -0.19381620531E+02  0.32718594872E+02  0.00000000000E+00 0.  1.
         -1    1    6    6    0  502 -0.77825867376E+02  0.35357437577E+02 -0.68484881674E+03  0.69016296323E+03  0.00000000000E+00 0.  1.
<mgrwt>
<rscale>  0 0.13907233E+04</rscale>
<asrwt>0</asrwt>
<pdfrwt beam="1">  1        1 0.50286122E-01 0.13907233E+04</pdfrwt>
<pdfrwt beam="2">  1       -1 0.22758657E+00 0.13907233E+04</pdfrwt>
<totfact> 0.74916118E+00</totfact>
</mgrwt>
</event>
<event>
12    1  0.1472088E-007  0.1278042E+04  0.7818608E-02  0.9047162E-01
          2   -1    0    0  501    0  0.00000000000E+00  0.00000000000E+00  0.21878280781E+04  0.21878280781E+04  0.00000000000E+00 0. -1.
         -2   -1    0    0    0  501 -0.00000000000E+00 -0.00000000000E+00 -0.18664531704E+03  0.18664531704E+03  0.00000000000E+00 0.  1.
         23    2    1    2    0    0 -0.17142766529E+03 -0.25354177439E+03  0.37865046793E+03  0.49531245897E+03  0.91035044675E+02 0.  0.
        254    2    1    2    0    0  0.17142766529E+03  0.25354177439E+03  0.16225322931E+04  0.18791609362E+04  0.89719780761E+03 0.  0.
        -24    2    4    4    0    0  0.27243078856E+03 -0.21946070916E+03  0.11232934014E+04  0.11796722595E+04  0.86354135606E+02 0.  0.
         24    2    4    4    0    0 -0.10100312327E+03  0.47300248355E+03  0.49923889174E+03  0.69948867670E+03  0.78179009016E+02 0.  0.
         13    1    3    3    0    0 -0.15103805335E+03 -0.24880103418E+03  0.31770586818E+03  0.43087291264E+03  0.00000000000E+00 0.  1.
        -13    1    3    3    0    0 -0.20389611940E+02 -0.47407402102E+01  0.60944599747E+02  0.64439546330E+02  0.00000000000E+00 0. -1.
          2    1    6    6  502    0 -0.68104078490E+02  0.39547963684E+03  0.37394449499E+03  0.54852237329E+03  0.00000000000E+00 0. -1.
          3    1    5    5  503    0  0.13207548753E+03 -0.12349510694E+03  0.44362610349E+03  0.47906063869E+03  0.00000000000E+00 0. -1.
         -4    1    5    5    0  503  0.14035530102E+03 -0.95965602218E+02  0.67966729789E+03  0.70061162077E+03  0.00000000000E+00 0.  1.
         -1    1    6    6    0  502 -0.32899044778E+02  0.77522846708E+02  0.12529439675E+03  0.15096630341E+03  0.00000000000E+00 0.  1.
<mgrwt>
<rscale>  0 0.12780420E+04</rscale>
<asrwt>0</asrwt>
<pdfrwt beam="1">  1        2 0.33658892E+00 0.12780420E+04</pdfrwt>
<pdfrwt beam="2">  1       -2 0.28714666E-01 0.12780420E+04</pdfrwt>
<totfact> 0.57416374E+01</totfact>
</mgrwt>
</event>
<event>
12    1  0.1472088E-007  0.1406072E+04  0.7818608E-02  0.8949435E-01
          2   -1    0    0  501    0  0.00000000000E+00  0.00000000000E+00  0.19899331249E+04  0.19899331249E+04  0.00000000000E+00 0. -1.
         -2   -1    0    0    0  501 -0.00000000000E+00 -0.00000000000E+00 -0.24837992636E+03  0.24837992636E+03  0.00000000000E+00 0.  1.
         23    2    1    2    0    0 -0.31363185311E+03  0.21420019073E+03  0.80281066492E+03  0.89219183078E+03  0.85174163911E+02 0.  0.
        254    2    1    2    0    0  0.31363185311E+03 -0.21420019073E+03  0.93874253361E+03  0.13461212205E+04  0.88688112777E+03 0.  0.
        -24    2    4    4    0    0  0.61353128202E+03 -0.20542500841E+03  0.59147083855E+03  0.88011507909E+03  0.78388337690E+02 0.  0.
         24    2    4    4    0    0 -0.29989942891E+03 -0.87751823244E+01  0.34727169506E+03  0.46600614138E+03  0.80916143803E+02 0.  0.
         13    1    3    3    0    0 -0.27519862373E+03  0.18273123032E+03  0.75086303518E+03  0.82031718416E+03  0.00000000000E+00 0. -1.
        -13    1    3    3    0    0 -0.38433229379E+02  0.31468960410E+02  0.51947629747E+02  0.71874646616E+02  0.00000000000E+00 0.  1.
          2    1    6    6  502    0 -0.30241866812E+03 -0.96879489442E+01  0.34967233725E+03  0.46240853217E+03  0.00000000000E+00 0. -1.
          3    1    5    5  503    0  0.19398603990E+03 -0.27120820485E+02  0.17624108584E+03  0.26349011921E+03  0.00000000000E+00 0. -1.
         -4    1    5    5    0  503  0.41954524212E+03 -0.17830418792E+03  0.41522975271E+03  0.61662495989E+03  0.00000000000E+00 0.  1.
         -1    1    6    6    0  502  0.25192392038E+01  0.91276661987E+00 -0.24006421984E+01  0.35976092108E+01  0.00000000000E+00 0.  1.
<mgrwt>
<rscale>  0 0.14060718E+04</rscale>
<asrwt>0</asrwt>
<pdfrwt beam="1">  1        2 0.30614355E+00 0.14060718E+04</pdfrwt>
<pdfrwt beam="2">  1       -2 0.38212298E-01 0.14060718E+04</pdfrwt>
<totfact> 0.42602242E+01</totfact>
</mgrwt>
</event>
<event>
12    1  0.1472088E-007  0.2243044E+04  0.7818608E-02  0.8500723E-01
         -1   -1    0    0    0  501 -0.00000000000E+00  0.00000000000E+00  0.14262395421E+04  0.14262395421E+04  0.00000000000E+00 0.  1.
          1   -1    0    0  501    0  0.00000000000E+00 -0.00000000000E+00 -0.88190729546E+03  0.88190729546E+03  0.00000000000E+00 0. -1.
         23    2    1    2    0    0 -0.54495784260E+03  0.56321152309E+02 -0.53122575531E+03  0.76835123173E+03  0.89508043093E+02 0.  0.
        254    2    1    2    0    0  0.54495784260E+03 -0.56321152309E+02  0.10755580020E+04  0.15397956059E+04  0.95603052765E+03 0.  0.
        -24    2    4    4    0    0  0.76790934176E+03  0.47660486162E+02  0.53438403459E+03  0.94028482666E+03  0.81320229485E+02 0.  0.
         24    2    4    4    0    0 -0.22295149916E+03 -0.10398163847E+03  0.54117396739E+03  0.59951077920E+03  0.77616746137E+02 0.  0.
         13    1    3    3    0    0 -0.34546743445E+03 -0.77493199063E+01 -0.33533370626E+03  0.48151479186E+03  0.00000000000E+00 0. -1.
        -13    1    3    3    0    0 -0.19949040815E+03  0.64070472215E+02 -0.19589204905E+03  0.28683643987E+03  0.00000000000E+00 0.  1.
          4    1    6    6  502    0 -0.69759488460E+02 -0.63627029830E+02  0.26238297530E+03  0.27885410322E+03  0.00000000000E+00 0. -1.
          1    1    5    5  503    0  0.23150249805E+03  0.45310084782E+02  0.13786044964E+03  0.27322502441E+03  0.00000000000E+00 0. -1.
         -2    1    5    5    0  503  0.53640684371E+03  0.23504013802E+01  0.39652358495E+03  0.66705980225E+03  0.00000000000E+00 0.  1.
         -3    1    6    6    0  502 -0.15319201070E+03 -0.40354608641E+02  0.27879099209E+03  0.32065667598E+03  0.00000000000E+00 0.  1.
<mgrwt>
<rscale>  0 0.22430435E+04</rscale>
<asrwt>0</asrwt>
<pdfrwt beam="1">  1        1 0.13567805E+00 0.22430435E+04</pdfrwt>
<pdfrwt beam="2">  1       -1 0.21942147E+00 0.22430435E+04</pdfrwt>
<totfact> 0.18993560E+00</totfact>
</mgrwt>
</event>
<event>
12    1  0.1472088E-007  0.1548787E+04  0.7818608E-02  0.8852643E-01
          1   -1    0    0  501    0  0.00000000000E+00  0.00000000000E+00  0.90175194160E+03  0.90175194160E+03  0.00000000000E+00 0. -1.
         -1   -1    0    0    0  501 -0.00000000000E+00 -0.00000000000E+00 -0.66502251236E+03  0.66502251236E+03  0.00000000000E+00 0.  1.
         23    2    1    2    0    0  0.95422295603E+02  0.48663708665E+03 -0.29937895230E+02  0.50523450551E+03  0.91894283776E+02 0.  0.
        254    2    1    2    0    0 -0.95422295603E+02 -0.48663708665E+03  0.26666732447E+03  0.10615399484E+04  0.89990806842E+03 0.  0.
        -24    2    4    4    0    0 -0.33337286933E+03 -0.30779311324E+03 -0.19863208006E+03  0.50231260044E+03  0.83601284485E+02 0.  0.
         24    2    4    4    0    0  0.23795057373E+03 -0.17884397341E+03  0.46529940453E+03  0.55922734801E+03  0.87327249723E+02 0.  0.
         11    1    3    3    0    0  0.11133499669E+03  0.46030538103E+03 -0.27780869633E+02  0.47439256108E+03  0.00000000000E+00 0.  1.
        -11    1    3    3    0    0 -0.15912701090E+02  0.26331705617E+02 -0.21570255967E+01  0.30841944428E+02  0.00000000000E+00 0. -1.
          2    1    6    6  502    0  0.50574749524E+01 -0.13199696993E+02  0.70145029327E+02  0.71555119963E+02  0.00000000000E+00 0. -1.
          3    1    5    5  503    0 -0.14366781359E+03 -0.16469010039E+03 -0.57699445509E+02  0.22603649227E+03  0.00000000000E+00 0. -1.
         -4    1    5    5    0  503 -0.18970505574E+03 -0.14310301285E+03 -0.14093263455E+03  0.27627610816E+03  0.00000000000E+00 0.  1.
         -1    1    6    6    0  502  0.23289309877E+03 -0.16564427642E+03  0.39515437521E+03  0.48767222805E+03  0.00000000000E+00 0.  1.
<mgrwt>
<rscale>  0 0.15487871E+04</rscale>
<asrwt>0</asrwt>
<pdfrwt beam="1">  1        1 0.13873107E+00 0.15487871E+04</pdfrwt>
<pdfrwt beam="2">  1       -1 0.10231116E+00 0.15487871E+04</pdfrwt>
<totfact> 0.15806608E+01</totfact>
</mgrwt>
</event>
<event>
12    1  0.1472088E-007  0.2642751E+04  0.7818608E-02  0.8353823E-01
         -2   -1    0    0    0  501 -0.00000000000E+00  0.00000000000E+00  0.13450363861E+04  0.13450363861E+04  0.00000000000E+00 0. -1.
          2   -1    0    0  501    0  0.00000000000E+00 -0.00000000000E+00 -0.12981309393E+04  0.12981309393E+04  0.00000000000E+00 0.  1.
         23    2    1    2    0    0  0.36847313877E+03  0.10540397882E+04  0.37470743284E+03  0.11812533840E+04  0.90452019263E+02 0.  0.
        254    2    1    2    0    0 -0.36847313877E+03 -0.10540397882E+04 -0.32780198608E+03  0.14619139415E+04  0.88485360426E+03 0.  0.
        -24    2    4    4    0    0 -0.40602099476E+03 -0.10594346165E+04 -0.51987194001E+03  0.12505616472E+04  0.79892707345E+02 0.  0.
         24    2    4    4    0    0  0.37547855989E+02  0.53948282878E+01  0.19206995393E+03  0.21135229421E+03  0.79623987605E+02 0.  0.
         11    1    3    3    0    0  0.13629726199E+03  0.50937238511E+03  0.19971819644E+03  0.56384796562E+03  0.00000000000E+00 0. -1.
        -11    1    3    3    0    0  0.23217587678E+03  0.54466740312E+03  0.17498923640E+03  0.61740541837E+03  0.00000000000E+00 0.  1.
          4    1    6    6  502    0 -0.12368683153E+02  0.66073093971E+01  0.13415051213E+03  0.13488143225E+03  0.00000000000E+00 0. -1.
          3    1    5    5  503    0 -0.98724813631E+02 -0.18867349685E+03 -0.76780106663E+02  0.22636135275E+03  0.00000000000E+00 0. -1.
         -4    1    5    5    0  503 -0.30729618113E+03 -0.87076111966E+03 -0.44309183335E+03  0.10242002945E+04  0.00000000000E+00 0.  1.
         -3    1    6    6    0  502  0.49916539142E+02 -0.12124811093E+01  0.57919441800E+02  0.76470861959E+02  0.00000000000E+00 0.  1.
<mgrwt>
<rscale>  0 0.26427511E+04</rscale>
<asrwt>0</asrwt>
<pdfrwt beam="1">  1        2 0.19971245E+00 0.26427511E+04</pdfrwt>
<pdfrwt beam="2">  1       -2 0.20692867E+00 0.26427511E+04</pdfrwt>
<totfact> 0.17509509E+00</totfact>
</mgrwt>
</event>
<event>
12    1  0.1472088E-007  0.2078547E+04  0.7818608E-02  0.8570753E-01
         -1   -1    0    0    0  501 -0.00000000000E+00  0.00000000000E+00  0.61310565439E+03  0.61310565439E+03  0.00000000000E+00 0.  1.
          1   -1    0    0  501    0  0.00000000000E+00 -0.00000000000E+00 -0.17616690567E+04  0.17616690567E+04  0.00000000000E+00 0. -1.
         23    2    1    2    0    0 -0.56576917414E+03 -0.46409541950E+03 -0.93734292918E+03  0.11931000355E+04  0.96936118633E+02 0.  0.
        254    2    1    2    0    0  0.56576917414E+03  0.46409541950E+03 -0.21122047317E+03  0.11816746756E+04  0.90347198841E+03 0.  0.
        -24    2    4    4    0    0 -0.24016758337E+03  0.14225067617E+03 -0.49442060037E+02  0.29530708095E+03  0.82740750435E+02 0.  0.
         24    2    4    4    0    0  0.80593675751E+03  0.32184474332E+03 -0.16177841313E+03  0.88636759464E+03  0.79731812743E+02 0.  0.
         13    1    3    3    0    0 -0.45410936555E+03 -0.35835458861E+03 -0.67459677213E+03  0.88865861388E+03  0.00000000000E+00 0.  1.
        -13    1    3    3    0    0 -0.11165980859E+03 -0.10574083089E+03 -0.26274615706E+03  0.30444142165E+03  0.00000000000E+00 0. -1.
          2    1    6    6  502    0  0.41936773405E+03  0.19872994214E+03 -0.58639741507E+02  0.46776223185E+03  0.00000000000E+00 0. -1.
          3    1    5    5  503    0 -0.15667756685E+03  0.58560862404E+02 -0.57365664443E+02  0.17682775240E+03  0.00000000000E+00 0. -1.
         -4    1    5    5    0  503 -0.83490016517E+02  0.83689813770E+02  0.79236044058E+01  0.11847932855E+03  0.00000000000E+00 0.  1.
         -1    1    6    6    0  502  0.38656902347E+03  0.12311480118E+03 -0.10313867162E+03  0.41860536279E+03  0.00000000000E+00 0.  1.
<mgrwt>
<rscale>  0 0.20785469E+04</rscale>
<asrwt>0</asrwt>
<pdfrwt beam="1">  1        1 0.27102601E+00 0.20785469E+04</pdfrwt>
<pdfrwt beam="2">  1       -1 0.94323946E-01 0.20785469E+04</pdfrwt>
<totfact> 0.43366959E+00</totfact>
</mgrwt>
</event>
<event>
12    1  0.1472088E-007  0.1620052E+04  0.7818608E-02  0.8808323E-01
          1   -1    0    0  501    0  0.00000000000E+00  0.00000000000E+00  0.77943032343E+03  0.77943032343E+03  0.00000000000E+00 0. -1.
         -1   -1    0    0    0  501 -0.00000000000E+00 -0.00000000000E+00 -0.84182314635E+03  0.84182314635E+03  0.00000000000E+00 0.  1.
         23    2    1    2    0    0  0.18750892068E+03 -0.51382264925E+03 -0.11082747455E+03  0.56555165068E+03  0.91611299812E+02 0.  0.
        254    2    1    2    0    0 -0.18750892068E+03  0.51382264925E+03  0.48434651629E+02  0.10557018191E+04  0.90165797570E+03 0.  0.
        -24    2    4    4    0    0 -0.42382804606E+03  0.60802432658E+03 -0.94357428618E+02  0.75143576820E+03  0.80178519995E+02 0.  0.
         24    2    4    4    0    0  0.23631912538E+03 -0.94201677321E+02  0.14279208025E+03  0.30426605090E+03  0.86415082691E+02 0.  0.
         11    1    3    3    0    0  0.12753131631E+03 -0.27350443965E+03 -0.22613806333E+02  0.30262237092E+03  0.00000000000E+00 0.  1.
        -11    1    3    3    0    0  0.59977604371E+02 -0.24031820961E+03 -0.88213668214E+02  0.26292927976E+03  0.00000000000E+00 0. -1.
          2    1    6    6  502    0  0.14307206947E+03 -0.27884589517E+02  0.11714377703E+03  0.18700222430E+03  0.00000000000E+00 0. -1.
          1    1    5    5  503    0 -0.38555782199E+03  0.50450121558E+03 -0.85829565772E+02  0.64073631471E+03  0.00000000000E+00 0. -1.
         -2    1    5    5    0  503 -0.38270224061E+02  0.10352311099E+03 -0.85278628460E+01  0.11069945349E+03  0.00000000000E+00 0.  1.
         -1    1    6    6    0  502  0.93247055905E+02 -0.66317087804E+02  0.25648303214E+02  0.11726382659E+03  0.00000000000E+00 0.  1.
<mgrwt>
<rscale>  0 0.16200525E+04</rscale>
<asrwt>0</asrwt>
<pdfrwt beam="1">  1        1 0.11991236E+00 0.16200525E+04</pdfrwt>
<pdfrwt beam="2">  1       -1 0.12951125E+00 0.16200525E+04</pdfrwt>
<totfact> 0.11307852E+01</totfact>
</mgrwt>
</event>
<event>
12    1  0.1472088E-007  0.2321187E+04  0.7818608E-02  0.8469614E-01
         -2   -1    0    0    0  501 -0.00000000000E+00  0.00000000000E+00  0.18442569252E+04  0.18442569252E+04  0.00000000000E+00 0.  1.
          2   -1    0    0  501    0  0.00000000000E+00 -0.00000000000E+00 -0.73036285440E+03  0.73036285440E+03  0.00000000000E+00 0. -1.
         23    2    1    2    0    0 -0.37115608689E+03 -0.30096436297E+03 -0.47652396817E+03  0.68086870930E+03  0.90392026508E+02 0.  0.
        254    2    1    2    0    0  0.37115608689E+03  0.30096436297E+03  0.15904180390E+04  0.18937510703E+04  0.91023468894E+03 0.  0.
        -24    2    4    4    0    0  0.53445842410E+03 -0.75053717604E+02  0.12165798284E+04  0.13332968649E+04  0.79593866345E+02 0.  0.
         24    2    4    4    0    0 -0.16330233720E+03  0.37601808057E+03  0.37383821058E+03  0.56045420537E+03  0.79351486275E+02 0.  0.
         13    1    3    3    0    0 -0.26637183246E+03 -0.25905026671E+03 -0.38996039638E+03  0.53863726622E+03  0.00000000000E+00 0. -1.
        -13    1    3    3    0    0 -0.10478425443E+03 -0.41914096254E+02 -0.86563571786E+02  0.14223144309E+03  0.00000000000E+00 0.  1.
          4    1    6    6  502    0  0.91081675233E+01  0.20167022980E+02  0.20719001077E+02  0.30314097993E+02  0.00000000000E+00 0. -1.
          3    1    5    5  503    0  0.31105477386E+02 -0.23990825819E+02  0.10011646723E+03  0.10754728010E+03  0.00000000000E+00 0. -1.
         -4    1    5    5    0  503  0.50335294671E+03 -0.51062891785E+02  0.11164633612E+04  0.12257495848E+04  0.00000000000E+00 0.  1.
         -3    1    6    6    0  502 -0.17241050473E+03  0.35585105759E+03  0.35311920951E+03  0.53014010738E+03  0.00000000000E+00 0.  1.
<mgrwt>
<rscale>  0 0.23211866E+04</rscale>
<asrwt>0</asrwt>
<pdfrwt beam="1">  1        2 0.11236352E+00 0.23211866E+04</pdfrwt>
<pdfrwt beam="2">  1       -2 0.28373183E+00 0.23211866E+04</pdfrwt>
<totfact> 0.14038455E+00</totfact>
</mgrwt>
</event>
<event>
12    1  0.1472088E-007  0.2020399E+04  0.7818608E-02  0.8597142E-01
         -1   -1    0    0    0  501 -0.00000000000E+00  0.00000000000E+00  0.89640881239E+03  0.89640881239E+03  0.00000000000E+00 0.  1.
          1   -1    0    0  501    0  0.00000000000E+00 -0.00000000000E+00 -0.11384348644E+04  0.11384348644E+04  0.00000000000E+00 0. -1.
         23    2    1    2    0    0 -0.70742310016E+03  0.79374656549E+02 -0.48583888276E+03  0.86673449662E+03  0.91877575531E+02 0.  0.
        254    2    1    2    0    0  0.70742310016E+03 -0.79374656549E+02  0.24381283077E+03  0.11681091801E+04  0.89346884756E+03 0.  0.
        -24    2    4    4    0    0  0.87083978047E+03 -0.16538495084E+03  0.52653223031E+02  0.89161919355E+03  0.80612152954E+02 0.  0.
         24    2    4    4    0    0 -0.16341668031E+03  0.86010294291E+02  0.19115960774E+03  0.27648998659E+03  0.76170433440E+02 0.  0.
         13    1    3    3    0    0 -0.67600098130E+03  0.69641255143E+02 -0.48296103538E+03  0.83371373554E+03  0.00000000000E+00 0. -1.
        -13    1    3    3    0    0 -0.31422118866E+02  0.97334014067E+01 -0.28778473835E+01  0.33020761084E+02  0.00000000000E+00 0.  1.
          2    1    6    6  502    0 -0.13166074324E+03  0.64332868362E+02  0.99591858355E+02  0.17717733352E+03  0.00000000000E+00 0. -1.
          1    1    5    5  503    0  0.31406853282E+03 -0.76267022845E+02  0.54493185925E+02  0.32775785176E+03  0.00000000000E+00 0. -1.
         -2    1    5    5    0  503  0.55677124765E+03 -0.89117927995E+02 -0.18399628943E+01  0.56386134179E+03  0.00000000000E+00 0.  1.
         -1    1    6    6    0  502 -0.31755937064E+02  0.21677425929E+02  0.91567749382E+02  0.99312653074E+02  0.00000000000E+00 0.  1.
<mgrwt>
<rscale>  0 0.20203990E+04</rscale>
<asrwt>0</asrwt>
<pdfrwt beam="1">  1        1 0.17514383E+00 0.20203990E+04</pdfrwt>
<pdfrwt beam="2">  1       -1 0.13790905E+00 0.20203990E+04</pdfrwt>
<totfact> 0.47904315E+00</totfact>
</mgrwt>
</event>
<event>
12    1  0.1547197E-007  0.2572079E+04  0.7818608E-02  0.8377748E-01
         -2   -1    0    0    0  501 -0.00000000000E+00  0.00000000000E+00  0.63923543384E+03  0.63923543384E+03  0.00000000000E+00 0.  1.
          2   -1    0    0  501    0  0.00000000000E+00 -0.00000000000E+00 -0.25873050288E+04  0.25873050288E+04  0.00000000000E+00 0. -1.
         23    2    1    2    0    0 -0.15582589325E+03 -0.16875272615E+03  0.52705962553E+03  0.58352809577E+03  0.99769725380E+02 0.  0.
        254    2    1    2    0    0  0.15582589325E+03  0.16875272615E+03 -0.24751292205E+04  0.26430123669E+04  0.89804817340E+03 0.  0.
        -24    2    4    4    0    0  0.21171255399E+03 -0.24445123082E+03 -0.18959933096E+04  0.19250324876E+04  0.79880152552E+02 0.  0.
         24    2    4    4    0    0 -0.55886660743E+02  0.41320395697E+03 -0.57913591094E+03  0.71797987926E+03  0.78967555185E+02 0.  0.
         13    1    3    3    0    0 -0.49096501331E+01 -0.13744401024E+02  0.13460777298E+03  0.13539669778E+03  0.00000000000E+00 0. -1.
        -13    1    3    3    0    0 -0.15091624312E+03 -0.15500832513E+03  0.39245185255E+03  0.44813139799E+03  0.00000000000E+00 0.  1.
          4    1    6    6  502    0  0.54513087174E+01  0.20968368005E+02 -0.95197734575E+01  0.23664642618E+02  0.00000000000E+00 0. -1.
          1    1    5    5  503    0  0.18042786632E+02 -0.43925810364E+02 -0.44289648470E+03  0.44543497295E+03  0.00000000000E+00 0. -1.
         -2    1    5    5    0  503  0.19366976736E+03 -0.20052542045E+03 -0.14530968249E+04  0.14795975147E+04  0.00000000000E+00 0.  1.
         -3    1    6    6    0  502 -0.61337969461E+02  0.39223558896E+03 -0.56961613749E+03  0.69431523664E+03  0.00000000000E+00 0.  1.
<mgrwt>
<rscale>  0 0.25720786E+04</rscale>
<asrwt>0</asrwt>
<pdfrwt beam="1">  1        2 0.39804694E+00 0.25720786E+04</pdfrwt>
<pdfrwt beam="2">  1       -2 0.98343910E-01 0.25720786E+04</pdfrwt>
<totfact> 0.23580744E+00</totfact>
</mgrwt>
</event>
<event>
12    1  0.1472088E-007  0.1303071E+04  0.7818608E-02  0.9027134E-01
          1   -1    0    0  501    0  0.00000000000E+00  0.00000000000E+00  0.11455306960E+04  0.11455306960E+04  0.00000000000E+00 0. -1.
         -1   -1    0    0    0  501 -0.00000000000E+00 -0.00000000000E+00 -0.37056916988E+03  0.37056916988E+03  0.00000000000E+00 0.  1.
         23    2    1    2    0    0 -0.29324076243E+03 -0.84460266675E+02  0.33925440919E+03  0.46539108002E+03  0.91496567210E+02 0.  0.
        254    2    1    2    0    0  0.29324076243E+03  0.84460266675E+02  0.43570711695E+03  0.10507087859E+04  0.90610406665E+03 0.  0.
        -24    2    4    4    0    0  0.21371732434E+02 -0.39251175545E+03  0.18479501333E+03  0.44122056093E+03  0.77486497670E+02 0.  0.
         24    2    4    4    0    0  0.27186902999E+03  0.47697202213E+03  0.25091210362E+03  0.60948822496E+03  0.84284834092E+02 0.  0.
         13    1    3    3    0    0 -0.14883850170E+03 -0.38027048562E+02  0.10413278239E+03  0.18558715575E+03  0.00000000000E+00 0. -1.
        -13    1    3    3    0    0 -0.14440226072E+03 -0.46433218113E+02  0.23512162680E+03  0.27980392427E+03  0.00000000000E+00 0.  1.
          4    1    6    6  502    0  0.10080398048E+03  0.22798909878E+03  0.76917749449E+02  0.26087700516E+03  0.00000000000E+00 0. -1.
          1    1    5    5  503    0  0.40457148884E+02 -0.24321733390E+03  0.14295202735E+03  0.28500304302E+03  0.00000000000E+00 0. -1.
         -2    1    5    5    0  503 -0.19085416450E+02 -0.14929442155E+03  0.41842985981E+02  0.15621751791E+03  0.00000000000E+00 0.  1.
         -3    1    6    6    0  502  0.17106504951E+03  0.24898292335E+03  0.17399435417E+03  0.34861121980E+03  0.00000000000E+00 0.  1.
<mgrwt>
<rscale>  0 0.13030708E+04</rscale>
<asrwt>0</asrwt>
<pdfrwt beam="1">  1        1 0.17623549E+00 0.13030708E+04</pdfrwt>
<pdfrwt beam="2">  1       -1 0.57010642E-01 0.13030708E+04</pdfrwt>
<totfact> 0.35863997E+01</totfact>
</mgrwt>
</event>
<event>
12    1  0.1472088E-007  0.2271854E+04  0.7818608E-02  0.8489102E-01
          1   -1    0    0  501    0  0.00000000000E+00  0.00000000000E+00  0.16241659724E+04  0.16241659724E+04  0.00000000000E+00 0.  1.
         -1   -1    0    0    0  501 -0.00000000000E+00 -0.00000000000E+00 -0.79445684146E+03  0.79445684146E+03  0.00000000000E+00 0. -1.
         23    2    1    2    0    0  0.34855835747E+03 -0.84093418461E+03  0.65993941166E+03  0.11280903369E+04  0.91676331648E+02 0.  0.
        254    2    1    2    0    0 -0.34855835747E+03  0.84093418461E+03  0.16976971932E+03  0.12905324770E+04  0.89888213083E+03 0.  0.
        -24    2    4    4    0    0  0.16662544472E+03  0.69865229970E+03 -0.28527933323E+01  0.72281588932E+03  0.81090053138E+02 0.  0.
         24    2    4    4    0    0 -0.51518380219E+03  0.14228188491E+03  0.17262251266E+03  0.56771658766E+03  0.82735163113E+02 0.  0.
         13    1    3    3    0    0  0.25168228554E+02 -0.92684798751E+02  0.40222178404E+02  0.10412365381E+03  0.00000000000E+00 0. -1.
        -13    1    3    3    0    0  0.32339012892E+03 -0.74824938586E+03  0.61971723325E+03  0.10239666831E+04  0.00000000000E+00 0.  1.
          4    1    6    6  502    0 -0.30317925975E+03  0.11522746355E+03  0.75765491995E+02  0.33306972494E+03  0.00000000000E+00 0. -1.
          3    1    5    5  503    0  0.90946690938E+01  0.28380661925E+02  0.16390972139E+02  0.34012335187E+02  0.00000000000E+00 0. -1.
         -4    1    5    5    0  503  0.15753077562E+03  0.67027163777E+03 -0.19243765471E+02  0.68880355413E+03  0.00000000000E+00 0.  1.
         -3    1    6    6    0  502 -0.21200454244E+03  0.27054421369E+02  0.96857020661E+02  0.23464686272E+03  0.00000000000E+00 0.  1.
<mgrwt>
<rscale>  0 0.22718537E+04</rscale>
<asrwt>0</asrwt>
<pdfrwt beam="1">  1        1 0.24987169E+00 0.22718537E+04</pdfrwt>
<pdfrwt beam="2">  1       -1 0.12222413E+00 0.22718537E+04</pdfrwt>
<totfact> 0.28794141E+00</totfact>
</mgrwt>
</event>
<event>
12    1  0.1472088E-007  0.1893416E+04  0.7818608E-02  0.8658141E-01
         -2   -1    0    0    0  501 -0.00000000000E+00  0.00000000000E+00  0.40344511508E+03  0.40344511508E+03  0.00000000000E+00 0.  1.
          2   -1    0    0  501    0  0.00000000000E+00 -0.00000000000E+00 -0.22215059052E+04  0.22215059052E+04  0.00000000000E+00 0. -1.
         23    2    1    2    0    0 -0.51192919771E+03 -0.51266710830E+03 -0.65336408278E+03  0.97971234505E+03  0.89736207742E+02 0.  0.
        254    2    1    2    0    0  0.51192919771E+03  0.51266710830E+03 -0.11646967073E+04  0.16452386752E+04  0.90851131583E+03 0.  0.
        -24    2    4    4    0    0  0.59893295354E+03  0.54908769881E+03 -0.12483477508E+04  0.14916166114E+04  0.79561452380E+02 0.  0.
         24    2    4    4    0    0 -0.87003755831E+02 -0.36420590519E+02  0.83651043432E+02  0.15362206384E+03  0.87784557228E+02 0.  0.
         13    1    3    3    0    0 -0.45131273067E+03 -0.46356948471E+03 -0.61557330593E+03  0.89303434592E+03  0.00000000000E+00 0.  1.
        -13    1    3    3    0    0 -0.60616467038E+02 -0.49097623584E+02 -0.37790776846E+02  0.86677999126E+02  0.00000000000E+00 0. -1.
          4    1    6    6  502    0 -0.82031829639E+02 -0.32326662951E+02  0.20996174896E+02  0.90637043043E+02  0.00000000000E+00 0. -1.
          1    1    5    5  503    0  0.45552143362E+03  0.39125129288E+03 -0.86603939048E+03  0.10538508322E+04  0.00000000000E+00 0. -1.
         -2    1    5    5    0  503  0.14341151992E+03  0.15783640594E+03 -0.38230836029E+03  0.43776577920E+03  0.00000000000E+00 0.  1.
         -3    1    6    6    0  502 -0.49719261921E+01 -0.40939275683E+01  0.62654868536E+02  0.62985020793E+02  0.00000000000E+00 0.  1.
<mgrwt>
<rscale>  0 0.18934156E+04</rscale>
<asrwt>0</asrwt>
<pdfrwt beam="1">  1        2 0.34177014E+00 0.18934156E+04</pdfrwt>
<pdfrwt beam="2">  1       -2 0.62068479E-01 0.18934156E+04</pdfrwt>
<totfact> 0.11342651E+01</totfact>
</mgrwt>
</event>
<event>
12    1  0.1472088E-007  0.1444979E+04  0.7818608E-02  0.8921889E-01
          2   -1    0    0  501    0  0.00000000000E+00  0.00000000000E+00  0.11011671891E+04  0.11011671891E+04  0.00000000000E+00 0. -1.
         -2   -1    0    0    0  501 -0.00000000000E+00 -0.00000000000E+00 -0.47403429622E+03  0.47403429622E+03  0.00000000000E+00 0.  1.
         23    2    1    2    0    0 -0.22231489959E+03  0.83453884382E+02 -0.20359575574E+03  0.32605736919E+03  0.92052761226E+02 0.  0.
        254    2    1    2    0    0  0.22231489959E+03 -0.83453884382E+02  0.83072864857E+03  0.12491441161E+04  0.90214326455E+03 0.  0.
        -24    2    4    4    0    0  0.86664895575E+02 -0.40654585273E+03  0.77867853619E+03  0.88629463807E+03  0.79922389018E+02 0.  0.
         24    2    4    4    0    0  0.13565000402E+03  0.32309196834E+03  0.52050112384E+02  0.36284947800E+03  0.78493221939E+02 0.  0.
         13    1    3    3    0    0 -0.51153567317E+02 -0.12535897381E+02 -0.74219274602E+02  0.91007345280E+02  0.00000000000E+00 0. -1.
        -13    1    3    3    0    0 -0.17116133228E+03  0.95989781763E+02 -0.12937648114E+03  0.23505002391E+03  0.00000000000E+00 0.  1.
          4    1    6    6  502    0  0.97738929523E+02  0.13773678904E+03  0.38153190587E+02  0.17314729958E+03  0.00000000000E+00 0. -1.
          3    1    5    5  503    0  0.67461736152E+02 -0.32949607981E+03  0.68768252017E+03  0.76552335105E+03  0.00000000000E+00 0. -1.
         -2    1    5    5    0  503  0.19203159423E+02 -0.77049772920E+02  0.90996016015E+02  0.12077128702E+03  0.00000000000E+00 0.  1.
         -1    1    6    6    0  502  0.37911074495E+02  0.18535517930E+03  0.13896921797E+02  0.18970217842E+03  0.00000000000E+00 0.  1.
<mgrwt>
<rscale>  0 0.14449789E+04</rscale>
<asrwt>0</asrwt>
<pdfrwt beam="1">  1        2 0.16941034E+00 0.14449789E+04</pdfrwt>
<pdfrwt beam="2">  1       -2 0.72928354E-01 0.14449789E+04</pdfrwt>
<totfact> 0.35853901E+01</totfact>
</mgrwt>
</event>
<event>
12    1  0.1472088E-007  0.1555242E+04  0.7818608E-02  0.8848526E-01
         -2   -1    0    0    0  501 -0.00000000000E+00  0.00000000000E+00  0.14959702978E+03  0.14959702978E+03  0.00000000000E+00 0.  1.
          2   -1    0    0  501    0  0.00000000000E+00 -0.00000000000E+00 -0.40421562564E+04  0.40421562564E+04  0.00000000000E+00 0. -1.
         23    2    1    2    0    0 -0.24439304430E+03 -0.17234371974E+02 -0.24882617231E+04  0.25019524957E+04  0.91076366612E+02 0.  0.
        254    2    1    2    0    0  0.24439304430E+03  0.17234371974E+02 -0.14042975035E+04  0.16898007905E+04  0.90738649393E+03 0.  0.
        -24    2    4    4    0    0  0.50489267097E+03  0.25910239859E+03 -0.91816126363E+03  0.10821613878E+04  0.77475809120E+02 0.  0.
         24    2    4    4    0    0 -0.26049962666E+03 -0.24186802661E+03 -0.48613623988E+03  0.60763940269E+03  0.80851729599E+02 0.  0.
         13    1    3    3    0    0 -0.15606802015E+03 -0.97049443260E+01 -0.11254796471E+04  0.11362903893E+04  0.00000000000E+00 0. -1.
        -13    1    3    3    0    0 -0.88325024155E+02 -0.75294276478E+01 -0.13627820760E+04  0.13656621064E+04  0.00000000000E+00 0.  1.
          4    1    6    6  502    0 -0.17616003929E+03 -0.19289384609E+03 -0.30227420209E+03  0.39951231339E+03  0.00000000000E+00 0. -1.
          1    1    5    5  503    0  0.49232420551E+03  0.26292244184E+03 -0.88277059004E+03  0.10444114364E+04  0.00000000000E+00 0. -1.
         -2    1    5    5    0  503  0.12568465456E+02 -0.38200432558E+01 -0.35390673589E+02  0.37749951410E+02  0.00000000000E+00 0.  1.
         -3    1    6    6    0  502 -0.84339587368E+02 -0.48974180519E+02 -0.18386203780E+03  0.20812708929E+03  0.00000000000E+00 0.  1.
<mgrwt>
<rscale>  0 0.15552422E+04</rscale>
<asrwt>0</asrwt>
<pdfrwt beam="1">  1        2 0.62187016E+00 0.15552422E+04</pdfrwt>
<pdfrwt beam="2">  1       -2 0.23014929E-01 0.15552422E+04</pdfrwt>
<totfact> 0.51810982E+00</totfact>
</mgrwt>
</event>
<event>
12    1  0.1472088E-007  0.1173308E+04  0.7818608E-02  0.9136546E-01
         -1   -1    0    0    0  501 -0.00000000000E+00  0.00000000000E+00  0.10812849608E+04  0.10812849608E+04  0.00000000000E+00 0.  1.
          1   -1    0    0  501    0  0.00000000000E+00 -0.00000000000E+00 -0.31829067224E+03  0.31829067224E+03  0.00000000000E+00 0. -1.
         23    2    1    2    0    0  0.70664738944E+02  0.12192858094E+03  0.37560370641E+03  0.41113804565E+03  0.89979242790E+02 0.  0.
        254    2    1    2    0    0 -0.70664738944E+02 -0.12192858094E+03  0.38739058213E+03  0.98843758738E+03  0.89837481979E+03 0.  0.
        -24    2    4    4    0    0 -0.28312482947E+03  0.24248930696E+03 -0.40367552458E+02  0.38243914087E+03  0.75295578376E+02 0.  0.
         24    2    4    4    0    0  0.21246009053E+03 -0.36441788790E+03  0.42775813459E+03  0.60599844651E+03  0.79482126137E+02 0.  0.
         13    1    3    3    0    0 -0.62853751862E+01  0.11387200862E+02  0.13316307626E+03  0.13379678309E+03  0.00000000000E+00 0. -1.
        -13    1    3    3    0    0  0.76950114131E+02  0.11054138008E+03  0.24244063014E+03  0.27734126256E+03  0.00000000000E+00 0.  1.
          4    1    6    6  502    0  0.17203914364E+02 -0.21234734617E+02  0.62103139791E+02  0.67850487070E+02  0.00000000000E+00 0. -1.
          1    1    5    5  503    0 -0.22680801382E+02 -0.20757967416E+01 -0.57759609095E+01  0.23496582898E+02  0.00000000000E+00 0. -1.
         -2    1    5    5    0  503 -0.26044402809E+03  0.24456510370E+03 -0.34591591549E+02  0.35894255797E+03  0.00000000000E+00 0.  1.
         -3    1    6    6    0  502  0.19525617616E+03 -0.34318315329E+03  0.36565499480E+03  0.53814795944E+03  0.00000000000E+00 0.  1.
<mgrwt>
<rscale>  0 0.11733080E+04</rscale>
<asrwt>0</asrwt>
<pdfrwt beam="1">  1        1 0.48967796E-01 0.11733080E+04</pdfrwt>
<pdfrwt beam="2">  1       -1 0.16635153E+00 0.11733080E+04</pdfrwt>
<totfact> 0.21067501E+01</totfact>
</mgrwt>
</event>
<event>
12    1  0.1472088E-007  0.1565439E+04  0.7818608E-02  0.8842066E-01
         -2   -1    0    0    0  501 -0.00000000000E+00  0.00000000000E+00  0.38120032264E+03  0.38120032264E+03  0.00000000000E+00 0.  1.
          2   -1    0    0  501    0  0.00000000000E+00 -0.00000000000E+00 -0.16071601903E+04  0.16071601903E+04  0.00000000000E+00 0. -1.
         23    2    1    2    0    0  0.35058284190E+03  0.31893147892E+03 -0.11885169991E+03  0.49702940626E+03  0.91032339491E+02 0.  0.
        254    2    1    2    0    0 -0.35058284190E+03 -0.31893147892E+03 -0.11071081678E+04  0.14913311067E+04  0.87963308111E+03 0.  0.
        -24    2    4    4    0    0  0.94096214663E+02  0.21889209100E+03 -0.11666033685E+03  0.27704954015E+03  0.79868444245E+02 0.  0.
         24    2    4    4    0    0 -0.44467905657E+03 -0.53782356992E+03 -0.99044783092E+03  0.12142815665E+04  0.80617376422E+02 0.  0.
         13    1    3    3    0    0  0.55577326227E+02  0.88946737209E+02 -0.11533432498E+01  0.10488894819E+03  0.00000000000E+00 0. -1.
        -13    1    3    3    0    0  0.29500551568E+03  0.22998474171E+03 -0.11769835666E+03  0.39214045808E+03  0.00000000000E+00 0.  1.
          2    1    6    6  502    0 -0.20654475996E+03 -0.29274064196E+03 -0.55799375425E+03  0.66310998417E+03  0.00000000000E+00 0. -1.
          1    1    5    5  503    0  0.68234707636E+02  0.73692856034E+02 -0.69777915877E+02  0.12229296750E+03  0.00000000000E+00 0. -1.
         -2    1    5    5    0  503  0.25861507027E+02  0.14519923497E+03 -0.46882420973E+02  0.15475657265E+03  0.00000000000E+00 0.  1.
         -1    1    6    6    0  502 -0.23813429660E+03 -0.24508292796E+03 -0.43245407666E+03  0.55117158238E+03  0.00000000000E+00 0.  1.
<mgrwt>
<rscale>  0 0.15654392E+04</rscale>
<asrwt>0</asrwt>
<pdfrwt beam="1">  1        2 0.24725541E+00 0.15654392E+04</pdfrwt>
<pdfrwt beam="2">  1       -2 0.58646203E-01 0.15654392E+04</pdfrwt>
<totfact> 0.28869158E+01</totfact>
</mgrwt>
</event>
<event>
12    1  0.1472088E-007  0.1378917E+04  0.7818608E-02  0.8969223E-01
          1   -1    0    0  501    0  0.00000000000E+00  0.00000000000E+00  0.18891733006E+04  0.18891733006E+04  0.00000000000E+00 0. -1.
         -1   -1    0    0    0  501 -0.00000000000E+00 -0.00000000000E+00 -0.25161950567E+03  0.25161950567E+03  0.00000000000E+00 0.  1.
         23    2    1    2    0    0 -0.60350013267E+02  0.23975529627E+03  0.10423509652E+02  0.26343418768E+03  0.90355937789E+02 0.  0.
        254    2    1    2    0    0  0.60350013267E+02 -0.23975529627E+03  0.16271302853E+04  0.18773586186E+04  0.90321519657E+03 0.  0.
        -24    2    4    4    0    0 -0.38401659506E+03 -0.26374585061E+03  0.68513732540E+03  0.83237624828E+03  0.80040271402E+02 0.  0.
         24    2    4    4    0    0  0.44436660833E+03  0.23990554332E+02  0.94199295986E+03  0.10449823703E+04  0.81241544170E+02 0.  0.
         13    1    3    3    0    0  0.83664627057E+01  0.31807083531E+02 -0.25348860576E+02  0.41524125439E+02  0.00000000000E+00 0. -1.
        -13    1    3    3    0    0 -0.68716475973E+02  0.20794821274E+03  0.35772370229E+02  0.22191006224E+03  0.00000000000E+00 0.  1.
          2    1    6    6  502    0  0.40773923303E+03  0.17210644393E+02  0.90362548988E+03  0.99150719331E+03  0.00000000000E+00 0. -1.
          3    1    5    5  503    0 -0.25561099727E+03 -0.19139545347E+03  0.40413345617E+03  0.51506606560E+03  0.00000000000E+00 0. -1.
         -4    1    5    5    0  503 -0.12840559779E+03 -0.72350397138E+02  0.28100386923E+03  0.31731018268E+03  0.00000000000E+00 0.  1.
         -1    1    6    6    0  502  0.36627375302E+02  0.67799099393E+01  0.38367469982E+02  0.53475176981E+02  0.00000000000E+00 0.  1.
<mgrwt>
<rscale>  0 0.13789168E+04</rscale>
<asrwt>0</asrwt>
<pdfrwt beam="1">  1        1 0.29064204E+00 0.13789168E+04</pdfrwt>
<pdfrwt beam="2">  1       -1 0.38710694E-01 0.13789168E+04</pdfrwt>
<totfact> 0.22394508E+01</totfact>
</mgrwt>
</event>
<event>
12    1  0.1472088E-007  0.2032889E+04  0.7818608E-02  0.8591397E-01
          1   -1    0    0  501    0  0.00000000000E+00  0.00000000000E+00  0.11297051310E+04  0.11297051310E+04  0.00000000000E+00 0. -1.
         -1   -1    0    0    0  501 -0.00000000000E+00 -0.00000000000E+00 -0.91453900843E+03  0.91453900843E+03  0.00000000000E+00 0.  1.
         23    2    1    2    0    0  0.32088587976E+03  0.98524397302E+01  0.83599840447E+03  0.90013181501E+03  0.90989745178E+02 0.  0.
        254    2    1    2    0    0 -0.32088587976E+03 -0.98524397302E+01 -0.62083228189E+03  0.11441123244E+04  0.90581205019E+03 0.  0.
        -24    2    4    4    0    0 -0.13188627084E+03 -0.44504026667E+03 -0.38153245599E+03  0.60619760240E+03  0.80334866612E+02 0.  0.
         24    2    4    4    0    0 -0.18899960893E+03  0.43518782694E+03 -0.23929982590E+03  0.53791472202E+03  0.83537683743E+02 0.  0.
         11    1    3    3    0    0  0.71623283421E+02 -0.19441980996E+02  0.11664675593E+03  0.13825466004E+03  0.00000000000E+00 0.  1.
        -11    1    3    3    0    0  0.24926259634E+03  0.29294420726E+02  0.71935164854E+03  0.76187715498E+03  0.00000000000E+00 0. -1.
          4    1    6    6  502    0 -0.86503488427E+02  0.16259732159E+03 -0.50958285590E+02  0.19109549803E+03  0.00000000000E+00 0. -1.
          1    1    5    5  503    0 -0.13343474967E+03 -0.41705548986E+03 -0.37698338962E+03  0.57780324514E+03  0.00000000000E+00 0. -1.
         -2    1    5    5    0  503  0.15484788332E+01 -0.27984776804E+02 -0.45490663692E+01  0.28394357262E+02  0.00000000000E+00 0.  1.
         -1    1    6    6    0  502 -0.10249612050E+03  0.27259050535E+03 -0.18834154031E+03  0.34681922399E+03  0.00000000000E+00 0.  1.
<mgrwt>
<rscale>  0 0.20328890E+04</rscale>
<asrwt>0</asrwt>
<pdfrwt beam="1">  1        1 0.17380079E+00 0.20328890E+04</pdfrwt>
<pdfrwt beam="2">  1       -1 0.14069831E+00 0.20328890E+04</pdfrwt>
<totfact> 0.46098958E+00</totfact>
</mgrwt>
</event>
<event>
12    1  0.1472088E-007  0.1668269E+04  0.7818608E-02  0.8779671E-01
         -1   -1    0    0    0  501 -0.00000000000E+00  0.00000000000E+00  0.62672381206E+03  0.62672381206E+03  0.00000000000E+00 0.  1.
          1   -1    0    0  501    0  0.00000000000E+00 -0.00000000000E+00 -0.11101870716E+04  0.11101870716E+04  0.00000000000E+00 0. -1.
         23    2    1    2    0    0  0.31913031016E+03 -0.46455730867E+03 -0.23683826835E+03  0.61814197610E+03  0.91375540295E+02 0.  0.
        254    2    1    2    0    0 -0.31913031016E+03  0.46455730867E+03 -0.24662499118E+03  0.11187689076E+04  0.93443155680E+03 0.  0.
        -24    2    4    4    0    0  0.23399876160E+03  0.28167215967E+03 -0.36071900988E+03  0.52005185779E+03  0.79000662928E+02 0.  0.
         24    2    4    4    0    0 -0.55312907176E+03  0.18288514900E+03  0.11409401870E+03  0.59871704976E+03  0.77755468155E+02 0.  0.
         11    1    3    3    0    0  0.29318729864E+03 -0.40313511240E+03 -0.17826267701E+03  0.52939049193E+03  0.00000000000E+00 0. -1.
        -11    1    3    3    0    0  0.25943011520E+02 -0.61422196270E+02 -0.58575591347E+02  0.88751484174E+02  0.00000000000E+00 0.  1.
          4    1    6    6  502    0 -0.54958192271E+02  0.39965350290E+02  0.27304895541E+02  0.73233799860E+02  0.00000000000E+00 0. -1.
          3    1    5    5  503    0  0.22415553378E+02  0.99712853597E+01 -0.51680308777E+01  0.25071739232E+02  0.00000000000E+00 0. -1.
         -4    1    5    5    0  503  0.21158320822E+03  0.27170087431E+03 -0.35555097901E+03  0.49498011856E+03  0.00000000000E+00 0.  1.
         -3    1    6    6    0  502 -0.49817087949E+03  0.14291979871E+03  0.86789123158E+02  0.52548324990E+03  0.00000000000E+00 0.  1.
<mgrwt>
<rscale>  0 0.16682694E+04</rscale>
<asrwt>0</asrwt>
<pdfrwt beam="1">  1        1 0.17079801E+00 0.16682694E+04</pdfrwt>
<pdfrwt beam="2">  1       -1 0.96419048E-01 0.16682694E+04</pdfrwt>
<totfact> 0.12310048E+01</totfact>
</mgrwt>
</event>
<event>
12    1  0.1472088E-007  0.1309019E+04  0.7818608E-02  0.9022444E-01
         -3   -1    0    0    0  501 -0.00000000000E+00  0.00000000000E+00  0.81602985857E+03  0.81602985857E+03  0.00000000000E+00 0.  1.
          3   -1    0    0  501    0  0.00000000000E+00 -0.00000000000E+00 -0.52495924131E+03  0.52495924131E+03  0.00000000000E+00 0. -1.
         23    2    1    2    0    0  0.29829196758E+03 -0.12414351777E+03 -0.17658144460E+02  0.33521142317E+03  0.87550997884E+02 0.  0.
        254    2    1    2    0    0 -0.29829196758E+03  0.12414351777E+03  0.30872876171E+03  0.10057776767E+04  0.90104693314E+03 0.  0.
        -24    2    4    4    0    0  0.15813429926E+03 -0.28677509212E+03  0.92476976585E+02  0.34971504692E+03  0.80636299419E+02 0.  0.
         24    2    4    4    0    0 -0.45642626684E+03  0.41091860989E+03  0.21625178513E+03  0.65606262978E+03  0.80463026340E+02 0.  0.
         11    1    3    3    0    0  0.87945062411E+02 -0.19322708521E+02  0.30962028271E+02  0.95217373738E+02  0.00000000000E+00 0.  1.
        -11    1    3    3    0    0  0.21034690517E+03 -0.10482080925E+03 -0.48620172731E+02  0.23999404943E+03  0.00000000000E+00 0. -1.
          4    1    6    6  502    0 -0.29158677737E+03  0.23990524836E+03  0.94912259630E+02  0.38934010063E+03  0.00000000000E+00 0. -1.
          1    1    5    5  503    0  0.93277660561E+02 -0.23934558037E+03  0.68197825822E+02  0.26577805073E+03  0.00000000000E+00 0. -1.
         -2    1    5    5    0  503  0.64856638701E+02 -0.47429511745E+02  0.24279150763E+02  0.83936996192E+02  0.00000000000E+00 0.  1.
         -3    1    6    6    0  502 -0.16483948947E+03  0.17101336153E+03  0.12133952550E+03  0.26672252915E+03  0.00000000000E+00 0.  1.
<mgrwt>
<rscale>  0 0.13090186E+04</rscale>
<asrwt>0</asrwt>
<pdfrwt beam="1">  1        3 0.80762960E-01 0.13090186E+04</pdfrwt>
<pdfrwt beam="2">  1       -3 0.12554306E+00 0.13090186E+04</pdfrwt>
<totfact> 0.18503775E+00</totfact>
</mgrwt>
</event>
<event>
12    1  0.1472088E-007  0.1212425E+04  0.7818608E-02  0.9102050E-01
          2   -1    0    0  501    0  0.00000000000E+00  0.00000000000E+00  0.12266068969E+04  0.12266068969E+04  0.00000000000E+00 0. -1.
         -2   -1    0    0    0  501 -0.00000000000E+00 -0.00000000000E+00 -0.29960200034E+03  0.29960200034E+03  0.00000000000E+00 0.  1.
         23    2    1    2    0    0 -0.14126623387E+03  0.18931612045E+03  0.15193185948E+03  0.29483415864E+03  0.89705902146E+02 0.  0.
        254    2    1    2    0    0  0.14126623387E+03 -0.18931612045E+03  0.77507303705E+03  0.12313747386E+04  0.92722639724E+03 0.  0.
        -24    2    4    4    0    0  0.10029942450E+03 -0.24041100117E+03  0.97168538512E+03  0.10091124281E+04  0.79233710027E+02 0.  0.
         24    2    4    4    0    0  0.40966809376E+02  0.51094880716E+02 -0.19661234807E+03  0.22226231050E+03  0.80343966494E+02 0.  0.
         11    1    3    3    0    0 -0.36638459838E+00  0.36964875435E+01  0.32985222993E+02  0.33193722204E+02  0.00000000000E+00 0. -1.
        -11    1    3    3    0    0 -0.14089984927E+03  0.18561963291E+03  0.11894663648E+03  0.26164043643E+03  0.00000000000E+00 0.  1.
          4    1    6    6  502    0 -0.11857221593E+02  0.48408995015E+02 -0.11021694603E+03  0.12096197623E+03  0.00000000000E+00 0. -1.
          1    1    5    5  503    0  0.47947943464E+02 -0.18083471685E+03  0.76980901011E+03  0.79221595045E+03  0.00000000000E+00 0. -1.
         -2    1    5    5    0  503  0.52351481034E+02 -0.59576284315E+02  0.20187637501E+03  0.21689647763E+03  0.00000000000E+00 0.  1.
         -3    1    6    6    0  502  0.52824030969E+02  0.26858857012E+01 -0.86395402036E+02  0.10130033427E+03  0.00000000000E+00 0.  1.
<mgrwt>
<rscale>  0 0.12124255E+04</rscale>
<asrwt>0</asrwt>
<pdfrwt beam="1">  1        2 0.18870875E+00 0.12124255E+04</pdfrwt>
<pdfrwt beam="2">  1       -2 0.46092616E-01 0.12124255E+04</pdfrwt>
<totfact> 0.80320947E+01</totfact>
</mgrwt>
</event>
<event>
12    1  0.1472088E-007  0.1455000E+04  0.7818608E-02  0.8914941E-01
         -1   -1    0    0    0  501 -0.00000000000E+00  0.00000000000E+00  0.59652329303E+03  0.59652329303E+03  0.00000000000E+00 0.  1.
          1   -1    0    0  501    0  0.00000000000E+00 -0.00000000000E+00 -0.88723490978E+03  0.88723490978E+03  0.00000000000E+00 0. -1.
         23    2    1    2    0    0  0.41318692827E+03  0.12757187292E+03  0.67137399942E+01  0.44161649167E+03  0.89342212601E+02 0.  0.
        254    2    1    2    0    0 -0.41318692827E+03 -0.12757187292E+03 -0.29742535674E+03  0.10421417111E+04  0.90033298441E+03 0.  0.
        -24    2    4    4    0    0 -0.16497509499E+03 -0.31908633197E+03 -0.52899574208E+03  0.64427252321E+03  0.78852519301E+02 0.  0.
         24    2    4    4    0    0 -0.24821183328E+03  0.19151445904E+03  0.23157038534E+03  0.39786918793E+03  0.79925872759E+02 0.  0.
         11    1    3    3    0    0  0.10719593822E+03  0.72862884913E+02  0.16234353007E+02  0.13062742203E+03  0.00000000000E+00 0. -1.
        -11    1    3    3    0    0  0.30599099005E+03  0.54708988011E+02 -0.95206130126E+01  0.31098906964E+03  0.00000000000E+00 0.  1.
          2    1    6    6  502    0 -0.18943443768E+03  0.14440319712E+03  0.21469656462E+03  0.32067476418E+03  0.00000000000E+00 0. -1.
          3    1    5    5  503    0 -0.16932397732E+03 -0.29785211804E+03 -0.51470518862E+03  0.61831054067E+03  0.00000000000E+00 0. -1.
         -4    1    5    5    0  503  0.43488823279E+01 -0.21234213932E+02 -0.14290553462E+02  0.25961982533E+02  0.00000000000E+00 0.  1.
         -1    1    6    6    0  502 -0.58777395604E+02  0.47111261920E+02  0.16873820716E+02  0.77194423758E+02  0.00000000000E+00 0.  1.
<mgrwt>
<rscale>  0 0.14550001E+04</rscale>
<asrwt>0</asrwt>
<pdfrwt beam="1">  1        1 0.13649768E+00 0.14550001E+04</pdfrwt>
<pdfrwt beam="2">  1       -1 0.91772815E-01 0.14550001E+04</pdfrwt>
<totfact> 0.20944679E+01</totfact>
</mgrwt>
</event>
<event>
12    1  0.1472088E-007  0.2391194E+04  0.7818608E-02  0.8442808E-01
          2   -1    0    0  501    0  0.00000000000E+00  0.00000000000E+00  0.21798680934E+04  0.21798680934E+04  0.00000000000E+00 0. -1.
         -2   -1    0    0    0  501 -0.00000000000E+00 -0.00000000000E+00 -0.65575176842E+03  0.65575176842E+03  0.00000000000E+00 0.  1.
         23    2    1    2    0    0 -0.27532342117E+03  0.57313363451E+03  0.16276929840E+04  0.17498576579E+04  0.91281013514E+02 0.  0.
        254    2    1    2    0    0  0.27532342117E+03 -0.57313363451E+03 -0.10357665908E+03  0.10857622039E+04  0.87399444495E+03 0.  0.
        -24    2    4    4    0    0  0.63627799045E+02  0.86242180382E+02  0.26552545772E+03  0.29733993973E+03  0.80131520465E+02 0.  0.
         24    2    4    4    0    0  0.21169562212E+03 -0.65937581489E+03 -0.36910211680E+03  0.78842226414E+03  0.76038097581E+02 0.  0.
         11    1    3    3    0    0  0.59152755066E+01  0.39813234009E+01  0.25369583540E+02  0.26352555651E+02  0.00000000000E+00 0.  1.
        -11    1    3    3    0    0 -0.28123869668E+03  0.56915231111E+03  0.16023234005E+04  0.17235051022E+04  0.00000000000E+00 0. -1.
          2    1    6    6  502    0  0.20877819776E+02 -0.19111618262E+02 -0.19635762438E+02  0.34448519238E+02  0.00000000000E+00 0. -1.
          3    1    5    5  503    0  0.16411593499E+02 -0.11139227256E+02  0.81237327337E+02  0.83623717556E+02  0.00000000000E+00 0. -1.
         -4    1    5    5    0  503  0.47216205546E+02  0.97381407638E+02  0.18428813038E+03  0.21371622217E+03  0.00000000000E+00 0.  1.
         -1    1    6    6    0  502  0.19081780235E+03 -0.64026419663E+03 -0.34946635436E+03  0.75397374491E+03  0.00000000000E+00 0.  1.
<mgrwt>
<rscale>  0 0.23911941E+04</rscale>
<asrwt>0</asrwt>
<pdfrwt beam="1">  1        2 0.33536432E+00 0.23911941E+04</pdfrwt>
<pdfrwt beam="2">  1       -2 0.10088489E+00 0.23911941E+04</pdfrwt>
<totfact> 0.38575509E+00</totfact>
</mgrwt>
</event>
<event>
12    1  0.1472088E-007  0.2313122E+04  0.7818608E-02  0.8472765E-01
         -1   -1    0    0    0  501 -0.00000000000E+00  0.00000000000E+00  0.10292443812E+04  0.10292443812E+04  0.00000000000E+00 0.  1.
          1   -1    0    0  501    0  0.00000000000E+00 -0.00000000000E+00 -0.12996268996E+04  0.12996268996E+04  0.00000000000E+00 0. -1.
         23    2    1    2    0    0 -0.45815296507E+03 -0.35515478777E+03 -0.90794829752E+03  0.10810066095E+04  0.90366565080E+02 0.  0.
        254    2    1    2    0    0  0.45815296507E+03  0.35515478777E+03  0.63756577919E+03  0.12478646713E+04  0.90257246385E+03 0.  0.
        -24    2    4    4    0    0 -0.42061564795E+01 -0.33197756575E+02 -0.19654228702E+03  0.21426429477E+03  0.78489073353E+02 0.  0.
         24    2    4    4    0    0  0.46235912155E+03  0.38835254435E+03  0.83410806621E+03  0.10336003766E+04  0.89441692382E+02 0.  0.
         11    1    3    3    0    0 -0.45801234136E+03 -0.35730557989E+03 -0.90887949946E+03  0.10786586702E+04  0.00000000000E+00 0. -1.
        -11    1    3    3    0    0 -0.14062371327E+00  0.21507921187E+01  0.93120194628E+00  0.23479392733E+01  0.00000000000E+00 0.  1.
          4    1    6    6  502    0  0.39748460410E+02  0.15774802671E+02  0.95573000017E+02  0.10470426370E+03  0.00000000000E+00 0. -1.
          3    1    5    5  503    0 -0.13511208144E+02  0.11982805887E+02 -0.72965111099E+01  0.19477665590E+02  0.00000000000E+00 0. -1.
         -4    1    5    5    0  503  0.93050516645E+01 -0.45180562463E+02 -0.18924577591E+03  0.19478662918E+03  0.00000000000E+00 0.  1.
         -3    1    6    6    0  502  0.42261066114E+03  0.37257774168E+03  0.73853506619E+03  0.92889611287E+03  0.00000000000E+00 0.  1.
<mgrwt>
<rscale>  0 0.23131223E+04</rscale>
<asrwt>0</asrwt>
<pdfrwt beam="1">  1        1 0.19994260E+00 0.23131223E+04</pdfrwt>
<pdfrwt beam="2">  1       -1 0.15834529E+00 0.23131223E+04</pdfrwt>
<totfact> 0.24585689E+00</totfact>
</mgrwt>
</event>
<event>
12    1  0.1472088E-007  0.1896324E+04  0.7818608E-02  0.8656688E-01
         -2   -1    0    0    0  501 -0.00000000000E+00  0.00000000000E+00  0.30624974029E+03  0.30624974029E+03  0.00000000000E+00 0.  1.
          2   -1    0    0  501    0  0.00000000000E+00 -0.00000000000E+00 -0.29355503887E+04  0.29355503887E+04  0.00000000000E+00 0. -1.
         23    2    1    2    0    0 -0.48154553023E+03  0.69509937828E+02 -0.19920980212E+04  0.20523032891E+04  0.82319713867E+02 0.  0.
        254    2    1    2    0    0  0.48154553023E+03 -0.69509937828E+02 -0.63720262727E+03  0.11894968399E+04  0.87872510768E+03 0.  0.
        -24    2    4    4    0    0 -0.22278674881E+02 -0.35011257035E+03 -0.50514721332E+02  0.36302808570E+03  0.78501609284E+02 0.  0.
         24    2    4    4    0    0  0.50382420512E+03  0.28060263252E+03 -0.58668790593E+03  0.82646875423E+03  0.79191134084E+02 0.  0.
         13    1    3    3    0    0 -0.18582590715E+03  0.22314782951E+02 -0.93815913620E+03  0.95664611123E+03  0.00000000000E+00 0. -1.
        -13    1    3    3    0    0 -0.29571962308E+03  0.47195154878E+02 -0.10539388850E+04  0.10956571779E+04  0.00000000000E+00 0.  1.
          4    1    6    6  502    0  0.47843974132E+03  0.28202454507E+03 -0.54835913020E+03  0.78047432102E+03  0.00000000000E+00 0. -1.
          3    1    5    5  503    0 -0.17552613886E+02 -0.13425021423E+03 -0.57273133832E+02  0.14700825192E+03  0.00000000000E+00 0. -1.
         -4    1    5    5    0  503 -0.47260609960E+01 -0.21586235613E+03  0.67584125003E+01  0.21601983378E+03  0.00000000000E+00 0.  1.
         -3    1    6    6    0  502  0.25384463791E+02 -0.14219125466E+01 -0.38328775738E+02  0.45994433216E+02  0.00000000000E+00 0.  1.
<mgrwt>
<rscale>  0 0.18963244E+04</rscale>
<asrwt>0</asrwt>
<pdfrwt beam="1">  1        2 0.45162316E+00 0.18963244E+04</pdfrwt>
<pdfrwt beam="2">  1       -2 0.47115342E-01 0.18963244E+04</pdfrwt>
<totfact> 0.76609642E+00</totfact>
</mgrwt>
</event>
<event>
12    1  0.1472088E-007  0.3444266E+04  0.7818608E-02  0.8127127E-01
         -1   -1    0    0    0  501 -0.00000000000E+00  0.00000000000E+00  0.14449988009E+04  0.14449988009E+04  0.00000000000E+00 0.  1.
          1   -1    0    0  501    0  0.00000000000E+00 -0.00000000000E+00 -0.20524189235E+04  0.20524189235E+04  0.00000000000E+00 0. -1.
         23    2    1    2    0    0 -0.12466837940E+04  0.90660447812E+03 -0.13138412829E+02  0.15443872326E+04  0.93846387260E+02 0.  0.
        254    2    1    2    0    0  0.12466837940E+04 -0.90660447812E+03 -0.59428170971E+03  0.19530304918E+04  0.10416358238E+04 0.  0.
        -24    2    4    4    0    0 -0.17322459903E+03 -0.18428973372E+03 -0.84576671724E+02  0.27849843859E+03  0.80241505673E+02 0.  0.
         24    2    4    4    0    0  0.14199083930E+04 -0.72231474440E+03 -0.50970503799E+03  0.16745320532E+04  0.79874507016E+02 0.  0.
         11    1    3    3    0    0 -0.13769501180E+03  0.94318124767E+02 -0.30302111377E+02  0.16962913337E+03  0.00000000000E+00 0. -1.
        -11    1    3    3    0    0 -0.11089887822E+04  0.81228635335E+03  0.17163698548E+02  0.13747580993E+04  0.00000000000E+00 0.  1.
          4    1    6    6  502    0  0.61594360317E+03 -0.27764630015E+03 -0.19149292656E+03  0.70224178969E+03  0.00000000000E+00 0. -1.
          3    1    5    5  503    0 -0.19780827913E+01  0.63100857532E+01 -0.93534661068E+01  0.11455012962E+02  0.00000000000E+00 0. -1.
         -4    1    5    5    0  503 -0.17124651624E+03 -0.19059981947E+03 -0.75223205617E+02  0.26704342563E+03  0.00000000000E+00 0.  1.
         -3    1    6    6    0  502  0.80396478987E+03 -0.44466844425E+03 -0.31821211143E+03  0.97229026352E+03  0.00000000000E+00 0.  1.
<mgrwt>
<rscale>  0 0.34442665E+04</rscale>
<asrwt>0</asrwt>
<pdfrwt beam="1">  1        1 0.31575676E+00 0.34442665E+04</pdfrwt>
<pdfrwt beam="2">  1       -1 0.22230751E+00 0.34442665E+04</pdfrwt>
<totfact> 0.23901352E-01</totfact>
</mgrwt>
</event>
<event>
12    1  0.1472088E-007  0.1297561E+04  0.7818608E-02  0.9031502E-01
         -1   -1    0    0    0  501 -0.00000000000E+00  0.00000000000E+00  0.34866104280E+03  0.34866104280E+03  0.00000000000E+00 0.  1.
          1   -1    0    0  501    0  0.00000000000E+00 -0.00000000000E+00 -0.12072356638E+04  0.12072356638E+04  0.00000000000E+00 0. -1.
         23    2    1    2    0    0 -0.14875016984E+03  0.28194448361E+03 -0.28229374325E+03  0.43581718821E+03  0.92884655319E+02 0.  0.
        254    2    1    2    0    0  0.14875016984E+03 -0.28194448361E+03 -0.57628087773E+03  0.11200795184E+04  0.90601278828E+03 0.  0.
        -24    2    4    4    0    0  0.51298295668E+02 -0.51887494869E+03 -0.65355782647E+03  0.83983150207E+03  0.79475731009E+02 0.  0.
         24    2    4    4    0    0  0.97451874176E+02  0.23693046507E+03  0.77276948743E+02  0.28024801628E+03  0.83272509043E+02 0.  0.
         13    1    3    3    0    0 -0.78617073330E+02  0.20430358271E+03 -0.23448061434E+03  0.32078303669E+03  0.00000000000E+00 0. -1.
        -13    1    3    3    0    0 -0.70133096514E+02  0.77640900904E+02 -0.47813128905E+02  0.11503415152E+03  0.00000000000E+00 0.  1.
          2    1    6    6  502    0 -0.11306014904E+02  0.44431095050E+02 -0.55598909278E+00  0.45850379543E+02  0.00000000000E+00 0. -1.
          1    1    5    5  503    0  0.64760692748E+02 -0.29836125961E+03 -0.35106783142E+03  0.46525478054E+03  0.00000000000E+00 0. -1.
         -2    1    5    5    0  503 -0.13462397079E+02 -0.22051368908E+03 -0.30248999505E+03  0.37457672153E+03  0.00000000000E+00 0.  1.
         -1    1    6    6    0  502  0.10875788908E+03  0.19249937002E+03  0.77832937836E+02  0.23439763674E+03  0.00000000000E+00 0.  1.
<mgrwt>
<rscale>  0 0.12975609E+04</rscale>
<asrwt>0</asrwt>
<pdfrwt beam="1">  1        1 0.18572857E+00 0.12975609E+04</pdfrwt>
<pdfrwt beam="2">  1       -1 0.53640160E-01 0.12975609E+04</pdfrwt>
<totfact> 0.36376927E+01</totfact>
</mgrwt>
</event>
<event>
12    1  0.1472088E-007  0.1085013E+04  0.7818608E-02  0.9219923E-01
         -2   -1    0    0    0  501 -0.00000000000E+00  0.00000000000E+00  0.21863815370E+03  0.21863815370E+03  0.00000000000E+00 0.  1.
          2   -1    0    0  501    0  0.00000000000E+00 -0.00000000000E+00 -0.13461209333E+04  0.13461209333E+04  0.00000000000E+00 0. -1.
         23    2    1    2    0    0  0.24722915283E+02 -0.79369918200E+02 -0.56762269817E+01  0.12343426622E+03  0.91065866654E+02 0.  0.
        254    2    1    2    0    0 -0.24722915283E+02  0.79369918200E+02 -0.11218065526E+04  0.14413248208E+04  0.90114177077E+03 0.  0.
        -24    2    4    4    0    0  0.60959302636E+01 -0.31273128391E+03 -0.91237238577E+02  0.33561869158E+03  0.80483887425E+02 0.  0.
         24    2    4    4    0    0 -0.30818845546E+02  0.39210120211E+03 -0.10305693140E+04  0.11057061292E+04  0.76287477067E+02 0.  0.
         13    1    3    3    0    0  0.35572304424E+02 -0.58455931664E+02 -0.41888720802E+02  0.80231849780E+02  0.00000000000E+00 0. -1.
        -13    1    3    3    0    0 -0.10849389141E+02 -0.20913986536E+02  0.36212493820E+02  0.43202416440E+02  0.00000000000E+00 0.  1.
          4    1    6    6  502    0  0.18059646743E+02  0.33051855952E+02 -0.11626360052E+03  0.12221211408E+03  0.00000000000E+00 0. -1.
          1    1    5    5  503    0 -0.19256581749E+02 -0.17419158783E+02 -0.13152862624E+02  0.29107401612E+02  0.00000000000E+00 0. -1.
         -2    1    5    5    0  503  0.25352512012E+02 -0.29531212513E+03 -0.78084375953E+02  0.30651128997E+03  0.00000000000E+00 0.  1.
         -3    1    6    6    0  502 -0.48878492290E+02  0.35904934616E+03 -0.91430571350E+03  0.98349401509E+03  0.00000000000E+00 0.  1.
<mgrwt>
<rscale>  0 0.10850132E+04</rscale>
<asrwt>0</asrwt>
<pdfrwt beam="1">  1        2 0.20709553E+00 0.10850132E+04</pdfrwt>
<pdfrwt beam="2">  1       -2 0.33636638E-01 0.10850132E+04</pdfrwt>
<totfact> 0.12751434E+02</totfact>
</mgrwt>
</event>
<event>
12    1  0.1472088E-007  0.1653952E+04  0.7818608E-02  0.8788072E-01
         -1   -1    0    0    0  501 -0.00000000000E+00  0.00000000000E+00  0.65847733101E+03  0.65847733101E+03  0.00000000000E+00 0.  1.
          1   -1    0    0  501    0  0.00000000000E+00 -0.00000000000E+00 -0.10385923482E+04  0.10385923482E+04  0.00000000000E+00 0. -1.
         23    2    1    2    0    0 -0.56174230280E+03  0.10840865569E+03 -0.12029196110E+03  0.59158784184E+03  0.90549253571E+02 0.  0.
        254    2    1    2    0    0  0.56174230280E+03 -0.10840865569E+03 -0.25982305608E+03  0.11054818374E+04  0.90954671177E+03 0.  0.
        -24    2    4    4    0    0  0.19840813852E+03 -0.48525782793E+03 -0.21636448027E+03  0.57426927569E+03  0.90170192878E+02 0.  0.
         24    2    4    4    0    0  0.36333416428E+03  0.37684917224E+03 -0.43458575815E+02  0.53121256167E+03  0.79190430683E+02 0.  0.
         13    1    3    3    0    0 -0.52979132254E+03  0.78729633708E+02 -0.11026989472E+03  0.54684243648E+03  0.00000000000E+00 0. -1.
        -13    1    3    3    0    0 -0.31950980260E+02  0.29679021984E+02 -0.10022066382E+02  0.44745405352E+02  0.00000000000E+00 0.  1.
          2    1    6    6  502    0  0.20749253176E+02  0.85945705635E+00 -0.11701858875E+01  0.20799988192E+02  0.00000000000E+00 0. -1.
          1    1    5    5  503    0  0.15018898426E+02 -0.12473392973E+03 -0.31404298263E+02  0.12950038797E+03  0.00000000000E+00 0. -1.
         -2    1    5    5    0  503  0.18338924009E+03 -0.36052389821E+03 -0.18496018200E+03  0.44476888772E+03  0.00000000000E+00 0.  1.
         -1    1    6    6    0  502  0.34258491110E+03  0.37598971519E+03 -0.42288389927E+02  0.51041257348E+03  0.00000000000E+00 0.  1.
<mgrwt>
<rscale>  0 0.16539523E+04</rscale>
<asrwt>0</asrwt>
<pdfrwt beam="1">  1        1 0.15978344E+00 0.16539523E+04</pdfrwt>
<pdfrwt beam="2">  1       -1 0.10130421E+00 0.16539523E+04</pdfrwt>
<totfact> 0.12482696E+01</totfact>
</mgrwt>
</event>
<event>
12    1  0.1472088E-007  0.1356668E+04  0.7818608E-02  0.8985796E-01
          2   -1    0    0  501    0  0.00000000000E+00  0.00000000000E+00  0.39625156534E+03  0.39625156534E+03  0.00000000000E+00 0. -1.
         -2   -1    0    0    0  501 -0.00000000000E+00 -0.00000000000E+00 -0.11612249279E+04  0.11612249279E+04  0.00000000000E+00 0.  1.
         23    2    1    2    0    0 -0.10695653541E+03 -0.17320314824E+03 -0.54882527207E+03  0.59245274116E+03  0.91389497323E+02 0.  0.
        254    2    1    2    0    0  0.10695653541E+03  0.17320314824E+03 -0.21614809049E+03  0.96502375207E+03  0.91821120338E+03 0.  0.
        -24    2    4    4    0    0 -0.23238524216E+03  0.15794739483E+03  0.24866459913E+03  0.38388371422E+03  0.81131639210E+02 0.  0.
         24    2    4    4    0    0  0.33934177757E+03  0.15255753415E+02 -0.46481268962E+03  0.58114003785E+03  0.79292667657E+02 0.  0.
         13    1    3    3    0    0 -0.52449591866E+02 -0.14620779746E+03 -0.45360198222E+03  0.47946056981E+03  0.00000000000E+00 0.  1.
        -13    1    3    3    0    0 -0.54506943539E+02 -0.26995350781E+02 -0.95223289851E+02  0.11299217136E+03  0.00000000000E+00 0. -1.
          4    1    6    6  502    0  0.24313366827E+03 -0.19616757054E+02 -0.29394145417E+03  0.38196907765E+03  0.00000000000E+00 0. -1.
          3    1    5    5  503    0 -0.16313380965E+03  0.10209950342E+03  0.21553542493E+03  0.28895063220E+03  0.00000000000E+00 0. -1.
         -4    1    5    5    0  503 -0.69251432507E+02  0.55847891411E+02  0.33129174196E+02  0.94933082023E+02  0.00000000000E+00 0.  1.
         -3    1    6    6    0  502  0.96208109296E+02  0.34872510469E+02 -0.17087123545E+03  0.19917096019E+03  0.00000000000E+00 0.  1.
<mgrwt>
<rscale>  0 0.13566683E+04</rscale>
<asrwt>0</asrwt>
<pdfrwt beam="1">  1        2 0.60961779E-01 0.13566683E+04</pdfrwt>
<pdfrwt beam="2">  1       -2 0.17864999E+00 0.13566683E+04</pdfrwt>
<totfact> 0.14520667E+01</totfact>
</mgrwt>
</event>
<event>
12    1  0.1472088E-007  0.2623728E+04  0.7818608E-02  0.8360186E-01
          1   -1    0    0  501    0  0.00000000000E+00  0.00000000000E+00  0.22713841323E+04  0.22713841323E+04  0.00000000000E+00 0. -1.
         -1   -1    0    0    0  501 -0.00000000000E+00 -0.00000000000E+00 -0.75768226628E+03  0.75768226628E+03  0.00000000000E+00 0.  1.
         23    2    1    2    0    0 -0.22991951066E+03  0.79775993403E+03  0.15849803387E+04  0.17916543448E+04  0.92621398107E+02 0.  0.
        254    2    1    2    0    0  0.22991951066E+03 -0.79775993403E+03 -0.71278472622E+02  0.12374120539E+04  0.91478088997E+03 0.  0.
        -24    2    4    4    0    0  0.21954718452E+02  0.25386793485E+02  0.29673083855E+03  0.30867622343E+03  0.78136556262E+02 0.  0.
         24    2    4    4    0    0  0.20796479220E+03 -0.82314672751E+03 -0.36800931117E+03  0.92873583042E+03  0.79369388241E+02 0.  0.
         13    1    3    3    0    0  0.42134099661E+01  0.85748071060E+02  0.16568966078E+03  0.18661068619E+03  0.00000000000E+00 0.  1.
        -13    1    3    3    0    0 -0.23413292062E+03  0.71201186297E+03  0.14192906779E+04  0.16050436586E+04  0.00000000000E+00 0. -1.
          4    1    6    6  502    0  0.15523104049E+03 -0.59968930779E+03 -0.22953105881E+03  0.66061217728E+03  0.00000000000E+00 0. -1.
          3    1    5    5  503    0 -0.51075237711E+01  0.42145893438E+02  0.23909217468E+03  0.24283210481E+03  0.00000000000E+00 0. -1.
         -2    1    5    5    0  503  0.27062242224E+02 -0.16759099953E+02  0.57638663863E+02  0.65844118624E+02  0.00000000000E+00 0.  1.
         -3    1    6    6    0  502  0.52733751718E+02 -0.22345741972E+03 -0.13847825235E+03  0.26812365314E+03  0.00000000000E+00 0.  1.
<mgrwt>
<rscale>  0 0.26237282E+04</rscale>
<asrwt>0</asrwt>
<pdfrwt beam="1">  1        1 0.34944371E+00 0.26237282E+04</pdfrwt>
<pdfrwt beam="2">  1       -1 0.11656650E+00 0.26237282E+04</pdfrwt>
<totfact> 0.11366651E+00</totfact>
</mgrwt>
</event>
<event>
12    1  0.1472088E-007  0.2004024E+04  0.7818608E-02  0.8604742E-01
         -2   -1    0    0    0  501 -0.00000000000E+00  0.00000000000E+00  0.54601791503E+03  0.54601791503E+03  0.00000000000E+00 0.  1.
          2   -1    0    0  501    0  0.00000000000E+00 -0.00000000000E+00 -0.18388188988E+04  0.18388188988E+04  0.00000000000E+00 0. -1.
         23    2    1    2    0    0  0.60342272462E+03 -0.45069824196E+03 -0.82799361257E+03  0.11229993136E+04  0.91138060149E+02 0.  0.
        254    2    1    2    0    0 -0.60342272462E+03  0.45069824196E+03 -0.46480737117E+03  0.12618375002E+04  0.89941097099E+03 0.  0.
        -24    2    4    4    0    0 -0.30385004697E+03 -0.22276897555E+03 -0.33227009807E+03  0.50875839196E+03  0.80503514246E+02 0.  0.
         24    2    4    4    0    0 -0.29957267765E+03  0.67346721751E+03 -0.13253727310E+03  0.75307910825E+03  0.79120997657E+02 0.  0.
         11    1    3    3    0    0  0.49200977629E+03 -0.33492223991E+03 -0.61079688190E+03  0.85283020448E+03  0.00000000000E+00 0. -1.
        -11    1    3    3    0    0  0.11141294833E+03 -0.11577600205E+03 -0.21719673068E+03  0.27016910912E+03  0.00000000000E+00 0.  1.
          2    1    6    6  502    0 -0.19867531555E+02  0.27935931818E+02 -0.22493154218E+02  0.41000940030E+02  0.00000000000E+00 0. -1.
          1    1    5    5  503    0  0.92609222309E+00  0.37416602708E+01 -0.99700827928E+01  0.10689257190E+02  0.00000000000E+00 0. -1.
         -2    1    5    5    0  503 -0.30477613919E+03 -0.22651063582E+03 -0.32230001528E+03  0.49806913477E+03  0.00000000000E+00 0.  1.
         -1    1    6    6    0  502 -0.27970514609E+03  0.64553128569E+03 -0.11004411888E+03  0.71207816822E+03  0.00000000000E+00 0.  1.
<mgrwt>
<rscale>  0 0.20040240E+04</rscale>
<asrwt>0</asrwt>
<pdfrwt beam="1">  1        2 0.28289521E+00 0.20040240E+04</pdfrwt>
<pdfrwt beam="2">  1       -2 0.84002758E-01 0.20040240E+04</pdfrwt>
<totfact> 0.94383561E+00</totfact>
</mgrwt>
</event>
<event>
12    1  0.1472088E-007  0.1134918E+04  0.7818608E-02  0.9171811E-01
          2   -1    0    0  501    0  0.00000000000E+00  0.00000000000E+00  0.28248466255E+04  0.28248466255E+04  0.00000000000E+00 0. -1.
         -2   -1    0    0    0  501 -0.00000000000E+00 -0.00000000000E+00 -0.11399202690E+03  0.11399202690E+03  0.00000000000E+00 0.  1.
         23    2    1    2    0    0 -0.60060608175E+02  0.11512672251E+02  0.33220347883E+02  0.11583838221E+03  0.92601949242E+02 0.  0.
        254    2    1    2    0    0  0.60060608175E+02 -0.11512672251E+02  0.26776342507E+04  0.28230002702E+04  0.89211295617E+03 0.  0.
        -24    2    4    4    0    0 -0.19091326782E+03 -0.31281247955E+01  0.24924028204E+04  0.25010411255E+04  0.81714326690E+02 0.  0.
         24    2    4    4    0    0  0.25097387599E+03 -0.83845474551E+01  0.18523143031E+03  0.32195914470E+03  0.79302087079E+02 0.  0.
         11    1    3    3    0    0 -0.55512411667E+02  0.80970181344E+01 -0.22048899544E+02  0.60277222256E+02  0.00000000000E+00 0.  1.
        -11    1    3    3    0    0 -0.45481965074E+01  0.34156541161E+01  0.55269247427E+02  0.55561159956E+02  0.00000000000E+00 0. -1.
          2    1    6    6  502    0  0.28815957264E+02 -0.28171899226E+02  0.27926963499E+02  0.49029894853E+02  0.00000000000E+00 0. -1.
          3    1    5    5  503    0 -0.27633165537E+02 -0.21890008856E+02  0.23109080700E+03  0.23376425177E+03  0.00000000000E+00 0. -1.
         -4    1    5    5    0  503 -0.16328010228E+03  0.18761884061E+02  0.22613120134E+04  0.22672768737E+04  0.00000000000E+00 0.  1.
         -1    1    6    6    0  502  0.22215791873E+03  0.19787351771E+02  0.15730446681E+03  0.27292924985E+03  0.00000000000E+00 0.  1.
<mgrwt>
<rscale>  0 0.11349185E+04</rscale>
<asrwt>0</asrwt>
<pdfrwt beam="1">  1        2 0.43459174E+00 0.11349185E+04</pdfrwt>
<pdfrwt beam="2">  1       -2 0.17537237E-01 0.11349185E+04</pdfrwt>
<totfact> 0.60288701E+01</totfact>
</mgrwt>
</event>
<event>
12    1  0.1472088E-007  0.1354212E+04  0.7818608E-02  0.8987646E-01
         -1   -1    0    0    0  501 -0.00000000000E+00  0.00000000000E+00  0.15163623382E+03  0.15163623382E+03  0.00000000000E+00 0.  1.
          1   -1    0    0  501    0  0.00000000000E+00 -0.00000000000E+00 -0.30235031957E+04  0.30235031957E+04  0.00000000000E+00 0. -1.
         23    2    1    2    0    0 -0.23189923955E+01  0.15244337668E+03 -0.18043086258E+02  0.17816878779E+03  0.90411299970E+02 0.  0.
        254    2    1    2    0    0  0.23189923955E+01 -0.15244337668E+03 -0.28538238756E+04  0.29969706417E+04  0.90237351106E+03 0.  0.
        -24    2    4    4    0    0  0.40785036506E+03  0.81574004152E+02 -0.10665237931E+04  0.11475861838E+04  0.80528314548E+02 0.  0.
         24    2    4    4    0    0 -0.40553137266E+03 -0.23401738083E+03 -0.17873000825E+04  0.18493844580E+04  0.81002837530E+02 0.  0.
         11    1    3    3    0    0 -0.44935274710E+02  0.87663070015E+02  0.20619540076E+00  0.98509061889E+02  0.00000000000E+00 0.  1.
        -11    1    3    3    0    0  0.42616282314E+02  0.64780306662E+02 -0.18249281659E+02  0.79659725901E+02  0.00000000000E+00 0. -1.
          4    1    6    6  502    0 -0.38090081000E+03 -0.23946911806E+03 -0.16956097275E+04  0.17542871012E+04  0.00000000000E+00 0. -1.
          3    1    5    5  503    0  0.38151554578E+03  0.80712510606E+02 -0.92842698062E+03  0.10069981526E+04  0.00000000000E+00 0. -1.
         -4    1    5    5    0  503  0.26334819280E+02  0.86149354641E+00 -0.13809681253E+03  0.14058803117E+03  0.00000000000E+00 0.  1.
         -3    1    6    6    0  502 -0.24630562661E+02  0.54517372298E+01 -0.91690355002E+02  0.95097356725E+02  0.00000000000E+00 0.  1.
<mgrwt>
<rscale>  0 0.13542122E+04</rscale>
<asrwt>0</asrwt>
<pdfrwt beam="1">  1        1 0.46515433E+00 0.13542122E+04</pdfrwt>
<pdfrwt beam="2">  1       -1 0.23328652E-01 0.13542122E+04</pdfrwt>
<totfact> 0.89460803E+00</totfact>
</mgrwt>
</event>
<event>
12    1  0.1472088E-007  0.1903999E+04  0.7818608E-02  0.8652868E-01
          1   -1    0    0  501    0  0.00000000000E+00  0.00000000000E+00  0.99821307074E+03  0.99821307074E+03  0.00000000000E+00 0. -1.
         -1   -1    0    0    0  501 -0.00000000000E+00 -0.00000000000E+00 -0.90792533440E+03  0.90792533440E+03  0.00000000000E+00 0.  1.
         23    2    1    2    0    0 -0.58566013274E+03 -0.39590537000E+03  0.23962730377E+03  0.75200681209E+03  0.91401026456E+02 0.  0.
        254    2    1    2    0    0  0.58566013274E+03  0.39590537000E+03 -0.14933956744E+03  0.11541315930E+04  0.89998809692E+03 0.  0.
        -24    2    4    4    0    0  0.63330935316E+03  0.10205165174E+03 -0.39690876859E+03  0.75849272697E+03  0.79242475104E+02 0.  0.
         24    2    4    4    0    0 -0.47649220421E+02  0.29385371826E+03  0.24756920116E+03  0.39563886607E+03  0.81358140603E+02 0.  0.
         11    1    3    3    0    0 -0.28763841549E+03 -0.19794838947E+03  0.70266038290E+02  0.35616953701E+03  0.00000000000E+00 0.  1.
        -11    1    3    3    0    0 -0.29802171726E+03 -0.19795698053E+03  0.16936126548E+03  0.39583727508E+03  0.00000000000E+00 0. -1.
          4    1    6    6  502    0 -0.44498823587E+02  0.28127769246E+03  0.20432726347E+03  0.35049524416E+03  0.00000000000E+00 0. -1.
          3    1    5    5  503    0  0.27991145943E+03  0.41351210695E+02 -0.22137938037E+03  0.35926199047E+03  0.00000000000E+00 0. -1.
         -4    1    5    5    0  503  0.35339789373E+03  0.60700441043E+02 -0.17552938823E+03  0.39923073650E+03  0.00000000000E+00 0.  1.
         -3    1    6    6    0  502 -0.31503968344E+01  0.12576025800E+02  0.43241937682E+02  0.45143621915E+02  0.00000000000E+00 0.  1.
<mgrwt>
<rscale>  0 0.19039989E+04</rscale>
<asrwt>0</asrwt>
<pdfrwt beam="1">  1        1 0.15357124E+00 0.19039989E+04</pdfrwt>
<pdfrwt beam="2">  1       -1 0.13968082E+00 0.19039989E+04</pdfrwt>
<totfact> 0.59874546E+00</totfact>
</mgrwt>
</event>
<event>
12    1  0.1472088E-007  0.1264809E+04  0.7818608E-02  0.9057947E-01
          1   -1    0    0  501    0  0.00000000000E+00  0.00000000000E+00  0.16042762141E+04  0.16042762141E+04  0.00000000000E+00 0. -1.
         -1   -1    0    0    0  501 -0.00000000000E+00 -0.00000000000E+00 -0.24929333735E+03  0.24929333735E+03  0.00000000000E+00 0.  1.
         23    2    1    2    0    0  0.14805869446E+03 -0.27804772789E+03  0.32106232246E+03  0.45953307249E+03  0.94115428148E+02 0.  0.
        254    2    1    2    0    0 -0.14805869446E+03  0.27804772789E+03  0.10339205543E+04  0.13940364790E+04  0.88040563158E+03 0.  0.
        -24    2    4    4    0    0  0.27029519767E+03  0.83009672127E+02  0.83542482178E+03  0.88539112768E+03  0.77670564440E+02 0.  0.
         24    2    4    4    0    0 -0.41835389213E+03  0.19503805576E+03  0.19849573251E+03  0.50864535129E+03  0.79118362625E+02 0.  0.
         13    1    3    3    0    0  0.91446590664E+01 -0.54719432632E+02  0.10659396224E+03  0.12016702494E+03  0.00000000000E+00 0.  1.
        -13    1    3    3    0    0  0.13891403539E+03 -0.22332829526E+03  0.21446836022E+03  0.33936604755E+03  0.00000000000E+00 0. -1.
          4    1    6    6  502    0 -0.41166487295E+03  0.18554850286E+03  0.17855280707E+03  0.48556906764E+03  0.00000000000E+00 0. -1.
          3    1    5    5  503    0  0.13691973205E+03  0.52852854938E+02  0.54448663425E+03  0.56392032432E+03  0.00000000000E+00 0. -1.
         -4    1    5    5    0  503  0.13337546563E+03  0.30156817189E+02  0.29093818752E+03  0.32147080336E+03  0.00000000000E+00 0.  1.
         -3    1    6    6    0  502 -0.66890191805E+01  0.94895529035E+01  0.19942925441E+02  0.23076283649E+02  0.00000000000E+00 0.  1.
<mgrwt>
<rscale>  0 0.12648089E+04</rscale>
<asrwt>0</asrwt>
<pdfrwt beam="1">  1        1 0.24681172E+00 0.12648089E+04</pdfrwt>
<pdfrwt beam="2">  1       -1 0.38352822E-01 0.12648089E+04</pdfrwt>
<totfact> 0.35909715E+01</totfact>
</mgrwt>
</event>
<event>
12    1  0.1472088E-007  0.1190974E+04  0.7818608E-02  0.9120794E-01
         -2   -1    0    0    0  501 -0.00000000000E+00  0.00000000000E+00  0.45964234694E+03  0.45964234694E+03  0.00000000000E+00 0.  1.
          2   -1    0    0  501    0  0.00000000000E+00 -0.00000000000E+00 -0.77147988386E+03  0.77147988386E+03  0.00000000000E+00 0. -1.
         23    2    1    2    0    0 -0.25966854075E+03 -0.56119874638E+02 -0.22881606523E+02  0.28104884357E+03  0.88812685865E+02 0.  0.
        254    2    1    2    0    0  0.25966854075E+03  0.56119874638E+02 -0.28895593040E+03  0.95007338723E+03  0.86519750348E+03 0.  0.
        -24    2    4    4    0    0 -0.97125537165E+02  0.68231278633E+02 -0.50487631539E+03  0.52520806892E+03  0.82792176387E+02 0.  0.
         24    2    4    4    0    0  0.35679407791E+03 -0.12111403994E+02  0.21592038499E+03  0.42486531831E+03  0.80251018108E+02 0.  0.
         11    1    3    3    0    0 -0.63300230977E+02 -0.53812810671E+02 -0.15582598596E+02  0.84531385965E+02  0.00000000000E+00 0. -1.
        -11    1    3    3    0    0 -0.19636830977E+03 -0.23070639675E+01 -0.72990079267E+01  0.19651745761E+03  0.00000000000E+00 0.  1.
          4    1    6    6  502    0  0.24310638071E+03 -0.38011646127E+02  0.17223108657E+03  0.30034837233E+03  0.00000000000E+00 0. -1.
          1    1    5    5  503    0 -0.70058202978E+02  0.75030014541E+02 -0.46706546004E+03  0.47821313120E+03  0.00000000000E+00 0. -1.
         -2    1    5    5    0  503 -0.27067334187E+02 -0.67987359085E+01 -0.37810855348E+02  0.46994937729E+02  0.00000000000E+00 0.  1.
         -3    1    6    6    0  502  0.11368769721E+03  0.25900242133E+02  0.43689298414E+02  0.12451694598E+03  0.00000000000E+00 0.  1.
<mgrwt>
<rscale>  0 0.11909741E+04</rscale>
<asrwt>0</asrwt>
<pdfrwt beam="1">  1        2 0.11868921E+00 0.11909741E+04</pdfrwt>
<pdfrwt beam="2">  1       -2 0.70714208E-01 0.11909741E+04</pdfrwt>
<totfact> 0.64905261E+01</totfact>
</mgrwt>
</event>
<event>
12    1  0.1472088E-007  0.1371730E+04  0.7818608E-02  0.8974540E-01
          4   -1    0    0  501    0  0.00000000000E+00  0.00000000000E+00  0.34473118413E+03  0.34473118413E+03  0.00000000000E+00 0. -1.
         -4   -1    0    0    0  501 -0.00000000000E+00 -0.00000000000E+00 -0.13645726121E+04  0.13645726121E+04  0.00000000000E+00 0.  1.
         23    2    1    2    0    0  0.29884385208E+03  0.46962155231E+02 -0.62879066364E+03  0.70407889205E+03  0.94001572276E+02 0.  0.
        254    2    1    2    0    0 -0.29884385208E+03 -0.46962155231E+02 -0.39105076437E+03  0.10052249042E+04  0.87523900497E+03 0.  0.
        -24    2    4    4    0    0  0.13504034871E+03  0.33296251457E+02  0.20475280628E+03  0.25973306148E+03  0.78695714009E+02 0.  0.
         24    2    4    4    0    0 -0.43388420079E+03 -0.80258406687E+02 -0.59580357065E+03  0.74549184275E+03  0.77969745884E+02 0.  0.
         11    1    3    3    0    0  0.10552573975E+03 -0.93616371612E+01 -0.14100888224E+03  0.17637127565E+03  0.00000000000E+00 0. -1.
        -11    1    3    3    0    0  0.19331811232E+03  0.56323792392E+02 -0.48778178140E+03  0.52770761640E+03  0.00000000000E+00 0.  1.
          4    1    6    6  502    0 -0.10918233374E+03  0.11909123675E+02 -0.16496817836E+03  0.19818453295E+03  0.00000000000E+00 0. -1.
          3    1    5    5  503    0  0.40176526715E+02 -0.26019721780E+02  0.58210931375E+02  0.75363729684E+02  0.00000000000E+00 0. -1.
         -4    1    5    5    0  503  0.94863821993E+02  0.59315973237E+02  0.14654187491E+03  0.18436933179E+03  0.00000000000E+00 0.  1.
         -3    1    6    6    0  502 -0.32470186704E+03 -0.92167530362E+02 -0.43083539229E+03  0.54730730980E+03  0.00000000000E+00 0.  1.
<mgrwt>
<rscale>  0 0.13717299E+04</rscale>
<asrwt>0</asrwt>
<pdfrwt beam="1">  1        4 0.53035568E-01 0.13717299E+04</pdfrwt>
<pdfrwt beam="2">  1       -4 0.20993424E+00 0.13717299E+04</pdfrwt>
<totfact> 0.75356520E-01</totfact>
</mgrwt>
</event>
<event>
12    1  0.1472088E-007  0.2747889E+04  0.7818608E-02  0.8319632E-01
         -1   -1    0    0    0  501 -0.00000000000E+00  0.00000000000E+00  0.23305952244E+04  0.23305952244E+04  0.00000000000E+00 0.  1.
          1   -1    0    0  501    0  0.00000000000E+00 -0.00000000000E+00 -0.80997481388E+03  0.80997481388E+03  0.00000000000E+00 0. -1.
         23    2    1    2    0    0  0.74704684770E+03  0.95317992804E+03  0.49485431080E+03  0.13114500487E+04  0.91594069424E+02 0.  0.
        254    2    1    2    0    0 -0.74704684770E+03 -0.95317992804E+03  0.10257660997E+04  0.18291199896E+04  0.90931450939E+03 0.  0.
        -24    2    4    4    0    0 -0.85206230480E+03 -0.51080733151E+03  0.91806088066E+03  0.13550528542E+04  0.79988473778E+02 0.  0.
         24    2    4    4    0    0  0.10501545710E+03 -0.44237259652E+03  0.10770521908E+03  0.47406713535E+03  0.80109139382E+02 0.  0.
         11    1    3    3    0    0  0.18670171490E+03  0.20766860882E+03  0.15097800674E+03  0.31745572912E+03  0.00000000000E+00 0.  1.
        -11    1    3    3    0    0  0.56034513281E+03  0.74551131922E+03  0.34387630407E+03  0.99399431962E+03  0.00000000000E+00 0. -1.
          4    1    6    6  502    0  0.30405343239E+02 -0.13667259943E+03 -0.42310494313E+01  0.14007778593E+03  0.00000000000E+00 0. -1.
          3    1    5    5  503    0 -0.42739119050E+03 -0.24887513416E+03  0.51071611311E+03  0.71093811989E+03  0.00000000000E+00 0. -1.
         -4    1    5    5    0  503 -0.42467111430E+03 -0.26193219735E+03  0.40734476756E+03  0.64411473433E+03  0.00000000000E+00 0.  1.
         -3    1    6    6    0  502  0.74610113862E+02 -0.30569999710E+03  0.11193626851E+03  0.33398934942E+03  0.00000000000E+00 0.  1.
<mgrwt>
<rscale>  0 0.27478890E+04</rscale>
<asrwt>0</asrwt>
<pdfrwt beam="1">  1        1 0.12461151E+00 0.27478890E+04</pdfrwt>
<pdfrwt beam="2">  1       -1 0.35855311E+00 0.27478890E+04</pdfrwt>
<totfact> 0.25685064E-01</totfact>
</mgrwt>
</event>
<event>
12    1  0.1472088E-007  0.1119003E+04  0.7818608E-02  0.9186866E-01
         -2   -1    0    0    0  501 -0.00000000000E+00  0.00000000000E+00  0.38405579710E+03  0.38405579710E+03  0.00000000000E+00 0.  1.
          2   -1    0    0  501    0  0.00000000000E+00 -0.00000000000E+00 -0.81509425705E+03  0.81509425705E+03  0.00000000000E+00 0. -1.
         23    2    1    2    0    0  0.17405063990E+01  0.11584155069E+03 -0.17526264300E+03  0.22023021859E+03  0.66045900096E+02 0.  0.
        254    2    1    2    0    0 -0.17405063990E+01 -0.11584155069E+03 -0.25577581695E+03  0.97891983556E+03  0.93778488028E+03 0.  0.
        -24    2    4    4    0    0  0.35524025470E+03  0.16627670691E-01  0.17291238470E+03  0.40358775516E+03  0.82393837733E+02 0.  0.
         24    2    4    4    0    0 -0.35698076110E+03 -0.11585817836E+03 -0.42868820165E+03  0.57533208040E+03  0.79843892790E+02 0.  0.
         11    1    3    3    0    0  0.17277166370E+02  0.93478346902E+00 -0.19943035911E+02  0.26402632052E+02  0.00000000000E+00 0.  1.
        -11    1    3    3    0    0 -0.15536659971E+02  0.11490676723E+03 -0.15531960709E+03  0.19382758654E+03  0.00000000000E+00 0. -1.
          4    1    6    6  502    0 -0.76217933120E+02 -0.23093682625E+02 -0.46880046973E+02  0.92413366514E+02  0.00000000000E+00 0. -1.
          3    1    5    5  503    0  0.74976342362E+02 -0.62867588032E+01  0.20107338171E+01  0.75266315844E+02  0.00000000000E+00 0. -1.
         -4    1    5    5    0  503  0.28026391234E+03  0.63033864739E+01  0.17090165088E+03  0.32832143931E+03  0.00000000000E+00 0.  1.
         -3    1    6    6    0  502 -0.28076282798E+03 -0.92764495740E+02 -0.38180815467E+03  0.48291871388E+03  0.00000000000E+00 0.  1.
<mgrwt>
<rscale>  0 0.11190025E+04</rscale>
<asrwt>0</asrwt>
<pdfrwt beam="1">  1        2 0.12539912E+00 0.11190025E+04</pdfrwt>
<pdfrwt beam="2">  1       -2 0.59085508E-01 0.11190025E+04</pdfrwt>
<totfact> 0.89165286E+01</totfact>
</mgrwt>
</event>
<event>
12    1  0.1472088E-007  0.1787340E+04  0.7818608E-02  0.8713061E-01
         -1   -1    0    0    0  501 -0.00000000000E+00  0.00000000000E+00  0.60799428627E+03  0.60799428627E+03  0.00000000000E+00 0.  1.
          1   -1    0    0  501    0  0.00000000000E+00 -0.00000000000E+00 -0.13135747528E+04  0.13135747528E+04  0.00000000000E+00 0. -1.
         23    2    1    2    0    0 -0.14399292415E+03  0.10623679113E+03 -0.94837837336E+03  0.96845545504E+03  0.80400319310E+02 0.  0.
        254    2    1    2    0    0  0.14399292415E+03 -0.10623679113E+03  0.24279790688E+03  0.95311358399E+03  0.90413188331E+03 0.  0.
        -24    2    4    4    0    0 -0.20226465282E+03 -0.71888401355E+02  0.47464828313E+03  0.52706118617E+03  0.80147172460E+02 0.  0.
         24    2    4    4    0    0  0.34625757697E+03 -0.34348389772E+02 -0.23185037626E+03  0.42605239782E+03  0.81804200553E+02 0.  0.
         13    1    3    3    0    0 -0.14430477414E+03  0.10801912138E+03 -0.94941164269E+03  0.96637180511E+03  0.00000000000E+00 0. -1.
        -13    1    3    3    0    0  0.31184999035E+00 -0.17823302566E+01  0.10332693280E+01  0.20836499380E+01  0.00000000000E+00 0.  1.
          2    1    6    6  502    0  0.10576134265E+03  0.21209681967E+02 -0.46919666304E+02  0.11762978915E+03  0.00000000000E+00 0. -1.
          1    1    5    5  503    0 -0.46220430115E+02 -0.27948248111E+02  0.54540176291E+02  0.76759778285E+02  0.00000000000E+00 0. -1.
         -2    1    5    5    0  503 -0.15604422271E+03 -0.43940153244E+02  0.42010810684E+03  0.45030140788E+03  0.00000000000E+00 0.  1.
         -1    1    6    6    0  502  0.24049623432E+03 -0.55558071740E+02 -0.18493070995E+03  0.30842260868E+03  0.00000000000E+00 0.  1.
<mgrwt>
<rscale>  0 0.17873399E+04</rscale>
<asrwt>0</asrwt>
<pdfrwt beam="1">  1        1 0.20208842E+00 0.17873399E+04</pdfrwt>
<pdfrwt beam="2">  1       -1 0.93537583E-01 0.17873399E+04</pdfrwt>
<totfact> 0.92645255E+00</totfact>
</mgrwt>
</event>
<event>
12    1  0.1472088E-007  0.1335338E+04  0.7818608E-02  0.9002002E-01
         -2   -1    0    0    0  501 -0.00000000000E+00  0.00000000000E+00  0.10494075847E+04  0.10494075847E+04  0.00000000000E+00 0. -1.
          2   -1    0    0  501    0  0.00000000000E+00 -0.00000000000E+00 -0.42479405414E+03  0.42479405414E+03  0.00000000000E+00 0.  1.
         23    2    1    2    0    0  0.22746481506E+03 -0.22377511989E+03  0.45448456623E+03  0.56259611756E+03  0.90236490295E+02 0.  0.
        254    2    1    2    0    0 -0.22746481506E+03  0.22377511989E+03  0.17012896429E+03  0.91160552123E+03  0.83681850809E+03 0.  0.
        -24    2    4    4    0    0  0.23314633785E+03 -0.13925635890E+03  0.14816805891E+03  0.31960093024E+03  0.80258535909E+02 0.  0.
         24    2    4    4    0    0 -0.46061115290E+03  0.36303147879E+03  0.21960905374E+02  0.59200459099E+03  0.77670236359E+02 0.  0.
         11    1    3    3    0    0  0.34287275180E+02 -0.68359513992E+02  0.62428403123E+02  0.98721557468E+02  0.00000000000E+00 0.  1.
        -11    1    3    3    0    0  0.19317753988E+03 -0.15541560590E+03  0.39205616311E+03  0.46387456009E+03  0.00000000000E+00 0. -1.
          4    1    6    6  502    0 -0.24561589876E+03  0.21378738305E+03 -0.23061368113E+02  0.32644148262E+03  0.00000000000E+00 0. -1.
          3    1    5    5  503    0  0.41591930825E+02 -0.63380371330E+02  0.53947662144E+02  0.93044669006E+02  0.00000000000E+00 0. -1.
         -4    1    5    5    0  503  0.19155440702E+03 -0.75875987566E+02  0.94220396768E+02  0.22655626124E+03  0.00000000000E+00 0.  1.
         -3    1    6    6    0  502 -0.21499525414E+03  0.14924409574E+03  0.45022273487E+02  0.26556310837E+03  0.00000000000E+00 0.  1.
<mgrwt>
<rscale>  0 0.13353383E+04</rscale>
<asrwt>0</asrwt>
<pdfrwt beam="1">  1        2 0.65352932E-01 0.13353383E+04</pdfrwt>
<pdfrwt beam="2">  1       -2 0.16144732E+00 0.13353383E+04</pdfrwt>
<totfact> 0.17829939E+01</totfact>
</mgrwt>
</event>
<event>
12    1  0.1472088E-007  0.1512021E+04  0.7818608E-02  0.8876498E-01
         -1   -1    0    0    0  501 -0.00000000000E+00  0.00000000000E+00  0.15291900886E+03  0.15291900886E+03  0.00000000000E+00 0.  1.
          1   -1    0    0  501    0  0.00000000000E+00 -0.00000000000E+00 -0.37376129841E+04  0.37376129841E+04  0.00000000000E+00 0. -1.
         23    2    1    2    0    0  0.31513242822E+03  0.25977109956E+03 -0.51439277663E+03  0.66320229370E+03  0.91912361681E+02 0.  0.
        254    2    1    2    0    0 -0.31513242822E+03 -0.25977109956E+03 -0.30703011986E+04  0.32273296992E+04  0.90670726589E+03 0.  0.
        -24    2    4    4    0    0 -0.26563492336E+03 -0.58925529196E+03 -0.20182017825E+04  0.21206773546E+04  0.79688743620E+02 0.  0.
         24    2    4    4    0    0 -0.49497504867E+02  0.32948419240E+03 -0.10520994160E+04  0.11066523446E+04  0.82197290089E+02 0.  0.
         13    1    3    3    0    0  0.27930247946E+03  0.21093255838E+03 -0.47833058228E+03  0.59270782445E+03  0.00000000000E+00 0.  1.
        -13    1    3    3    0    0  0.35829948768E+02  0.48838541186E+02 -0.36062194351E+02  0.70494469253E+02  0.00000000000E+00 0. -1.
          2    1    6    6  502    0 -0.41826980287E+02  0.28487665671E+03 -0.79356546308E+03  0.84418620577E+03  0.00000000000E+00 0. -1.
          3    1    5    5  503    0 -0.16922464669E+03 -0.28323322308E+03 -0.10634316090E+04  0.11134382905E+04  0.00000000000E+00 0. -1.
         -4    1    5    5    0  503 -0.96410276663E+02 -0.30602206888E+03 -0.95477017349E+03  0.10072390641E+04  0.00000000000E+00 0.  1.
         -1    1    6    6    0  502 -0.76705245805E+01  0.44607535689E+02 -0.25853395296E+03  0.26246613881E+03  0.00000000000E+00 0.  1.
<mgrwt>
<rscale>  0 0.15120213E+04</rscale>
<asrwt>0</asrwt>
<pdfrwt beam="1">  1        1 0.57501733E+00 0.15120213E+04</pdfrwt>
<pdfrwt beam="2">  1       -1 0.23526003E-01 0.15120213E+04</pdfrwt>
<totfact> 0.24489369E+00</totfact>
</mgrwt>
</event>
<event>
12    1  0.1472088E-007  0.1471775E+04  0.7818608E-02  0.8903442E-01
         -1   -1    0    0    0  501 -0.00000000000E+00  0.00000000000E+00  0.24868953367E+03  0.24868953367E+03  0.00000000000E+00 0.  1.
          1   -1    0    0  501    0  0.00000000000E+00 -0.00000000000E+00 -0.21775362071E+04  0.21775362071E+04  0.00000000000E+00 0. -1.
         23    2    1    2    0    0  0.45999382396E+03  0.18380070853E+03 -0.49279492151E+03  0.70445587094E+03  0.89633815593E+02 0.  0.
        254    2    1    2    0    0 -0.45999382396E+03 -0.18380070853E+03 -0.14360517519E+04  0.17217698698E+04  0.81047506556E+03 0.  0.
        -24    2    4    4    0    0 -0.14359160277E+03 -0.36886557360E+03 -0.12285465215E+04  0.12932573528E+04  0.80670102203E+02 0.  0.
         24    2    4    4    0    0 -0.31640222118E+03  0.18506486507E+03 -0.20750523041E+03  0.42851251699E+03  0.78773007510E+02 0.  0.
         13    1    3    3    0    0  0.68066946357E+02 -0.43173773017E+01 -0.56833875605E+02  0.88779718120E+02  0.00000000000E+00 0. -1.
        -13    1    3    3    0    0  0.39192687760E+03  0.18811808583E+03 -0.43596104590E+03  0.61567615282E+03  0.00000000000E+00 0.  1.
          2    1    6    6  502    0 -0.14092850900E+02  0.54778834611E+01 -0.32274560392E+02  0.35640747778E+02  0.00000000000E+00 0. -1.
          3    1    5    5  503    0 -0.16436400976E+01 -0.11737362850E+02 -0.98735847961E+01  0.15425787376E+02  0.00000000000E+00 0. -1.
         -4    1    5    5    0  503 -0.14194796268E+03 -0.35712821075E+03 -0.12186729367E+04  0.12778315654E+04  0.00000000000E+00 0.  1.
         -1    1    6    6    0  502 -0.30230937029E+03  0.17958698161E+03 -0.17523067002E+03  0.39287176921E+03  0.00000000000E+00 0.  1.
<mgrwt>
<rscale>  0 0.14717751E+04</rscale>
<asrwt>0</asrwt>
<pdfrwt beam="1">  1        1 0.33500557E+00 0.14717751E+04</pdfrwt>
<pdfrwt beam="2">  1       -1 0.38259929E-01 0.14717751E+04</pdfrwt>
<totfact> 0.14473676E+01</totfact>
</mgrwt>
</event>
<event>
12    1  0.1472088E-007  0.4437947E+04  0.7818608E-02  0.7921591E-01
          2   -1    0    0  501    0  0.00000000000E+00  0.00000000000E+00  0.30942934067E+04  0.30942934067E+04  0.00000000000E+00 0.  1.
         -2   -1    0    0    0  501 -0.00000000000E+00 -0.00000000000E+00 -0.15912656032E+04  0.15912656032E+04  0.00000000000E+00 0. -1.
         23    2    1    2    0    0  0.19080986533E+04  0.12443918952E+03 -0.26250117279E+03  0.19323455205E+04  0.93417140086E+02 0.  0.
        254    2    1    2    0    0 -0.19080986533E+04 -0.12443918952E+03  0.17655289762E+04  0.27532134894E+04  0.89820174239E+03 0.  0.
        -24    2    4    4    0    0 -0.72459594640E+03 -0.18087408956E+03  0.18024457009E+03  0.77246651723E+03  0.80384658820E+02 0.  0.
         24    2    4    4    0    0 -0.11835027069E+04  0.56434900038E+02  0.15852844061E+04  0.19807469722E+04  0.79802033270E+02 0.  0.
         11    1    3    3    0    0  0.28950720426E+03  0.22512333059E+02 -0.73756716013E+02  0.29960186851E+03  0.00000000000E+00 0.  1.
        -11    1    3    3    0    0  0.16185914490E+04  0.10192685646E+03 -0.18874445677E+03  0.16327436519E+04  0.00000000000E+00 0. -1.
          2    1    6    6  502    0 -0.20205821805E+03  0.39700212489E+02  0.27961539154E+03  0.34725840168E+03  0.00000000000E+00 0. -1.
          3    1    5    5  503    0 -0.34389626245E+03 -0.53993676472E+02  0.57490603843E+02  0.35282449738E+03  0.00000000000E+00 0. -1.
         -4    1    5    5    0  503 -0.38069968395E+03 -0.12688041309E+03  0.12275396624E+03  0.41964201984E+03  0.00000000000E+00 0.  1.
         -1    1    6    6    0  502 -0.98144448885E+03  0.16734687548E+02  0.13056690146E+04  0.16334885705E+04  0.00000000000E+00 0.  1.
<mgrwt>
<rscale>  0 0.44379467E+04</rscale>
<asrwt>0</asrwt>
<pdfrwt beam="1">  1        2 0.47604514E+00 0.44379467E+04</pdfrwt>
<pdfrwt beam="2">  1       -2 0.24481009E+00 0.44379467E+04</pdfrwt>
<totfact> 0.79879899E-02</totfact>
</mgrwt>
</event>
<event>
12    1  0.1472088E-007  0.1990698E+04  0.7818608E-02  0.8610982E-01
         -2   -1    0    0    0  501 -0.00000000000E+00  0.00000000000E+00  0.11697138723E+04  0.11697138723E+04  0.00000000000E+00 0.  1.
          2   -1    0    0  501    0  0.00000000000E+00 -0.00000000000E+00 -0.84697616261E+03  0.84697616261E+03  0.00000000000E+00 0. -1.
         23    2    1    2    0    0  0.40153884177E+03  0.46750255003E+02  0.70139479075E+03  0.81453943161E+03  0.90004474156E+02 0.  0.
        254    2    1    2    0    0 -0.40153884177E+03 -0.46750255003E+02 -0.37865708110E+03  0.12021506033E+04  0.10669422946E+04 0.  0.
        -24    2    4    4    0    0 -0.53228245404E+02  0.45046556550E+03  0.36734943985E+02  0.46223993846E+03  0.81017484477E+02 0.  0.
         24    2    4    4    0    0 -0.34831059637E+03 -0.49721582050E+03 -0.41539202509E+03  0.73991066479E+03  0.79833662498E+02 0.  0.
         11    1    3    3    0    0  0.27561772434E+03  0.72781794388E+02  0.50157456845E+03  0.57692232344E+03  0.00000000000E+00 0.  1.
        -11    1    3    3    0    0  0.12592111743E+03 -0.26031539385E+02  0.19982022230E+03  0.23761710817E+03  0.00000000000E+00 0. -1.
          2    1    6    6  502    0 -0.27394637415E+03 -0.42766435613E+03 -0.37035265943E+03  0.62857339250E+03  0.00000000000E+00 0. -1.
          1    1    5    5  503    0 -0.23652354897E+02  0.39986255384E+03  0.19035315103E+02  0.40101351483E+03  0.00000000000E+00 0. -1.
         -2    1    5    5    0  503 -0.29575890507E+02  0.50603011661E+02  0.17699628882E+02  0.61226423634E+02  0.00000000000E+00 0.  1.
         -1    1    6    6    0  502 -0.74364222220E+02 -0.69551464377E+02 -0.45039365658E+02  0.11133727230E+03  0.00000000000E+00 0.  1.
<mgrwt>
<rscale>  0 0.19906981E+04</rscale>
<asrwt>0</asrwt>
<pdfrwt beam="1">  1        2 0.13030402E+00 0.19906981E+04</pdfrwt>
<pdfrwt beam="2">  1       -2 0.17995598E+00 0.19906981E+04</pdfrwt>
<totfact> 0.53784034E+00</totfact>
</mgrwt>
</event>
<event>
12    1  0.1472088E-007  0.1788879E+04  0.7818608E-02  0.8712236E-01
         -2   -1    0    0    0  501 -0.00000000000E+00  0.00000000000E+00  0.26691627677E+03  0.26691627677E+03  0.00000000000E+00 0.  1.
          2   -1    0    0  501    0  0.00000000000E+00 -0.00000000000E+00 -0.29972754599E+04  0.29972754599E+04  0.00000000000E+00 0. -1.
         23    2    1    2    0    0 -0.49829059855E+03  0.11153165621E+03 -0.24956674023E+03  0.57532253258E+03  0.89328762008E+02 0.  0.
        254    2    1    2    0    0  0.49829059855E+03 -0.11153165621E+03 -0.24807924429E+04  0.26888692041E+04  0.90274781694E+03 0.  0.
        -24    2    4    4    0    0  0.64028075548E+03 -0.30838346409E+03 -0.13300050048E+04  0.15100957565E+04  0.80100401829E+02 0.  0.
         24    2    4    4    0    0 -0.14199015693E+03  0.19685180788E+03 -0.11507874382E+04  0.11787734476E+04  0.79267105416E+02 0.  0.
         11    1    3    3    0    0 -0.48557353328E+03  0.11602092120E+03 -0.22565756955E+03  0.54787211014E+03  0.00000000000E+00 0.  1.
        -11    1    3    3    0    0 -0.12717065276E+02 -0.44892649901E+01 -0.23909170683E+02  0.27450422440E+02  0.00000000000E+00 0. -1.
          2    1    6    6  502    0 -0.13074377486E+03  0.14582493611E+03 -0.77471009795E+03  0.79908358920E+03  0.00000000000E+00 0. -1.
          3    1    5    5  503    0  0.62192165348E+03 -0.28597355208E+03 -0.12938358120E+04  0.14637549399E+04  0.00000000000E+00 0. -1.
         -4    1    5    5    0  503  0.18359101994E+02 -0.22409912009E+02 -0.36169192767E+02  0.46340816649E+02  0.00000000000E+00 0.  1.
         -1    1    6    6    0  502 -0.11246382065E+02  0.51026871766E+02 -0.37607734023E+03  0.37968985842E+03  0.00000000000E+00 0.  1.
<mgrwt>
<rscale>  0 0.17888785E+04</rscale>
<asrwt>0</asrwt>
<pdfrwt beam="1">  1        2 0.46111933E+00 0.17888785E+04</pdfrwt>
<pdfrwt beam="2">  1       -2 0.41064040E-01 0.17888785E+04</pdfrwt>
<totfact> 0.93141203E+00</totfact>
</mgrwt>
</event>
<event>
12    1  0.1472088E-007  0.2121972E+04  0.7818608E-02  0.8551626E-01
         -2   -1    0    0    0  501 -0.00000000000E+00  0.00000000000E+00  0.44664751388E+03  0.44664751388E+03  0.00000000000E+00 0.  1.
          2   -1    0    0  501    0  0.00000000000E+00 -0.00000000000E+00 -0.25203128273E+04  0.25203128273E+04  0.00000000000E+00 0. -1.
         23    2    1    2    0    0 -0.57601464337E+03 -0.47737279011E+03 -0.14821542536E+04  0.16626491624E+04  0.89125505104E+02 0.  0.
        254    2    1    2    0    0  0.57601464337E+03  0.47737279011E+03 -0.59151105976E+03  0.13043111787E+04  0.88975539730E+03 0.  0.
        -24    2    4    4    0    0 -0.11588682187E+03  0.86340158554E+02  0.14491278289E+03  0.21781646762E+03  0.74564874158E+02 0.  0.
         24    2    4    4    0    0  0.69190146524E+03  0.39103263156E+03 -0.73642384265E+03  0.10864947111E+04  0.80724994315E+02 0.  0.
         13    1    3    3    0    0 -0.14367034335E+03 -0.14151278735E+03 -0.48142985751E+03  0.52195952357E+03  0.00000000000E+00 0. -1.
        -13    1    3    3    0    0 -0.43234430002E+03 -0.33586000276E+03 -0.10007243961E+04  0.11406896389E+04  0.00000000000E+00 0.  1.
          4    1    6    6  502    0  0.16841934184E+02 -0.27311834762E+01 -0.11852461985E+02  0.20774767516E+02  0.00000000000E+00 0. -1.
          3    1    5    5  503    0 -0.71745865413E+02  0.19071831030E+02  0.36266845174E+02  0.82622563514E+02  0.00000000000E+00 0. -1.
         -4    1    5    5    0  503 -0.44140956458E+02  0.67268327524E+02  0.10864593771E+03  0.13519390410E+03  0.00000000000E+00 0.  1.
         -3    1    6    6    0  502  0.67505953105E+03  0.39376381503E+03 -0.72457138067E+03  0.10657199436E+04  0.00000000000E+00 0.  1.
<mgrwt>
<rscale>  0 0.21219722E+04</rscale>
<asrwt>0</asrwt>
<pdfrwt beam="1">  1        2 0.38774043E+00 0.21219722E+04</pdfrwt>
<pdfrwt beam="2">  1       -2 0.68715003E-01 0.21219722E+04</pdfrwt>
<totfact> 0.60340321E+00</totfact>
</mgrwt>
</event>
<event>
12    1  0.1472088E-007  0.2303054E+04  0.7818608E-02  0.8476718E-01
         -1   -1    0    0    0  501 -0.00000000000E+00  0.00000000000E+00  0.14074484854E+04  0.14074484854E+04  0.00000000000E+00 0.  1.
          1   -1    0    0  501    0  0.00000000000E+00 -0.00000000000E+00 -0.94214054470E+03  0.94214054470E+03  0.00000000000E+00 0. -1.
         23    2    1    2    0    0 -0.15536129639E+03 -0.17325157481E+03  0.11606444591E+04  0.11873696115E+04  0.92724286199E+02 0.  0.
        254    2    1    2    0    0  0.15536129639E+03  0.17325157481E+03 -0.69533651847E+03  0.11622194185E+04  0.90172493718E+03 0.  0.
        -24    2    4    4    0    0  0.37804998926E+03  0.43055256594E+03 -0.47846007376E+03  0.75072844543E+03  0.79823869703E+02 0.  0.
         24    2    4    4    0    0 -0.22268869287E+03 -0.25730099113E+03 -0.21687644470E+03  0.41149097312E+03  0.80593887606E+02 0.  0.
         13    1    3    3    0    0 -0.18504374012E+02 -0.45218320987E+02  0.11323394964E+03  0.12332491947E+03  0.00000000000E+00 0. -1.
        -13    1    3    3    0    0 -0.13685692237E+03 -0.12803325382E+03  0.10474105095E+04  0.10640446920E+04  0.00000000000E+00 0.  1.
          2    1    6    6  502    0  0.69687644619E+01 -0.10061408384E+02 -0.82687450032E+01  0.14770503062E+02  0.00000000000E+00 0. -1.
          3    1    5    5  503    0  0.72734312776E+02  0.11966037771E+03 -0.86207101058E+02  0.16444011226E+03  0.00000000000E+00 0. -1.
         -4    1    5    5    0  503  0.30531567648E+03  0.31089218823E+03 -0.39225297271E+03  0.58628833316E+03  0.00000000000E+00 0.  1.
         -1    1    6    6    0  502 -0.22965745733E+03 -0.24723958275E+03 -0.20860769970E+03  0.39672047005E+03  0.00000000000E+00 0.  1.
<mgrwt>
<rscale>  0 0.23030539E+04</rscale>
<asrwt>0</asrwt>
<pdfrwt beam="1">  1        1 0.14494470E+00 0.23030539E+04</pdfrwt>
<pdfrwt beam="2">  1       -1 0.21653054E+00 0.23030539E+04</pdfrwt>
<totfact> 0.17645578E+00</totfact>
</mgrwt>
</event>
<event>
12    1  0.1472088E-007  0.2000455E+04  0.7818608E-02  0.8606408E-01
         -2   -1    0    0    0  501 -0.00000000000E+00  0.00000000000E+00  0.42858516534E+03  0.42858516534E+03  0.00000000000E+00 0.  1.
          2   -1    0    0  501    0  0.00000000000E+00 -0.00000000000E+00 -0.23343211844E+04  0.23343211844E+04  0.00000000000E+00 0. -1.
         23    2    1    2    0    0  0.43824974007E+03 -0.38976657173E+03 -0.25950845754E+02  0.59397221029E+03  0.90270289071E+02 0.  0.
        254    2    1    2    0    0 -0.43824974007E+03  0.38976657173E+03 -0.18797851733E+04  0.21689341395E+04  0.90923164731E+03 0.  0.
        -24    2    4    4    0    0 -0.30233687206E+03  0.63573434746E+03 -0.89431925557E+03  0.11410368739E+04  0.81194038455E+02 0.  0.
         24    2    4    4    0    0 -0.13591286801E+03 -0.24596777573E+03 -0.98546591778E+03  0.10278972656E+04  0.80357073292E+02 0.  0.
         13    1    3    3    0    0  0.38906881526E+03 -0.32776178283E+03  0.56433392265E+01  0.50875748306E+03  0.00000000000E+00 0.  1.
        -13    1    3    3    0    0  0.49180924806E+02 -0.62004788906E+02 -0.31594184981E+02  0.85214727229E+02  0.00000000000E+00 0. -1.
          4    1    6    6  502    0 -0.79417444316E+02 -0.19962832367E+03 -0.65074852674E+03  0.68529719329E+03  0.00000000000E+00 0. -1.
          1    1    5    5  503    0 -0.25963927979E+03  0.46835493609E+03 -0.69207309873E+03  0.87506232678E+03  0.00000000000E+00 0. -1.
         -2    1    5    5    0  503 -0.42697592265E+02  0.16737941138E+03 -0.20224615684E+03  0.26597454708E+03  0.00000000000E+00 0.  1.
         -3    1    6    6    0  502 -0.56495423689E+02 -0.46339452059E+02 -0.33471739104E+03  0.34260007236E+03  0.00000000000E+00 0.  1.
<mgrwt>
<rscale>  0 0.20004554E+04</rscale>
<asrwt>0</asrwt>
<pdfrwt beam="1">  1        2 0.35912634E+00 0.20004554E+04</pdfrwt>
<pdfrwt beam="2">  1       -2 0.65936178E-01 0.20004554E+04</pdfrwt>
<totfact> 0.85258924E+00</totfact>
</mgrwt>
</event>
<event>
12    1  0.1472088E-007  0.2090750E+04  0.7818608E-02  0.8565329E-01
         -1   -1    0    0    0  501 -0.00000000000E+00  0.00000000000E+00  0.72444191729E+03  0.72444191729E+03  0.00000000000E+00 0.  1.
          1   -1    0    0  501    0  0.00000000000E+00 -0.00000000000E+00 -0.15084842063E+04  0.15084842063E+04  0.00000000000E+00 0. -1.
         23    2    1    2    0    0  0.71009606086E+03 -0.16881865158E+03  0.13055235293E+03  0.74737852237E+03  0.93779454404E+02 0.  0.
        254    2    1    2    0    0 -0.71009606086E+03  0.16881865158E+03 -0.91459464197E+03  0.14855476013E+04  0.91522246678E+03 0.  0.
        -24    2    4    4    0    0  0.20172310803E+03 -0.62746902174E+02 -0.20491118658E+03  0.30435202467E+03  0.77538213060E+02 0.  0.
         24    2    4    4    0    0 -0.91181916890E+03  0.23156555375E+03 -0.70968345539E+03  0.11811955766E+04  0.80842939345E+02 0.  0.
         13    1    3    3    0    0  0.66335829671E+03 -0.15092175682E+03  0.14436819396E+03  0.69545940351E+03  0.00000000000E+00 0.  1.
        -13    1    3    3    0    0  0.46737764147E+02 -0.17896894756E+02 -0.13815841035E+02  0.51919118857E+02  0.00000000000E+00 0. -1.
          2    1    6    6  502    0 -0.35949947269E+03  0.65730910307E+02 -0.31395041388E+03  0.48179382085E+03  0.00000000000E+00 0. -1.
          1    1    5    5  503    0  0.83214119102E+02 -0.17567338478E+02 -0.34161537402E+02  0.91652668465E+02  0.00000000000E+00 0. -1.
         -2    1    5    5    0  503  0.11850898893E+03 -0.45179563696E+02 -0.17074964918E+03  0.21269935620E+03  0.00000000000E+00 0.  1.
         -1    1    6    6    0  502 -0.55231969620E+03  0.16583464345E+03 -0.39573304151E+03  0.69940175574E+03  0.00000000000E+00 0.  1.
<mgrwt>
<rscale>  0 0.20907503E+04</rscale>
<asrwt>0</asrwt>
<pdfrwt beam="1">  1        1 0.23207449E+00 0.20907503E+04</pdfrwt>
<pdfrwt beam="2">  1       -1 0.11145260E+00 0.20907503E+04</pdfrwt>
<totfact> 0.43942338E+00</totfact>
</mgrwt>
</event>
<event>
12    1  0.1472088E-007  0.1596684E+04  0.7818608E-02  0.8822588E-01
          2   -1    0    0  501    0  0.00000000000E+00  0.00000000000E+00  0.10644139150E+04  0.10644139150E+04  0.00000000000E+00 0. -1.
         -2   -1    0    0    0  501 -0.00000000000E+00 -0.00000000000E+00 -0.59877991070E+03  0.59877991070E+03  0.00000000000E+00 0.  1.
         23    2    1    2    0    0 -0.11077503037E+03  0.69132649557E+01 -0.32460691805E+03  0.35511921623E+03  0.91766583831E+02 0.  0.
        254    2    1    2    0    0  0.11077503037E+03 -0.69132649557E+01  0.79024092230E+03  0.13080746094E+04  0.10364649381E+04 0.  0.
        -24    2    4    4    0    0 -0.20065709532E+03  0.31257175364E+03  0.76603277490E+03  0.85518857753E+03  0.81098211097E+02 0.  0.
         24    2    4    4    0    0  0.31143212569E+03 -0.31948501860E+03  0.24208147401E+02  0.45288603189E+03  0.73885570077E+02 0.  0.
         13    1    3    3    0    0 -0.26115574383E+02  0.44301462815E+02 -0.11196229152E+03  0.12320794436E+03  0.00000000000E+00 0. -1.
        -13    1    3    3    0    0 -0.84659455985E+02 -0.37388197860E+02 -0.21264462653E+03  0.23191127187E+03  0.00000000000E+00 0.  1.
          2    1    6    6  502    0 -0.31886469488E+01 -0.72969348406E+01 -0.37068498201E+01  0.87837044020E+01  0.00000000000E+00 0. -1.
          1    1    5    5  503    0 -0.75069573062E+02  0.13535874569E+03  0.23434749690E+03  0.28084903442E+03  0.00000000000E+00 0. -1.
         -2    1    5    5    0  503 -0.12558752226E+03  0.17721300796E+03  0.53168527800E+03  0.57433954311E+03  0.00000000000E+00 0.  1.
         -1    1    6    6    0  502  0.31462077264E+03 -0.31218808376E+03  0.27914997221E+02  0.44410232749E+03  0.00000000000E+00 0.  1.
<mgrwt>
<rscale>  0 0.15966836E+04</rscale>
<asrwt>0</asrwt>
<pdfrwt beam="1">  1        2 0.16375599E+00 0.15966836E+04</pdfrwt>
<pdfrwt beam="2">  1       -2 0.92119987E-01 0.15966836E+04</pdfrwt>
<totfact> 0.22023424E+01</totfact>
</mgrwt>
</event>
<event>
12    1  0.1472088E-007  0.2008105E+04  0.7818608E-02  0.8602841E-01
         -2   -1    0    0    0  501 -0.00000000000E+00  0.00000000000E+00  0.14069302981E+04  0.14069302981E+04  0.00000000000E+00 0. -1.
          2   -1    0    0  501    0  0.00000000000E+00 -0.00000000000E+00 -0.71653939827E+03  0.71653939827E+03  0.00000000000E+00 0.  1.
         23    2    1    2    0    0  0.36304687240E+03 -0.52690146430E+03 -0.28852792576E+03  0.70782105761E+03  0.91291297511E+02 0.  0.
        254    2    1    2    0    0 -0.36304687240E+03  0.52690146430E+03  0.97891882559E+03  0.14156486388E+04  0.79771600004E+03 0.  0.
        -24    2    4    4    0    0  0.56577753950E+02  0.30846872178E+03  0.86412130114E+03  0.92260863823E+03  0.78403327130E+02 0.  0.
         24    2    4    4    0    0 -0.41962462635E+03  0.21843274253E+03  0.11479752445E+03  0.49304000053E+03  0.78181074821E+02 0.  0.
         13    1    3    3    0    0  0.32475123603E+03 -0.45606962732E+03 -0.28240019777E+03  0.62706677632E+03  0.00000000000E+00 0.  1.
        -13    1    3    3    0    0  0.38295636375E+02 -0.70831836984E+02 -0.61277279943E+01  0.80754281288E+02  0.00000000000E+00 0. -1.
          4    1    6    6  502    0 -0.40462590925E+03  0.18935935031E+03  0.10840015894E+03  0.45970608485E+03  0.00000000000E+00 0. -1.
          1    1    5    5  503    0  0.67436572728E+02  0.28853448215E+03  0.83267254359E+03  0.88382317438E+03  0.00000000000E+00 0. -1.
         -2    1    5    5    0  503 -0.10858818777E+02  0.19934239623E+02  0.31448757554E+02  0.38785463853E+02  0.00000000000E+00 0.  1.
         -3    1    6    6    0  502 -0.14998717099E+02  0.29073392217E+02  0.63973655102E+01  0.33333915688E+02  0.00000000000E+00 0.  1.
<mgrwt>
<rscale>  0 0.20081046E+04</rscale>
<asrwt>0</asrwt>
<pdfrwt beam="1">  1        2 0.11023683E+00 0.20081046E+04</pdfrwt>
<pdfrwt beam="2">  1       -2 0.21645081E+00 0.20081046E+04</pdfrwt>
<totfact> 0.38422124E+00</totfact>
</mgrwt>
</event>
<event>
12    1  0.1472088E-007  0.1108873E+04  0.7818608E-02  0.9196586E-01
         -1   -1    0    0    0  501 -0.00000000000E+00  0.00000000000E+00  0.44696868033E+03  0.44696868033E+03  0.00000000000E+00 0.  1.
          1   -1    0    0  501    0  0.00000000000E+00 -0.00000000000E+00 -0.68774409044E+03  0.68774409044E+03  0.00000000000E+00 0. -1.
         23    2    1    2    0    0 -0.14753458545E+03  0.66902821351E+02 -0.80346016267E+02  0.20182225849E+03  0.89634258411E+02 0.  0.
        254    2    1    2    0    0  0.14753458545E+03 -0.66902821351E+02 -0.16042939384E+03  0.93289051229E+03  0.90460194345E+03 0.  0.
        -24    2    4    4    0    0  0.27113788985E+03 -0.39540730635E+03  0.89282101022E+02  0.49487590956E+03  0.84072463222E+02 0.  0.
         24    2    4    4    0    0 -0.12360330440E+03  0.32850448500E+03 -0.24971149486E+03  0.43801460272E+03  0.79422843118E+02 0.  0.
         13    1    3    3    0    0 -0.14889559963E+03  0.69789904701E+02 -0.92900927609E+02  0.18886797701E+03  0.00000000000E+00 0. -1.
        -13    1    3    3    0    0  0.13610141789E+01 -0.28870833493E+01  0.12554911342E+02  0.12954281480E+02  0.00000000000E+00 0.  1.
          4    1    6    6  502    0 -0.54358977721E+01  0.11621010665E+03 -0.69564425863E+02  0.13554905834E+03  0.00000000000E+00 0. -1.
          3    1    5    5  503    0  0.70557050112E+02 -0.16642381106E+03  0.52614676436E+02  0.18826440552E+03  0.00000000000E+00 0. -1.
         -4    1    5    5    0  503  0.20058083974E+03 -0.22898349529E+03  0.36667424586E+02  0.30661150405E+03  0.00000000000E+00 0.  1.
         -3    1    6    6    0  502 -0.11816740663E+03  0.21229437835E+03 -0.18014706900E+03  0.30246554438E+03  0.00000000000E+00 0.  1.
<mgrwt>
<rscale>  0 0.11088734E+04</rscale>
<asrwt>0</asrwt>
<pdfrwt beam="1">  1        1 0.10580678E+00 0.11088734E+04</pdfrwt>
<pdfrwt beam="2">  1       -1 0.68764413E-01 0.11088734E+04</pdfrwt>
<totfact> 0.59665115E+01</totfact>
</mgrwt>
</event>
<event>
12    1  0.1472088E-007  0.1664346E+04  0.7818608E-02  0.8781964E-01
         -1   -1    0    0    0  501 -0.00000000000E+00  0.00000000000E+00  0.78188890255E+03  0.78188890255E+03  0.00000000000E+00 0.  1.
          1   -1    0    0  501    0  0.00000000000E+00 -0.00000000000E+00 -0.88569118090E+03  0.88569118090E+03  0.00000000000E+00 0. -1.
         23    2    1    2    0    0 -0.42526613050E+03 -0.33719850240E+03 -0.25370998391E+03  0.60681565130E+03  0.96448778897E+02 0.  0.
        254    2    1    2    0    0  0.42526613050E+03  0.33719850240E+03  0.14990770556E+03  0.10607644322E+04  0.89899652311E+03 0.  0.
        -24    2    4    4    0    0  0.13935506147E+03  0.61721840637E+03  0.47831674341E+02  0.64024102061E+03  0.85101710225E+02 0.  0.
         24    2    4    4    0    0  0.28591106903E+03 -0.28001990397E+03  0.10207603122E+03  0.42052341155E+03  0.79146304397E+02 0.  0.
         13    1    3    3    0    0 -0.36197010584E+03 -0.30355663496E+03 -0.18444749694E+03  0.50713890334E+03  0.00000000000E+00 0.  1.
        -13    1    3    3    0    0 -0.63296024659E+02 -0.33641867445E+02 -0.69262486971E+02  0.99676747962E+02  0.00000000000E+00 0. -1.
          2    1    6    6  502    0  0.12355496743E+03 -0.13931812149E+03  0.91237133608E+01  0.18643661415E+03  0.00000000000E+00 0. -1.
          1    1    5    5  503    0  0.11407158192E+03  0.52558135747E+03  0.70763084222E+02  0.54245322675E+03  0.00000000000E+00 0. -1.
         -2    1    5    5    0  503  0.25283479551E+02  0.91637048900E+02 -0.22931409881E+02  0.97787793862E+02  0.00000000000E+00 0.  1.
         -1    1    6    6    0  502  0.16235610161E+03 -0.14070178248E+03  0.92952317858E+02  0.23408679740E+03  0.00000000000E+00 0.  1.
<mgrwt>
<rscale>  0 0.16643462E+04</rscale>
<asrwt>0</asrwt>
<pdfrwt beam="1">  1        1 0.13626018E+00 0.16643462E+04</pdfrwt>
<pdfrwt beam="2">  1       -1 0.12029060E+00 0.16643462E+04</pdfrwt>
<totfact> 0.10985239E+01</totfact>
</mgrwt>
</event>
<event>
12    1  0.1472088E-007  0.1536709E+04  0.7818608E-02  0.8860402E-01
          2   -1    0    0  501    0  0.00000000000E+00  0.00000000000E+00  0.76401118082E+03  0.76401118082E+03  0.00000000000E+00 0. -1.
         -2   -1    0    0    0  501 -0.00000000000E+00 -0.00000000000E+00 -0.77272235435E+03  0.77272235435E+03  0.00000000000E+00 0.  1.
         23    2    1    2    0    0  0.28811954875E+03  0.18155936768E+03  0.35498031783E+03  0.50688786680E+03  0.12226039871E+03 0.  0.
        254    2    1    2    0    0 -0.28811954875E+03 -0.18155936768E+03 -0.36369149135E+03  0.10298456684E+04  0.90129569034E+03 0.  0.
        -24    2    4    4    0    0  0.24902892005E+03 -0.41363156478E+02 -0.38676315523E+03  0.46840243106E+03  0.78030669876E+02 0.  0.
         24    2    4    4    0    0 -0.53714846881E+03 -0.14019621120E+03  0.23071663882E+02  0.56144323731E+03  0.80639642045E+02 0.  0.
         11    1    3    3    0    0  0.17111924917E+03  0.69433643863E+02  0.11578243914E+03  0.21796422080E+03  0.00000000000E+00 0.  1.
        -11    1    3    3    0    0  0.11700029958E+03  0.11212572382E+03  0.23919787869E+03  0.28892364599E+03  0.00000000000E+00 0. -1.
          4    1    6    6  502    0 -0.66557899085E+02 -0.13438288200E+02  0.29512398819E+02  0.74037309544E+02  0.00000000000E+00 0. -1.
          1    1    5    5  503    0  0.26164825805E+02  0.19666990988E+02 -0.57217512585E+02  0.65918376727E+02  0.00000000000E+00 0. -1.
         -2    1    5    5    0  503  0.22286409425E+03 -0.61030147465E+02 -0.32954564265E+03  0.40248405434E+03  0.00000000000E+00 0.  1.
         -3    1    6    6    0  502 -0.47059056972E+03 -0.12675792300E+03 -0.64407349371E+01  0.48740592777E+03  0.00000000000E+00 0.  1.
<mgrwt>
<rscale>  0 0.15367088E+04</rscale>
<asrwt>0</asrwt>
<pdfrwt beam="1">  1        2 0.11754018E+00 0.15367088E+04</pdfrwt>
<pdfrwt beam="2">  1       -2 0.11888036E+00 0.15367088E+04</pdfrwt>
<totfact> 0.19169021E+01</totfact>
</mgrwt>
</event>
<event>
12    1  0.1472088E-007  0.1120335E+04  0.7818608E-02  0.9185596E-01
          1   -1    0    0  501    0  0.00000000000E+00  0.00000000000E+00  0.31001667864E+03  0.31001667864E+03  0.00000000000E+00 0. -1.
         -1   -1    0    0    0  501 -0.00000000000E+00 -0.00000000000E+00 -0.10121630751E+04  0.10121630751E+04  0.00000000000E+00 0.  1.
         23    2    1    2    0    0 -0.72774641668E+02  0.14561336042E+03 -0.26105025707E+02  0.18832752741E+03  0.91029588647E+02 0.  0.
        254    2    1    2    0    0  0.72774641668E+02 -0.14561336042E+03 -0.67604137076E+03  0.11338522263E+04  0.89559451596E+03 0.  0.
        -24    2    4    4    0    0  0.13535527629E+02 -0.24921037315E+03 -0.86018244766E+03  0.89896401395E+03  0.77028790289E+02 0.  0.
         24    2    4    4    0    0  0.59239114039E+02  0.10359701273E+03  0.18414107690E+03  0.23488821240E+03  0.83802878499E+02 0.  0.
         13    1    3    3    0    0 -0.75567794149E+02  0.10760742695E+03 -0.52909291627E+02  0.14173652665E+03  0.00000000000E+00 0.  1.
        -13    1    3    3    0    0  0.27931524808E+01  0.38005933472E+02  0.26804265920E+02  0.46591000755E+02  0.00000000000E+00 0. -1.
          2    1    6    6  502    0 -0.21601682829E+02  0.18393032138E+02  0.35628737284E+02  0.45544958587E+02  0.00000000000E+00 0. -1.
          3    1    5    5  503    0  0.28311930037E+02 -0.29161529745E+02 -0.13174070881E+03  0.13786796059E+03  0.00000000000E+00 0. -1.
         -4    1    5    5    0  503 -0.14776402408E+02 -0.22004884340E+03 -0.72844173884E+03  0.76109605336E+03  0.00000000000E+00 0.  1.
         -1    1    6    6    0  502  0.80840796868E+02  0.85203980589E+02  0.14851233961E+03  0.18934325381E+03  0.00000000000E+00 0.  1.
<mgrwt>
<rscale>  0 0.11203347E+04</rscale>
<asrwt>0</asrwt>
<pdfrwt beam="1">  1        1 0.47694874E-01 0.11203347E+04</pdfrwt>
<pdfrwt beam="2">  1       -1 0.15571740E+00 0.11203347E+04</pdfrwt>
<totfact> 0.26338073E+01</totfact>
</mgrwt>
</event>
<event>
12    1  0.1472088E-007  0.1352596E+04  0.7818608E-02  0.8988866E-01
          2   -1    0    0  501    0  0.00000000000E+00  0.00000000000E+00  0.13399232201E+04  0.13399232201E+04  0.00000000000E+00 0. -1.
         -2   -1    0    0    0  501 -0.00000000000E+00 -0.00000000000E+00 -0.34134701054E+03  0.34134701054E+03  0.00000000000E+00 0.  1.
         23    2    1    2    0    0 -0.92622018995E+02 -0.13090996076E+03  0.69463806899E+03  0.71869285736E+03  0.91000659855E+02 0.  0.
        254    2    1    2    0    0  0.92622018995E+02  0.13090996076E+03  0.30393814059E+03  0.96257737330E+03  0.89914434328E+03 0.  0.
        -24    2    4    4    0    0  0.15114114498E+02 -0.19809308042E+02 -0.30902257207E+03  0.32116184195E+03  0.83839928062E+02 0.  0.
         24    2    4    4    0    0  0.77507904497E+02  0.15071926880E+03  0.61296071266E+03  0.64141553135E+03  0.83482185827E+02 0.  0.
         11    1    3    3    0    0 -0.57961353955E+02 -0.12811343057E+03  0.44617873700E+03  0.46781196543E+03  0.00000000000E+00 0. -1.
        -11    1    3    3    0    0 -0.34660665039E+02 -0.27965301899E+01  0.24845933199E+03  0.25088089193E+03  0.00000000000E+00 0.  1.
          2    1    6    6  502    0  0.91051224310E+02  0.11216614806E+03  0.41930182386E+03  0.44349249115E+03  0.00000000000E+00 0. -1.
          1    1    5    5  503    0 -0.22442487600E+02 -0.39083263620E+02 -0.16989654028E+03  0.17577258359E+03  0.00000000000E+00 0. -1.
         -2    1    5    5    0  503  0.37556602098E+02  0.19273955578E+02 -0.13912603179E+03  0.14538925836E+03  0.00000000000E+00 0.  1.
         -1    1    6    6    0  502 -0.13543319813E+02  0.38553120745E+02  0.19365888880E+03  0.19792304020E+03  0.00000000000E+00 0.  1.
<mgrwt>
<rscale>  0 0.13525957E+04</rscale>
<asrwt>0</asrwt>
<pdfrwt beam="1">  1        2 0.20614203E+00 0.13525957E+04</pdfrwt>
<pdfrwt beam="2">  1       -2 0.52514925E-01 0.13525957E+04</pdfrwt>
<totfact> 0.52353705E+01</totfact>
</mgrwt>
</event>
<event>
12    1  0.1472088E-007  0.1195960E+04  0.7818608E-02  0.9116400E-01
         -1   -1    0    0    0  501 -0.00000000000E+00  0.00000000000E+00  0.19582106923E+03  0.19582106923E+03  0.00000000000E+00 0.  1.
          1   -1    0    0  501    0  0.00000000000E+00 -0.00000000000E+00 -0.18260543682E+04  0.18260543682E+04  0.00000000000E+00 0. -1.
         23    2    1    2    0    0  0.20199663405E+03  0.12332140454E+03 -0.21593440526E+03  0.33177041920E+03  0.86215629092E+02 0.  0.
        254    2    1    2    0    0 -0.20199663405E+03 -0.12332140454E+03 -0.14142988938E+04  0.16901050183E+04  0.89454055409E+03 0.  0.
        -24    2    4    4    0    0 -0.15945788300E+02 -0.46989086751E+03 -0.49677577378E+03  0.68869821862E+03  0.80419968820E+02 0.  0.
         24    2    4    4    0    0 -0.18605084575E+03  0.34656946298E+03 -0.91752311999E+03  0.10014067997E+04  0.79003751892E+02 0.  0.
         13    1    3    3    0    0 -0.12962591295E+01 -0.89349679616E+01 -0.11164595655E+02  0.14358347271E+02  0.00000000000E+00 0. -1.
        -13    1    3    3    0    0  0.20329289318E+03  0.13225637250E+03 -0.20476980960E+03  0.31741207193E+03  0.00000000000E+00 0.  1.
          2    1    6    6  502    0 -0.14287737576E+03  0.28964217409E+03 -0.81297956077E+03  0.87478128680E+03  0.00000000000E+00 0. -1.
          1    1    5    5  503    0 -0.28498177455E+02 -0.44714739691E+03 -0.48465277356E+03  0.66003125047E+03  0.00000000000E+00 0. -1.
         -2    1    5    5    0  503  0.12552389155E+02 -0.22743470606E+02 -0.12123000215E+02  0.28666968150E+02  0.00000000000E+00 0.  1.
         -1    1    6    6    0  502 -0.43173469988E+02  0.56927288882E+02 -0.10454355922E+03  0.12662551285E+03  0.00000000000E+00 0.  1.
<mgrwt>
<rscale>  0 0.11959597E+04</rscale>
<asrwt>0</asrwt>
<pdfrwt beam="1">  1        1 0.28093144E+00 0.11959597E+04</pdfrwt>
<pdfrwt beam="2">  1       -1 0.30126319E-01 0.11959597E+04</pdfrwt>
<totfact> 0.39255349E+01</totfact>
</mgrwt>
</event>
<event>
12    1  0.1472088E-007  0.1355712E+04  0.7818608E-02  0.8986515E-01
          2   -1    0    0  501    0  0.00000000000E+00  0.00000000000E+00  0.20196068027E+04  0.20196068027E+04  0.00000000000E+00 0. -1.
         -2   -1    0    0    0  501 -0.00000000000E+00 -0.00000000000E+00 -0.22751394085E+03  0.22751394085E+03  0.00000000000E+00 0.  1.
         23    2    1    2    0    0  0.23396073975E+03  0.28635073074E+03  0.54103216881E+03  0.66144907281E+03  0.89803671947E+02 0.  0.
        254    2    1    2    0    0 -0.23396073975E+03 -0.28635073074E+03  0.12510606931E+04  0.15856716708E+04  0.90136974712E+03 0.  0.
        -24    2    4    4    0    0 -0.25531337605E+03 -0.12924452278E+03  0.13507781679E+04  0.13830545131E+04  0.79680992829E+02 0.  0.
         24    2    4    4    0    0  0.21352636298E+02 -0.15710620796E+03 -0.99717474816E+02  0.20261715771E+03  0.77277695095E+02 0.  0.
         13    1    3    3    0    0  0.89981500574E+01  0.52940443005E+02  0.52161011270E+02  0.74862729757E+02  0.00000000000E+00 0. -1.
        -13    1    3    3    0    0  0.22496258970E+03  0.23341028773E+03  0.48887115754E+03  0.58658634306E+03  0.00000000000E+00 0.  1.
          2    1    6    6  502    0 -0.10332283841E+02  0.37169632388E+01 -0.13528305114E+02  0.17423746565E+02  0.00000000000E+00 0. -1.
          1    1    5    5  503    0 -0.99274823705E+01 -0.24959570697E+02  0.19980520265E+03  0.20160271347E+03  0.00000000000E+00 0. -1.
         -2    1    5    5    0  503 -0.24538589368E+03 -0.10428495208E+03  0.11509729652E+04  0.11814517996E+04  0.00000000000E+00 0.  1.
         -1    1    6    6    0  502  0.31684920139E+02 -0.16082317120E+03 -0.86189169702E+02  0.18519341115E+03  0.00000000000E+00 0.  1.
<mgrwt>
<rscale>  0 0.13557119E+04</rscale>
<asrwt>0</asrwt>
<pdfrwt beam="1">  1        2 0.31070873E+00 0.13557119E+04</pdfrwt>
<pdfrwt beam="2">  1       -2 0.35002146E-01 0.13557119E+04</pdfrwt>
<totfact> 0.48767962E+01</totfact>
</mgrwt>
</event>
<event>
12    1  0.1472088E-007  0.1785350E+04  0.7818608E-02  0.8714129E-01
         -1   -1    0    0    0  501 -0.00000000000E+00  0.00000000000E+00  0.29369011327E+03  0.29369011327E+03  0.00000000000E+00 0.  1.
          1   -1    0    0  501    0  0.00000000000E+00 -0.00000000000E+00 -0.27132976726E+04  0.27132976726E+04  0.00000000000E+00 0. -1.
         23    2    1    2    0    0 -0.25620940310E+03 -0.57691747021E+03 -0.12257886901E+04  0.13819928544E+04  0.94177020739E+02 0.  0.
        254    2    1    2    0    0  0.25620940310E+03  0.57691747021E+03 -0.11938188693E+04  0.16249949315E+04  0.90384069895E+03 0.  0.
        -24    2    4    4    0    0  0.32347083129E+03 -0.12903944227E+03 -0.59262689521E+03  0.69187711025E+03  0.78757491114E+02 0.  0.
         24    2    4    4    0    0 -0.67261428190E+02  0.70595691248E+03 -0.60119197408E+03  0.93311782126E+03  0.79861233747E+02 0.  0.
         13    1    3    3    0    0 -0.15217599183E+03 -0.25858696567E+03 -0.50955572140E+03  0.59133052054E+03  0.00000000000E+00 0.  1.
        -13    1    3    3    0    0 -0.10403341126E+03 -0.31833050454E+03 -0.71623296868E+03  0.79066233387E+03  0.00000000000E+00 0. -1.
          2    1    6    6  502    0 -0.67820992309E+02  0.70297317526E+03 -0.58620792205E+03  0.91782934144E+03  0.00000000000E+00 0. -1.
          3    1    5    5  503    0  0.17841690504E+03 -0.11271430679E+03 -0.34485930298E+03  0.40430810753E+03  0.00000000000E+00 0. -1.
         -4    1    5    5    0  503  0.14505392625E+03 -0.16325135479E+02 -0.24776759222E+03  0.28756900272E+03  0.00000000000E+00 0.  1.
         -1    1    6    6    0  502  0.55956411930E+00  0.29837372130E+01 -0.14984052038E+02  0.15288479821E+02  0.00000000000E+00 0.  1.
<mgrwt>
<rscale>  0 0.17853501E+04</rscale>
<asrwt>0</asrwt>
<pdfrwt beam="1">  1        1 0.41743041E+00 0.17853501E+04</pdfrwt>
<pdfrwt beam="2">  1       -1 0.45183095E-01 0.17853501E+04</pdfrwt>
<totfact> 0.44184613E+00</totfact>
</mgrwt>
</event>
<event>
12    1  0.1472088E-007  0.2398903E+04  0.7818608E-02  0.8439914E-01
         -2   -1    0    0    0  501 -0.00000000000E+00  0.00000000000E+00  0.53947732012E+03  0.53947732012E+03  0.00000000000E+00 0.  1.
          2   -1    0    0  501    0  0.00000000000E+00 -0.00000000000E+00 -0.26668110259E+04  0.26668110259E+04  0.00000000000E+00 0. -1.
         23    2    1    2    0    0 -0.30162540383E+03 -0.63186617125E+03  0.89817268183E+02  0.71207450257E+03  0.93542572925E+02 0.  0.
        254    2    1    2    0    0  0.30162540383E+03  0.63186617125E+03 -0.22171509740E+04  0.24942138435E+04  0.90283526345E+03 0.  0.
        -24    2    4    4    0    0 -0.27090383703E+03  0.27908575480E+03 -0.12624769889E+04  0.13236956318E+04  0.83929916007E+02 0.  0.
         24    2    4    4    0    0  0.57252924086E+03  0.35278041645E+03 -0.95467398507E+03  0.11705182116E+04  0.80415869681E+02 0.  0.
         13    1    3    3    0    0 -0.19574235583E+03 -0.37951865637E+03  0.10510265761E+02  0.42715330513E+03  0.00000000000E+00 0. -1.
        -13    1    3    3    0    0 -0.10588304800E+03 -0.25234751488E+03  0.79307002422E+02  0.28492119744E+03  0.00000000000E+00 0.  1.
          4    1    6    6  502    0  0.46123374617E+03  0.26053659088E+03 -0.79283801466E+03  0.95352399093E+03  0.00000000000E+00 0. -1.
          3    1    5    5  503    0 -0.24915299792E+03  0.24280180664E+03 -0.10236746952E+04  0.10811752010E+04  0.00000000000E+00 0. -1.
         -4    1    5    5    0  503 -0.21750839116E+02  0.36283948161E+02 -0.23880229366E+03  0.24252043080E+03  0.00000000000E+00 0.  1.
         -3    1    6    6    0  502  0.11129549469E+03  0.92243825565E+02 -0.16183597041E+03  0.21699422069E+03  0.00000000000E+00 0.  1.
<mgrwt>
<rscale>  0 0.23989031E+04</rscale>
<asrwt>0</asrwt>
<pdfrwt beam="1">  1        2 0.41027861E+00 0.23989031E+04</pdfrwt>
<pdfrwt beam="2">  1       -2 0.82996512E-01 0.23989031E+04</pdfrwt>
<totfact> 0.31790746E+00</totfact>
</mgrwt>
</event>
<event>
12    1  0.1472088E-007  0.1457019E+04  0.7818608E-02  0.8913548E-01
         -1   -1    0    0    0  501 -0.00000000000E+00  0.00000000000E+00  0.65082682940E+03  0.65082682940E+03  0.00000000000E+00 0.  1.
          1   -1    0    0  501    0  0.00000000000E+00 -0.00000000000E+00 -0.81546492499E+03  0.81546492499E+03  0.00000000000E+00 0. -1.
         23    2    1    2    0    0 -0.35829791124E+03  0.27260317489E+03 -0.45391330257E+02  0.46156425593E+03  0.91056605083E+02 0.  0.
        254    2    1    2    0    0  0.35829791124E+03 -0.27260317489E+03 -0.11924676533E+03  0.10047274985E+04  0.89026269773E+03 0.  0.
        -24    2    4    4    0    0  0.63828949164E+03 -0.11482273941E+03 -0.18205496672E+01  0.65320283668E+03  0.77928780403E+02 0.  0.
         24    2    4    4    0    0 -0.27999158040E+03 -0.15778043548E+03 -0.11742621566E+03  0.35152466179E+03  0.80565009803E+02 0.  0.
         13    1    3    3    0    0 -0.30874256047E+03  0.21957914978E+03 -0.69305900774E+02  0.38514968460E+03  0.00000000000E+00 0. -1.
        -13    1    3    3    0    0 -0.49555350774E+02  0.53024025106E+02  0.23914570517E+02  0.76414571331E+02  0.00000000000E+00 0.  1.
          2    1    6    6  502    0 -0.11275757674E+03 -0.20203175210E+02 -0.46834235231E+02  0.12375736338E+03  0.00000000000E+00 0. -1.
          3    1    5    5  503    0  0.75737322345E+02  0.73835450296E+01  0.13704617070E+02  0.77320600503E+02  0.00000000000E+00 0. -1.
         -2    1    5    5    0  503  0.56255216930E+03 -0.12220628444E+03 -0.15525166738E+02  0.57588223618E+03  0.00000000000E+00 0.  1.
         -1    1    6    6    0  502 -0.16723400367E+03 -0.13757726027E+03 -0.70591980431E+02  0.22776729841E+03  0.00000000000E+00 0.  1.
<mgrwt>
<rscale>  0 0.14570195E+04</rscale>
<asrwt>0</asrwt>
<pdfrwt beam="1">  1        1 0.12545614E+00 0.14570195E+04</pdfrwt>
<pdfrwt beam="2">  1       -1 0.10012720E+00 0.14570195E+04</pdfrwt>
<totfact> 0.19782094E+01</totfact>
</mgrwt>
</event>
<event>
12    1  0.1472088E-007  0.1352302E+04  0.7818608E-02  0.8989087E-01
          1   -1    0    0  501    0  0.00000000000E+00  0.00000000000E+00  0.17014720649E+04  0.17014720649E+04  0.00000000000E+00 0. -1.
         -1   -1    0    0    0  501 -0.00000000000E+00 -0.00000000000E+00 -0.26869677981E+03  0.26869677981E+03  0.00000000000E+00 0.  1.
         23    2    1    2    0    0 -0.32646791382E+03 -0.67772225263E+01  0.64754367042E+03  0.73104302022E+03  0.92107886761E+02 0.  0.
        254    2    1    2    0    0  0.32646791382E+03  0.67772225263E+01  0.78523161465E+03  0.12391258245E+04  0.90123076443E+03 0.  0.
        -24    2    4    4    0    0  0.44938162166E+03  0.33510107324E+03  0.63044136180E+03  0.84751470194E+03  0.81168270613E+02 0.  0.
         24    2    4    4    0    0 -0.12291370784E+03 -0.32832385071E+03  0.15479025285E+03  0.39161112254E+03  0.80591056581E+02 0.  0.
         11    1    3    3    0    0 -0.19634503554E+03  0.29458567187E+02  0.31799430555E+03  0.37488606072E+03  0.00000000000E+00 0. -1.
        -11    1    3    3    0    0 -0.13012287828E+03 -0.36235789713E+02  0.32954936487E+03  0.35615695949E+03  0.00000000000E+00 0.  1.
          2    1    6    6  502    0 -0.78467985782E+01 -0.10517170754E+03  0.70117070516E+02  0.12664542586E+03  0.00000000000E+00 0. -1.
          3    1    5    5  503    0  0.16115141788E+03  0.16363325995E+03  0.22756579163E+03  0.32331379922E+03  0.00000000000E+00 0. -1.
         -4    1    5    5    0  503  0.28823020379E+03  0.17146781329E+03  0.40287557017E+03  0.52420090272E+03  0.00000000000E+00 0.  1.
         -1    1    6    6    0  502 -0.11506690926E+03 -0.22315214317E+03  0.84673182330E+02  0.26496569668E+03  0.00000000000E+00 0.  1.
<mgrwt>
<rscale>  0 0.13523018E+04</rscale>
<asrwt>0</asrwt>
<pdfrwt beam="1">  1        1 0.26176493E+00 0.13523018E+04</pdfrwt>
<pdfrwt beam="2">  1       -1 0.41337967E-01 0.13523018E+04</pdfrwt>
<totfact> 0.26684824E+01</totfact>
</mgrwt>
</event>
<event>
12    1  0.1472088E-007  0.2010385E+04  0.7818608E-02  0.8601781E-01
          1   -1    0    0  501    0  0.00000000000E+00  0.00000000000E+00  0.22899453380E+04  0.22899453380E+04  0.00000000000E+00 0. -1.
         -1   -1    0    0    0  501 -0.00000000000E+00 -0.00000000000E+00 -0.44123826445E+03  0.44123826445E+03  0.00000000000E+00 0.  1.
         23    2    1    2    0    0  0.71963150373E+03  0.11404008889E+03  0.10449054683E+04  0.12771022799E+04  0.91039291128E+02 0.  0.
        254    2    1    2    0    0 -0.71963150373E+03 -0.11404008889E+03  0.80380160528E+03  0.14540813226E+04  0.96818429499E+03 0.  0.
        -24    2    4    4    0    0  0.16165434371E+03 -0.22219108198E+03  0.62538671355E+02  0.29467810241E+03  0.86157384334E+02 0.  0.
         24    2    4    4    0    0 -0.88128584744E+03  0.10815099309E+03  0.74126293392E+03  0.11594032202E+04  0.79898107515E+02 0.  0.
         13    1    3    3    0    0  0.65385405682E+02 -0.15748553735E+02  0.92624430634E+02  0.11446638533E+03  0.00000000000E+00 0.  1.
        -13    1    3    3    0    0  0.65424609805E+03  0.12978864262E+03  0.95228103769E+03  0.11626358946E+04  0.00000000000E+00 0. -1.
          2    1    6    6  502    0 -0.37222717680E+03  0.62519358809E+01  0.31550055765E+03  0.48798848319E+03  0.00000000000E+00 0. -1.
          1    1    5    5  503    0 -0.37282552410E+01 -0.46342120311E+02  0.76685462243E+01  0.47120044602E+02  0.00000000000E+00 0. -1.
         -2    1    5    5    0  503  0.16538259895E+03 -0.17584896167E+03  0.54870125131E+02  0.24755805781E+03  0.00000000000E+00 0.  1.
         -1    1    6    6    0  502 -0.50905867064E+03  0.10189905721E+03  0.42576237627E+03  0.67141473700E+03  0.00000000000E+00 0.  1.
<mgrwt>
<rscale>  0 0.20103845E+04</rscale>
<asrwt>0</asrwt>
<pdfrwt beam="1">  1        1 0.35229928E+00 0.20103845E+04</pdfrwt>
<pdfrwt beam="2">  1       -1 0.67882811E-01 0.20103845E+04</pdfrwt>
<totfact> 0.38513727E+00</totfact>
</mgrwt>
</event>
<event>
12    1  0.1472088E-007  0.1499039E+04  0.7818608E-02  0.8885092E-01
          2   -1    0    0  501    0  0.00000000000E+00  0.00000000000E+00  0.14018005610E+04  0.14018005610E+04  0.00000000000E+00 0. -1.
         -2   -1    0    0    0  501 -0.00000000000E+00 -0.00000000000E+00 -0.40075565223E+03  0.40075565223E+03  0.00000000000E+00 0.  1.
         23    2    1    2    0    0  0.42522282102E+03 -0.20839984187E+03  0.41726677363E+03  0.63767416255E+03  0.90949632234E+02 0.  0.
        254    2    1    2    0    0 -0.42522282102E+03  0.20839984187E+03  0.58377813512E+03  0.11648820507E+04  0.88989231893E+03 0.  0.
        -24    2    4    4    0    0  0.15447343120E+03  0.24909049139E+03 -0.41898886042E+02  0.30723931144E+03  0.82050984116E+02 0.  0.
         24    2    4    4    0    0 -0.57969625221E+03 -0.40690649518E+02  0.62567702116E+03  0.85764273921E+03  0.79848979495E+02 0.  0.
         13    1    3    3    0    0  0.31067328861E+03 -0.17000812392E+03  0.35624525438E+03  0.50232592579E+03  0.00000000000E+00 0.  1.
        -13    1    3    3    0    0  0.11454953241E+03 -0.38391717957E+02  0.61021519249E+02  0.13534823676E+03  0.00000000000E+00 0. -1.
          2    1    6    6  502    0 -0.25499230689E+03  0.44601083224E+01  0.22639387446E+03  0.34102075528E+03  0.00000000000E+00 0. -1.
          1    1    5    5  503    0  0.33788153616E+01  0.69862542999E+02 -0.10429699125E+02  0.70717536237E+02  0.00000000000E+00 0. -1.
         -2    1    5    5    0  503  0.15109461584E+03  0.17922794839E+03 -0.31469186917E+02  0.23652177520E+03  0.00000000000E+00 0.  1.
         -1    1    6    6    0  502 -0.32470394532E+03 -0.45150757840E+02  0.39928314670E+03  0.51662198393E+03  0.00000000000E+00 0.  1.
<mgrwt>
<rscale>  0 0.14990390E+04</rscale>
<asrwt>0</asrwt>
<pdfrwt beam="1">  1        2 0.21566162E+00 0.14990390E+04</pdfrwt>
<pdfrwt beam="2">  1       -2 0.61654716E-01 0.14990390E+04</pdfrwt>
<totfact> 0.34097058E+01</totfact>
</mgrwt>
</event>
<event>
12    1  0.1472088E-007  0.1292622E+04  0.7818608E-02  0.9035436E-01
         -2   -1    0    0    0  501 -0.00000000000E+00  0.00000000000E+00  0.20415761371E+03  0.20415761371E+03  0.00000000000E+00 0.  1.
          2   -1    0    0  501    0  0.00000000000E+00 -0.00000000000E+00 -0.20460566915E+04  0.20460566915E+04  0.00000000000E+00 0. -1.
         23    2    1    2    0    0 -0.21806155737E+03  0.21183033247E+03 -0.29327801673E+03  0.43205360460E+03  0.90749047351E+02 0.  0.
        254    2    1    2    0    0  0.21806155737E+03 -0.21183033247E+03 -0.15486210611E+04  0.18181607006E+04  0.90280574319E+03 0.  0.
        -24    2    4    4    0    0 -0.20215481067E+03 -0.16094520030E+03 -0.12841439124E+04  0.13123983611E+04  0.81203112788E+02 0.  0.
         24    2    4    4    0    0  0.42021636804E+03 -0.50885132177E+02 -0.26447714866E+03  0.50576233950E+03  0.81708562879E+02 0.  0.
         13    1    3    3    0    0 -0.95329201877E+02  0.14293298633E+03 -0.12386525230E+03  0.21180202086E+03  0.00000000000E+00 0.  1.
        -13    1    3    3    0    0 -0.12273235549E+03  0.68897346138E+02 -0.16941276443E+03  0.22025158374E+03  0.00000000000E+00 0. -1.
          2    1    6    6  502    0  0.51952606696E+02  0.17607230373E+02 -0.19644352384E+02  0.58266529710E+02  0.00000000000E+00 0. -1.
          3    1    5    5  503    0 -0.13617522896E+03 -0.61840975177E+02 -0.79745312305E+03  0.81135656937E+03  0.00000000000E+00 0. -1.
         -4    1    5    5    0  503 -0.65979581707E+02 -0.99104225119E+02 -0.48669078935E+03  0.50104179175E+03  0.00000000000E+00 0.  1.
         -1    1    6    6    0  502  0.36826376134E+03 -0.68492362549E+02 -0.24483279627E+03  0.44749580979E+03  0.00000000000E+00 0.  1.
<mgrwt>
<rscale>  0 0.12926222E+04</rscale>
<asrwt>0</asrwt>
<pdfrwt beam="1">  1        2 0.31477795E+00 0.12926222E+04</pdfrwt>
<pdfrwt beam="2">  1       -2 0.31408864E-01 0.12926222E+04</pdfrwt>
<totfact> 0.58179001E+01</totfact>
</mgrwt>
</event>
<event>
12    1  0.1472088E-007  0.1569934E+04  0.7818608E-02  0.8839235E-01
         -2   -1    0    0    0  501 -0.00000000000E+00  0.00000000000E+00  0.10067751141E+04  0.10067751141E+04  0.00000000000E+00 0.  1.
          2   -1    0    0  501    0  0.00000000000E+00 -0.00000000000E+00 -0.61202659900E+03  0.61202659900E+03  0.00000000000E+00 0. -1.
         23    2    1    2    0    0 -0.41435766386E+03 -0.29499027712E+03  0.18254715076E+02  0.51731183426E+03  0.92556804419E+02 0.  0.
        254    2    1    2    0    0  0.41435766386E+03  0.29499027712E+03  0.37649380005E+03  0.11014898789E+04  0.90156576830E+03 0.  0.
        -24    2    4    4    0    0 -0.20898349225E+03 -0.13020657327E+03  0.11592216315E+02  0.25933431249E+03  0.80573285870E+02 0.  0.
         24    2    4    4    0    0  0.62334115612E+03  0.42519685039E+03  0.36490158373E+03  0.84215556638E+03  0.82013862709E+02 0.  0.
         13    1    3    3    0    0 -0.25169702649E+00 -0.11521247270E+02  0.10234653023E+02  0.15412677008E+02  0.00000000000E+00 0. -1.
        -13    1    3    3    0    0 -0.41410596684E+03 -0.28346902985E+03  0.80200620529E+01  0.50189915725E+03  0.00000000000E+00 0.  1.
          4    1    6    6  502    0  0.37276625046E+03  0.22683067554E+03  0.24766722661E+03  0.50174285045E+03  0.00000000000E+00 0. -1.
          1    1    5    5  503    0 -0.18559694054E+03 -0.12191531950E+03 -0.15498331400E+02  0.22259777120E+03  0.00000000000E+00 0. -1.
         -2    1    5    5    0  503 -0.23386551716E+02 -0.82912537662E+01  0.27090547715E+02  0.36736541286E+02  0.00000000000E+00 0.  1.
         -3    1    6    6    0  502  0.25057490566E+03  0.19836617485E+03  0.11723435712E+03  0.34041271592E+03  0.00000000000E+00 0.  1.
<mgrwt>
<rscale>  0 0.15699339E+04</rscale>
<asrwt>0</asrwt>
<pdfrwt beam="1">  1        2 0.94157938E-01 0.15699339E+04</pdfrwt>
<pdfrwt beam="2">  1       -2 0.15488848E+00 0.15699339E+04</pdfrwt>
<totfact> 0.12789153E+01</totfact>
</mgrwt>
</event>
<event>
12    1  0.1472088E-007  0.1323080E+04  0.7818608E-02  0.9011460E-01
          1   -1    0    0  501    0  0.00000000000E+00  0.00000000000E+00  0.29381883673E+04  0.29381883673E+04  0.00000000000E+00 0. -1.
         -1   -1    0    0    0  501 -0.00000000000E+00 -0.00000000000E+00 -0.14894738350E+03  0.14894738350E+03  0.00000000000E+00 0.  1.
         23    2    1    2    0    0 -0.31021296089E+02 -0.99865190897E+02 -0.11469815055E+02  0.13874581297E+03  0.90462515973E+02 0.  0.
        254    2    1    2    0    0  0.31021296089E+02  0.99865190897E+02  0.28007107988E+04  0.29483899378E+04  0.91547084575E+03 0.  0.
        -24    2    4    4    0    0 -0.25287549348E+03  0.31587836596E+03  0.22466457204E+04  0.22842128430E+04  0.80536712944E+02 0.  0.
         24    2    4    4    0    0  0.28389678957E+03 -0.21601317506E+03  0.55406507842E+03  0.66417709473E+03  0.82970013258E+02 0.  0.
         13    1    3    3    0    0 -0.18921881123E+01  0.96731360872E+01 -0.22796438941E+02  0.24836013488E+02  0.00000000000E+00 0. -1.
        -13    1    3    3    0    0 -0.29129107977E+02 -0.10953832698E+03  0.11326623885E+02  0.11390979949E+03  0.00000000000E+00 0.  1.
          2    1    6    6  502    0  0.24266574016E+03 -0.21223281594E+03  0.46342640271E+03  0.56452941495E+03  0.00000000000E+00 0. -1.
          3    1    5    5  503    0 -0.19348584459E+03  0.28210636963E+03  0.17774201968E+04  0.18100395940E+04  0.00000000000E+00 0. -1.
         -4    1    5    5    0  503 -0.59389648891E+02  0.33771996326E+02  0.46922552354E+03  0.47417324901E+03  0.00000000000E+00 0.  1.
         -1    1    6    6    0  502  0.41231049410E+02 -0.37803591234E+01  0.90638675712E+02  0.99647679779E+02  0.00000000000E+00 0.  1.
<mgrwt>
<rscale>  0 0.13230805E+04</rscale>
<asrwt>0</asrwt>
<pdfrwt beam="1">  1        1 0.45202894E+00 0.13230805E+04</pdfrwt>
<pdfrwt beam="2">  1       -1 0.22914984E-01 0.13230805E+04</pdfrwt>
<totfact> 0.10663615E+01</totfact>
</mgrwt>
</event>
<event>
12    1  0.1472088E-007  0.1351978E+04  0.7818608E-02  0.8989332E-01
          1   -1    0    0  501    0  0.00000000000E+00  0.00000000000E+00  0.68844949197E+03  0.68844949197E+03  0.00000000000E+00 0. -1.
         -1   -1    0    0    0  501 -0.00000000000E+00 -0.00000000000E+00 -0.66375420231E+03  0.66375420231E+03  0.00000000000E+00 0.  1.
         23    2    1    2    0    0  0.21518678212E+03  0.20777992103E+03 -0.24278919929E+03  0.39577247358E+03  0.90616823868E+02 0.  0.
        254    2    1    2    0    0 -0.21518678212E+03 -0.20777992103E+03  0.26748448896E+03  0.95643122070E+03  0.86817906063E+03 0.  0.
        -24    2    4    4    0    0 -0.48041174467E+03  0.94067326109E+02  0.72969423648E+02  0.50176911281E+03  0.82483934957E+02 0.  0.
         24    2    4    4    0    0  0.26522496255E+03 -0.30184724714E+03  0.19451506531E+03  0.45466210789E+03  0.86171226957E+02 0.  0.
         11    1    3    3    0    0  0.85197459592E+02  0.76712647121E+02 -0.39696226436E+02  0.12132282449E+03  0.00000000000E+00 0. -1.
        -11    1    3    3    0    0  0.12998932253E+03  0.13106727391E+03 -0.20309297286E+03  0.27444964909E+03  0.00000000000E+00 0.  1.
          4    1    6    6  502    0  0.21720222927E+03 -0.23557327217E+03  0.11467695597E+03  0.34032687109E+03  0.00000000000E+00 0. -1.
          3    1    5    5  503    0 -0.43127294100E+03  0.80824074091E+02  0.90358277554E+02  0.44798827989E+03  0.00000000000E+00 0. -1.
         -4    1    5    5    0  503 -0.49138803667E+02  0.13243252017E+02 -0.17388853906E+02  0.53780832924E+02  0.00000000000E+00 0.  1.
         -3    1    6    6    0  502  0.48022733279E+02 -0.66273974970E+02  0.79838109340E+02  0.11433523679E+03  0.00000000000E+00 0.  1.
<mgrwt>
<rscale>  0 0.13519782E+04</rscale>
<asrwt>0</asrwt>
<pdfrwt beam="1">  1        1 0.10591531E+00 0.13519782E+04</pdfrwt>
<pdfrwt beam="2">  1       -1 0.10211603E+00 0.13519782E+04</pdfrwt>
<totfact> 0.24848320E+01</totfact>
</mgrwt>
</event>
<event>
12    1  0.1472088E-007  0.1383966E+04  0.7818608E-02  0.8965508E-01
         -1   -1    0    0    0  501 -0.00000000000E+00  0.00000000000E+00  0.20928469578E+04  0.20928469578E+04  0.00000000000E+00 0.  1.
          1   -1    0    0  501    0  0.00000000000E+00 -0.00000000000E+00 -0.22879844386E+03  0.22879844386E+03  0.00000000000E+00 0. -1.
         23    2    1    2    0    0  0.56463670409E+02 -0.12571577183E+03 -0.77711425634E+02  0.18260209808E+03  0.91169398297E+02 0.  0.
        254    2    1    2    0    0 -0.56463670409E+02  0.12571577183E+03  0.19417599396E+04  0.21390433036E+04  0.88661264953E+03 0.  0.
        -24    2    4    4    0    0 -0.34783404184E+03 -0.20703124853E+03  0.12369571167E+04  0.13040637350E+04  0.81663074534E+02 0.  0.
         24    2    4    4    0    0  0.29137037143E+03  0.33274702036E+03  0.70480282283E+03  0.83497956859E+03  0.69473649541E+02 0.  0.
         13    1    3    3    0    0  0.69035653180E+02 -0.12275079967E+03 -0.88020081237E+02  0.16607593122E+03  0.00000000000E+00 0. -1.
        -13    1    3    3    0    0 -0.12571982771E+02 -0.29649721583E+01  0.10308655603E+02  0.16526166858E+02  0.00000000000E+00 0.  1.
          4    1    6    6  502    0  0.31709696445E+02  0.98007973152E+01  0.57739899640E+02  0.66599222871E+02  0.00000000000E+00 0. -1.
          3    1    5    5  503    0 -0.73054895951E+02 -0.52656898424E+02  0.18246051459E+03  0.20347384637E+03  0.00000000000E+00 0. -1.
         -4    1    5    5    0  503 -0.27477914589E+03 -0.15437435011E+03  0.10544966021E+04  0.11005898886E+04  0.00000000000E+00 0.  1.
         -3    1    6    6    0  502  0.25966067499E+03  0.32294622304E+03  0.64706292319E+03  0.76838034572E+03  0.00000000000E+00 0.  1.
<mgrwt>
<rscale>  0 0.13839655E+04</rscale>
<asrwt>0</asrwt>
<pdfrwt beam="1">  1        1 0.35199762E-01 0.13839655E+04</pdfrwt>
<pdfrwt beam="2">  1       -1 0.32197644E+00 0.13839655E+04</pdfrwt>
<totfact> 0.29100744E+00</totfact>
</mgrwt>
</event>
<event>
12    1  0.1472088E-007  0.1210783E+04  0.7818608E-02  0.9103470E-01
          1   -1    0    0  501    0  0.00000000000E+00  0.00000000000E+00  0.13077552392E+04  0.13077552392E+04  0.00000000000E+00 0. -1.
         -1   -1    0    0    0  501 -0.00000000000E+00 -0.00000000000E+00 -0.28025025090E+03  0.28025025090E+03  0.00000000000E+00 0.  1.
         23    2    1    2    0    0 -0.11711598727E+03  0.96758730935E+02  0.51624988874E+03  0.54622625636E+03  0.93652383980E+02 0.  0.
        254    2    1    2    0    0  0.11711598727E+03 -0.96758730935E+02  0.51125509952E+03  0.10417792337E+04  0.89489875879E+03 0.  0.
        -24    2    4    4    0    0  0.21778672924E+03  0.36277590892E+03  0.24458438203E+03  0.49535256175E+03  0.80716918780E+02 0.  0.
         24    2    4    4    0    0 -0.10067074197E+03 -0.45953463985E+03  0.26667071749E+03  0.54642667195E+03  0.78499380468E+02 0.  0.
         11    1    3    3    0    0 -0.56267949762E+02 -0.84305605206E+01  0.15885444552E+03  0.16873615908E+03  0.00000000000E+00 0.  1.
        -11    1    3    3    0    0 -0.60848037504E+02  0.10518929146E+03  0.35739544323E+03  0.37749009728E+03  0.00000000000E+00 0. -1.
          2    1    6    6  502    0 -0.19621268193E+02 -0.15197245282E+02  0.19406757684E+02  0.31505121384E+02  0.00000000000E+00 0. -1.
          1    1    5    5  503    0  0.10429118104E+03  0.10026075921E+03  0.86987122636E+02  0.16880648620E+03  0.00000000000E+00 0. -1.
         -2    1    5    5    0  503  0.11349554820E+03  0.26251514971E+03  0.15759725939E+03  0.32654607555E+03  0.00000000000E+00 0.  1.
         -3    1    6    6    0  502 -0.81049473776E+02 -0.44433739457E+03  0.24726395980E+03  0.51492155056E+03  0.00000000000E+00 0.  1.
<mgrwt>
<rscale>  0 0.12107828E+04</rscale>
<asrwt>0</asrwt>
<pdfrwt beam="1">  1        1 0.20119311E+00 0.12107828E+04</pdfrwt>
<pdfrwt beam="2">  1       -1 0.43115424E-01 0.12107828E+04</pdfrwt>
<totfact> 0.46826537E+01</totfact>
</mgrwt>
</event>
<event>
12    1  0.1472088E-007  0.1151279E+04  0.7818608E-02  0.9156604E-01
         -2   -1    0    0    0  501 -0.00000000000E+00  0.00000000000E+00  0.20894612541E+03  0.20894612541E+03  0.00000000000E+00 0.  1.
          2   -1    0    0  501    0  0.00000000000E+00 -0.00000000000E+00 -0.15858684498E+04  0.15858684498E+04  0.00000000000E+00 0. -1.
         23    2    1    2    0    0 -0.20005496699E+02  0.38540761318E+02 -0.58525170486E+03  0.59423462171E+03  0.93325331049E+02 0.  0.
        254    2    1    2    0    0  0.20005496699E+02 -0.38540761318E+02 -0.79167061953E+03  0.12005799535E+04  0.90153438356E+03 0.  0.
        -24    2    4    4    0    0 -0.22521997510E+03  0.12310588657E+03 -0.84864200384E+03  0.89022892683E+03  0.80219667112E+02 0.  0.
         24    2    4    4    0    0  0.24522547180E+03 -0.16164664789E+03  0.56971384312E+02  0.31035102667E+03  0.82503638320E+02 0.  0.
         11    1    3    3    0    0  0.15797235100E+01  0.36290274842E+02 -0.55897729726E+03  0.56015631607E+03  0.00000000000E+00 0. -1.
        -11    1    3    3    0    0 -0.21585220209E+02  0.22504864760E+01 -0.26274407595E+02  0.34078305640E+02  0.00000000000E+00 0.  1.
          2    1    6    6  502    0  0.16437548395E+03 -0.13797701657E+03  0.12214120428E+02  0.21495613870E+03  0.00000000000E+00 0. -1.
          3    1    5    5  503    0 -0.11872757761E+03  0.10682103307E+03 -0.46022918506E+03  0.48715282363E+03  0.00000000000E+00 0. -1.
         -4    1    5    5    0  503 -0.10649239749E+03  0.16284853495E+02 -0.38841281878E+03  0.40307610320E+03  0.00000000000E+00 0.  1.
         -1    1    6    6    0  502  0.80849987850E+02 -0.23669631311E+02  0.44757263883E+02  0.95394887976E+02  0.00000000000E+00 0.  1.
<mgrwt>
<rscale>  0 0.11512794E+04</rscale>
<asrwt>0</asrwt>
<pdfrwt beam="1">  1        2 0.24397977E+00 0.11512794E+04</pdfrwt>
<pdfrwt beam="2">  1       -2 0.32145557E-01 0.11512794E+04</pdfrwt>
<totfact> 0.10119397E+02</totfact>
</mgrwt>
</event>
<event>
12    1  0.1472088E-007  0.1181397E+04  0.7818608E-02  0.9129297E-01
          2   -1    0    0  501    0  0.00000000000E+00  0.00000000000E+00  0.93529106459E+03  0.93529106459E+03  0.00000000000E+00 0. -1.
         -2   -1    0    0    0  501 -0.00000000000E+00 -0.00000000000E+00 -0.37306546149E+03  0.37306546149E+03  0.00000000000E+00 0.  1.
         23    2    1    2    0    0 -0.25757189646E+02 -0.22201548040E+03  0.59025991341E+02  0.24904583222E+03  0.92657717107E+02 0.  0.
        254    2    1    2    0    0  0.25757189646E+02  0.22201548040E+03  0.50319961176E+03  0.10593106939E+04  0.90497237002E+03 0.  0.
        -24    2    4    4    0    0  0.49836578726E+02  0.30995646818E+03  0.73143030687E+03  0.80006856936E+03  0.81010648160E+02 0.  0.
         24    2    4    4    0    0 -0.24079389080E+02 -0.87940987787E+02 -0.22823069512E+03  0.25924212450E+03  0.82485117513E+02 0.  0.
         11    1    3    3    0    0 -0.38404679885E+02 -0.17182200914E+03  0.78202179088E+01  0.17623529178E+03  0.00000000000E+00 0.  1.
        -11    1    3    3    0    0  0.12647490239E+02 -0.50193471255E+02  0.51205773432E+02  0.72810540437E+02  0.00000000000E+00 0. -1.
          4    1    6    6  502    0  0.14457797067E+02 -0.32328027143E+02 -0.20833361416E+02  0.41087202178E+02  0.00000000000E+00 0. -1.
          1    1    5    5  503    0  0.28815761197E+02  0.23007502711E+03  0.44260578143E+03  0.49966463147E+03  0.00000000000E+00 0. -1.
         -2    1    5    5    0  503  0.21020817529E+02  0.79881441072E+02  0.28882452545E+03  0.30040393789E+03  0.00000000000E+00 0.  1.
         -3    1    6    6    0  502 -0.38537186147E+02 -0.55612960644E+02 -0.20739733370E+03  0.21815492232E+03  0.00000000000E+00 0.  1.
<mgrwt>
<rscale>  0 0.11813971E+04</rscale>
<asrwt>0</asrwt>
<pdfrwt beam="1">  1        2 0.14389093E+00 0.11813971E+04</pdfrwt>
<pdfrwt beam="2">  1       -2 0.57394687E-01 0.11813971E+04</pdfrwt>
<totfact> 0.78019781E+01</totfact>
</mgrwt>
</event>
<event>
12    1  0.1790947E-007  0.1880886E+04  0.7818608E-02  0.8664430E-01
          1   -1    0    0  501    0  0.00000000000E+00  0.00000000000E+00  0.11861816638E+04  0.11861816638E+04  0.00000000000E+00 0. -1.
         -1   -1    0    0    0  501 -0.00000000000E+00 -0.00000000000E+00 -0.74561347032E+03  0.74561347032E+03  0.00000000000E+00 0.  1.
         23    2    1    2    0    0 -0.56770030878E+03  0.37357997095E+03  0.42452379293E+03  0.80650036471E+03  0.91524599050E+02 0.  0.
        254    2    1    2    0    0  0.56770030878E+03 -0.37357997095E+03  0.16044400550E+02  0.11252947694E+04  0.89676377045E+03 0.  0.
        -24    2    4    4    0    0  0.52552385879E+03 -0.64376392480E+03 -0.28867119668E+02  0.83569284986E+03  0.83318135389E+02 0.  0.
         24    2    4    4    0    0  0.42176449995E+02  0.27018395385E+03  0.44911520218E+02  0.28960191955E+03  0.84107106131E+02 0.  0.
         11    1    3    3    0    0 -0.56797747363E+03  0.36674819963E+03  0.41065417143E+03  0.79103697827E+03  0.00000000000E+00 0.  1.
        -11    1    3    3    0    0  0.27716484379E+00  0.68317713176E+01  0.13869621498E+02  0.15463386440E+02  0.00000000000E+00 0. -1.
          4    1    6    6  502    0  0.20074398313E+02  0.26053801141E+03  0.35479938926E+02  0.26370791213E+03  0.00000000000E+00 0. -1.
          1    1    5    5  503    0  0.41546466730E+03 -0.54423570263E+03 -0.46456132960E+02  0.68626639294E+03  0.00000000000E+00 0. -1.
         -2    1    5    5    0  503  0.11005919149E+03 -0.99528222169E+02  0.17589013292E+02  0.14942645692E+03  0.00000000000E+00 0.  1.
         -3    1    6    6    0  502  0.22102051682E+02  0.96459424484E+01  0.94315812917E+01  0.25894007413E+02  0.00000000000E+00 0.  1.
<mgrwt>
<rscale>  0 0.18808860E+04</rscale>
<asrwt>0</asrwt>
<pdfrwt beam="1">  1        1 0.18248949E+00 0.18808860E+04</pdfrwt>
<pdfrwt beam="2">  1       -1 0.11470976E+00 0.18808860E+04</pdfrwt>
<totfact> 0.70795401E+00</totfact>
</mgrwt>
</event>
<event>
12    1  0.1472088E-007  0.2015469E+04  0.7818608E-02  0.8599422E-01
         -2   -1    0    0    0  501 -0.00000000000E+00  0.00000000000E+00  0.50237904015E+03  0.50237904015E+03  0.00000000000E+00 0.  1.
          2   -1    0    0  501    0  0.00000000000E+00 -0.00000000000E+00 -0.20214396009E+04  0.20214396009E+04  0.00000000000E+00 0. -1.
         23    2    1    2    0    0  0.24964108981E+03 -0.73605202595E+03 -0.35436114488E+03  0.85625714731E+03  0.59255570941E+02 0.  0.
        254    2    1    2    0    0 -0.24964108981E+03  0.73605202595E+03 -0.11646994159E+04  0.16675614937E+04  0.90561766075E+03 0.  0.
        -24    2    4    4    0    0 -0.38362018867E+03 -0.21648741160E+02 -0.23220021851E+03  0.45603318791E+03  0.80101247481E+02 0.  0.
         24    2    4    4    0    0  0.13397909887E+03  0.75770076711E+03 -0.93249919735E+03  0.12115283058E+04  0.78646241755E+02 0.  0.
         11    1    3    3    0    0  0.16338237482E+03 -0.51567038002E+03 -0.21871164875E+03  0.58347624333E+03  0.00000000000E+00 0.  1.
        -11    1    3    3    0    0  0.86258714983E+02 -0.22038164593E+03 -0.13564949613E+03  0.27278090398E+03  0.00000000000E+00 0. -1.
          4    1    6    6  502    0  0.49157180621E+02  0.37183587326E+03 -0.39823778368E+03  0.54705728896E+03  0.00000000000E+00 0. -1.
          3    1    5    5  503    0 -0.25547436801E+03 -0.28069538239E+02 -0.19446925292E+03  0.32229387524E+03  0.00000000000E+00 0. -1.
         -4    1    5    5    0  503 -0.12814582066E+03  0.64207970786E+01 -0.37730965588E+02  0.13373931267E+03  0.00000000000E+00 0.  1.
         -3    1    6    6    0  502  0.84821918248E+02  0.38586489385E+03 -0.53426141367E+03  0.66447101687E+03  0.00000000000E+00 0.  1.
<mgrwt>
<rscale>  0 0.20154691E+04</rscale>
<asrwt>0</asrwt>
<pdfrwt beam="1">  1        2 0.31099071E+00 0.20154691E+04</pdfrwt>
<pdfrwt beam="2">  1       -2 0.77289082E-01 0.20154691E+04</pdfrwt>
<totfact> 0.90065759E+00</totfact>
</mgrwt>
</event>
<event>
12    1  0.1472088E-007  0.2933243E+04  0.7818608E-02  0.8263055E-01
          1   -1    0    0  501    0  0.00000000000E+00  0.00000000000E+00  0.27202839172E+04  0.27202839172E+04  0.00000000000E+00 0. -1.
         -1   -1    0    0    0  501 -0.00000000000E+00 -0.00000000000E+00 -0.79071867456E+03  0.79071867456E+03  0.00000000000E+00 0.  1.
         23    2    1    2    0    0  0.43155960882E+03 -0.86052040159E+03  0.19649837373E+04  0.21900050563E+04  0.90675251383E+02 0.  0.
        254    2    1    2    0    0 -0.43155960882E+03  0.86052040159E+03 -0.35418494684E+02  0.13209975354E+04  0.90390318140E+03 0.  0.
        -24    2    4    4    0    0 -0.42607690457E+03  0.67757626883E+02 -0.23797782919E+03  0.49909902343E+03  0.79584944526E+02 0.  0.
         24    2    4    4    0    0 -0.54827042512E+01  0.79276277471E+03  0.20255933450E+03  0.82189851200E+03  0.77356338033E+02 0.  0.
         13    1    3    3    0    0  0.34913189306E+03 -0.70695243704E+03  0.16823947278E+04  0.18579900019E+04  0.00000000000E+00 0. -1.
        -13    1    3    3    0    0  0.82427715766E+02 -0.15356796455E+03  0.28258900954E+03  0.33201505444E+03  0.00000000000E+00 0.  1.
          2    1    6    6  502    0  0.72045011206E+01  0.14394489743E+03  0.76921793279E+01  0.14433020458E+03  0.00000000000E+00 0. -1.
          3    1    5    5  503    0 -0.48597594214E+02 -0.17339648425E+02 -0.23732356700E+02  0.56794492034E+02  0.00000000000E+00 0. -1.
         -4    1    5    5    0  503 -0.37747931036E+03  0.85097275309E+02 -0.21424547249E+03  0.44230453140E+03  0.00000000000E+00 0.  1.
         -1    1    6    6    0  502 -0.12687205372E+02  0.64881787728E+03  0.19486715518E+03  0.67756830742E+03  0.00000000000E+00 0.  1.
<mgrwt>
<rscale>  0 0.29332435E+04</rscale>
<asrwt>0</asrwt>
<pdfrwt beam="1">  1        1 0.41850521E+00 0.29332435E+04</pdfrwt>
<pdfrwt beam="2">  1       -1 0.12164903E+00 0.29332435E+04</pdfrwt>
<totfact> 0.48623869E-01</totfact>
</mgrwt>
</event>
<event>
12    1  0.1472088E-007  0.2153363E+04  0.7818608E-02  0.8538094E-01
          2   -1    0    0  501    0  0.00000000000E+00  0.00000000000E+00  0.23425034589E+04  0.23425034589E+04  0.00000000000E+00 0. -1.
         -2   -1    0    0    0  501 -0.00000000000E+00 -0.00000000000E+00 -0.49487356753E+03  0.49487356753E+03  0.00000000000E+00 0.  1.
         23    2    1    2    0    0 -0.71172929721E+03  0.50047621173E+03  0.97839855047E+03  0.13125198299E+04  0.91703595090E+02 0.  0.
        254    2    1    2    0    0  0.71172929721E+03 -0.50047621173E+03  0.86923134091E+03  0.15248571965E+04  0.90143846973E+03 0.  0.
        -24    2    4    4    0    0  0.83767539750E+03 -0.24058299651E+03  0.38655447939E+03  0.95669232517E+03  0.79092286038E+02 0.  0.
         24    2    4    4    0    0 -0.12594610029E+03 -0.25989321522E+03  0.48267686151E+03  0.56816487134E+03  0.80171471781E+02 0.  0.
         13    1    3    3    0    0 -0.75361952123E+02  0.88396732719E+02  0.14696481686E+03  0.18732875801E+03  0.00000000000E+00 0.  1.
        -13    1    3    3    0    0 -0.63636734509E+03  0.41207947901E+03  0.83143373361E+03  0.11251910719E+04  0.00000000000E+00 0. -1.
          2    1    6    6  502    0 -0.90354923845E+02 -0.12959048875E+03  0.19995688198E+03  0.25483418470E+03  0.00000000000E+00 0. -1.
          1    1    5    5  503    0  0.70685008117E+03 -0.19457415937E+03  0.35452823187E+03  0.81436257769E+03  0.00000000000E+00 0. -1.
         -2    1    5    5    0  503  0.13082531633E+03 -0.46008837131E+02  0.32026247523E+02  0.14232974748E+03  0.00000000000E+00 0.  1.
         -1    1    6    6    0  502 -0.35591176442E+02 -0.13030272647E+03  0.28271997953E+03  0.31333068664E+03  0.00000000000E+00 0.  1.
<mgrwt>
<rscale>  0 0.21533630E+04</rscale>
<asrwt>0</asrwt>
<pdfrwt beam="1">  1        2 0.36038514E+00 0.21533630E+04</pdfrwt>
<pdfrwt beam="2">  1       -2 0.76134397E-01 0.21533630E+04</pdfrwt>
<totfact> 0.60764174E+00</totfact>
</mgrwt>
</event>
<event>
12    1  0.1472088E-007  0.1562026E+04  0.7818608E-02  0.8844223E-01
          1   -1    0    0  501    0  0.00000000000E+00  0.00000000000E+00  0.22534153528E+04  0.22534153528E+04  0.00000000000E+00 0. -1.
         -1   -1    0    0    0  501 -0.00000000000E+00 -0.00000000000E+00 -0.27069188809E+03  0.27069188809E+03  0.00000000000E+00 0.  1.
         23    2    1    2    0    0 -0.13781635359E+03  0.49033997599E+03  0.67023237284E+03  0.84596855837E+03  0.83813655109E+02 0.  0.
        254    2    1    2    0    0  0.13781635359E+03 -0.49033997599E+03  0.13124910919E+04  0.16781386825E+04  0.91328524141E+03 0.  0.
        -24    2    4    4    0    0  0.65680761180E+01 -0.74159356382E+03  0.10130299506E+04  0.12579803685E+04  0.79251328376E+02 0.  0.
         24    2    4    4    0    0  0.13124827747E+03  0.25125358783E+03  0.29946114126E+03  0.42015831408E+03  0.80632239379E+02 0.  0.
         11    1    3    3    0    0 -0.26866285857E+01  0.14854360942E+03  0.19982974561E+03  0.24900672502E+03  0.00000000000E+00 0.  1.
        -11    1    3    3    0    0 -0.13512972501E+03  0.34179636657E+03  0.47040262723E+03  0.59696183336E+03  0.00000000000E+00 0. -1.
          2    1    6    6  502    0  0.16545655722E+02  0.11334962566E+03  0.10188205425E+03  0.15330312893E+03  0.00000000000E+00 0. -1.
          1    1    5    5  503    0  0.31517180642E+02 -0.35463143906E+03  0.43845711028E+03  0.56480211385E+03  0.00000000000E+00 0. -1.
         -2    1    5    5    0  503 -0.24949104524E+02 -0.38696212475E+03  0.57457284035E+03  0.69317825462E+03  0.00000000000E+00 0.  1.
         -1    1    6    6    0  502  0.11470262175E+03  0.13790396217E+03  0.19757908701E+03  0.26685518515E+03  0.00000000000E+00 0.  1.
<mgrwt>
<rscale>  0 0.15620259E+04</rscale>
<asrwt>0</asrwt>
<pdfrwt beam="1">  1        1 0.34667927E+00 0.15620259E+04</pdfrwt>
<pdfrwt beam="2">  1       -1 0.41644907E-01 0.15620259E+04</pdfrwt>
<totfact> 0.10916839E+01</totfact>
</mgrwt>
</event>
<event>
12    1  0.1472088E-007  0.1221768E+04  0.7818608E-02  0.9094014E-01
          2   -1    0    0  501    0  0.00000000000E+00  0.00000000000E+00  0.77478715448E+03  0.77478715448E+03  0.00000000000E+00 0. -1.
         -2   -1    0    0    0  501 -0.00000000000E+00 -0.00000000000E+00 -0.48165358972E+03  0.48165358972E+03  0.00000000000E+00 0.  1.
         23    2    1    2    0    0 -0.25872813718E+03  0.40218450373E+02  0.50204841625E+02  0.28062743459E+03  0.87598277399E+02 0.  0.
        254    2    1    2    0    0  0.25872813718E+03 -0.40218450373E+02  0.24292872313E+03  0.97581330962E+03  0.90809662371E+03 0.  0.
        -24    2    4    4    0    0  0.28094927386E+03 -0.10535799303E+02 -0.30444504216E+03  0.42168269204E+03  0.78012893298E+02 0.  0.
         24    2    4    4    0    0 -0.22221136683E+02 -0.29682651070E+02  0.54737376529E+03  0.55413061758E+03  0.77896493655E+02 0.  0.
         11    1    3    3    0    0 -0.77599807669E+01  0.15044946387E+02 -0.12112799177E+02  0.20815561899E+02  0.00000000000E+00 0. -1.
        -11    1    3    3    0    0 -0.25096815641E+03  0.25173503986E+02  0.62317640802E+02  0.25981187269E+03  0.00000000000E+00 0.  1.
          2    1    6    6  502    0  0.18924238733E+02 -0.39445259652E+02  0.29867988663E+03  0.30186707339E+03  0.00000000000E+00 0. -1.
          1    1    5    5  503    0  0.23150587649E+03  0.19156886220E+02 -0.22404070481E+03  0.32273238844E+03  0.00000000000E+00 0. -1.
         -2    1    5    5    0  503  0.49443397372E+02 -0.29692685523E+02 -0.80404337349E+02  0.98950303596E+02  0.00000000000E+00 0.  1.
         -1    1    6    6    0  502 -0.41145375416E+02  0.97626085818E+01  0.24869387866E+03  0.25226354419E+03  0.00000000000E+00 0.  1.
<mgrwt>
<rscale>  0 0.12217676E+04</rscale>
<asrwt>0</asrwt>
<pdfrwt beam="1">  1        2 0.11919802E+00 0.12217676E+04</pdfrwt>
<pdfrwt beam="2">  1       -2 0.74100552E-01 0.12217676E+04</pdfrwt>
<totfact> 0.58106297E+01</totfact>
</mgrwt>
</event>
<event>
12    1  0.1472088E-007  0.1594735E+04  0.7818608E-02  0.8823789E-01
          2   -1    0    0  501    0  0.00000000000E+00  0.00000000000E+00  0.30966475572E+04  0.30966475572E+04  0.00000000000E+00 0. -1.
         -2   -1    0    0    0  501 -0.00000000000E+00 -0.00000000000E+00 -0.20531718188E+03  0.20531718188E+03  0.00000000000E+00 0.  1.
         23    2    1    2    0    0  0.82433645792E+02 -0.13499322318E+03  0.20537211535E+04  0.20618928482E+04  0.92806597923E+02 0.  0.
        254    2    1    2    0    0 -0.82433645792E+02  0.13499322318E+03  0.83760922176E+03  0.12400718909E+04  0.90065010403E+03 0.  0.
        -24    2    4    4    0    0  0.49345618067E+02 -0.31303818074E+03  0.64214329487E+02  0.33307213936E+03  0.79910432872E+02 0.  0.
         24    2    4    4    0    0 -0.13177926386E+03  0.44803140391E+03  0.77339489228E+03  0.90699975152E+03  0.80068574235E+02 0.  0.
         13    1    3    3    0    0  0.70978088159E+02 -0.14732315564E+03  0.17227406144E+04  0.17304846794E+04  0.00000000000E+00 0. -1.
        -13    1    3    3    0    0  0.11455557633E+02  0.12329932462E+02  0.33098053917E+03  0.33140816880E+03  0.00000000000E+00 0.  1.
          4    1    6    6  502    0 -0.11717637602E+03  0.28697033682E+03  0.54794416301E+03  0.62954355138E+03  0.00000000000E+00 0. -1.
          3    1    5    5  503    0  0.57128817981E+02 -0.18091897958E+03  0.98093699662E+01  0.18997790070E+03  0.00000000000E+00 0. -1.
         -4    1    5    5    0  503 -0.77831999142E+01 -0.13211920116E+03  0.54404959521E+02  0.14309423865E+03  0.00000000000E+00 0.  1.
         -3    1    6    6    0  502 -0.14602887840E+02  0.16106106710E+03  0.22545072926E+03  0.27745620014E+03  0.00000000000E+00 0.  1.
<mgrwt>
<rscale>  0 0.15947350E+04</rscale>
<asrwt>0</asrwt>
<pdfrwt beam="1">  1        2 0.47640728E+00 0.15947350E+04</pdfrwt>
<pdfrwt beam="2">  1       -2 0.31587261E-01 0.15947350E+04</pdfrwt>
<totfact> 0.13600600E+01</totfact>
</mgrwt>
</event>
<event>
12    1  0.1472088E-007  0.1589539E+04  0.7818608E-02  0.8827000E-01
         -1   -1    0    0    0  501 -0.00000000000E+00  0.00000000000E+00  0.31842979042E+03  0.31842979042E+03  0.00000000000E+00 0.  1.
          1   -1    0    0  501    0  0.00000000000E+00 -0.00000000000E+00 -0.19836676246E+04  0.19836676246E+04  0.00000000000E+00 0. -1.
         23    2    1    2    0    0  0.18097347318E+03  0.26839306836E+03  0.50626933660E+02  0.33996571934E+03  0.90704833243E+02 0.  0.
        254    2    1    2    0    0 -0.18097347318E+03 -0.26839306836E+03 -0.17158647678E+04  0.19621316956E+04  0.89497634188E+03 0.  0.
        -24    2    4    4    0    0 -0.36130040638E+02 -0.50711849588E+03 -0.15356345047E+04  0.16197123079E+04  0.82583772430E+02 0.  0.
         24    2    4    4    0    0 -0.14484343254E+03  0.23872542752E+03 -0.18023026309E+03  0.34241938778E+03  0.82453864069E+02 0.  0.
         13    1    3    3    0    0  0.13044004565E+03  0.15135055159E+03  0.68529022253E+02  0.21122931110E+03  0.00000000000E+00 0.  1.
        -13    1    3    3    0    0  0.50533427525E+02  0.11704251678E+03 -0.17902088593E+02  0.12873640824E+03  0.00000000000E+00 0. -1.
          4    1    6    6  502    0 -0.14335637715E+03  0.20540056335E+03 -0.13022854283E+03  0.28231173490E+03  0.00000000000E+00 0. -1.
          1    1    5    5  503    0 -0.11337632707E+02 -0.44415448256E+03 -0.13863960156E+04  0.14558487760E+04  0.00000000000E+00 0. -1.
         -2    1    5    5    0  503 -0.24792407930E+02 -0.62964013324E+02 -0.14923848905E+03  0.16386353188E+03  0.00000000000E+00 0.  1.
         -3    1    6    6    0  502 -0.14870553868E+01  0.33324864172E+02 -0.50001720263E+02  0.60107652883E+02  0.00000000000E+00 0.  1.
<mgrwt>
<rscale>  0 0.15895394E+04</rscale>
<asrwt>0</asrwt>
<pdfrwt beam="1">  1        1 0.30517964E+00 0.15895394E+04</pdfrwt>
<pdfrwt beam="2">  1       -1 0.48989198E-01 0.15895394E+04</pdfrwt>
<totfact> 0.12256281E+01</totfact>
</mgrwt>
</event>
<event>
12    1  0.1472088E-007  0.2994600E+04  0.7818608E-02  0.8245274E-01
         -1   -1    0    0    0  501 -0.00000000000E+00  0.00000000000E+00  0.12018328038E+04  0.12018328038E+04  0.00000000000E+00 0.  1.
          1   -1    0    0  501    0  0.00000000000E+00 -0.00000000000E+00 -0.18654074435E+04  0.18654074435E+04  0.00000000000E+00 0. -1.
         23    2    1    2    0    0 -0.11654576531E+04  0.52413181737E+03  0.18277559179E+03  0.12940979179E+04  0.90976925802E+02 0.  0.
        254    2    1    2    0    0  0.11654576531E+04 -0.52413181737E+03 -0.84635023151E+03  0.17731423295E+04  0.89147030415E+03 0.  0.
        -24    2    4    4    0    0  0.19255220155E+03  0.23231123642E+03 -0.25803808175E+03  0.40520328777E+03  0.81001184537E+02 0.  0.
         24    2    4    4    0    0  0.97290545150E+03 -0.75644305379E+03 -0.58831214976E+03  0.13679390417E+04  0.79968275549E+02 0.  0.
         13    1    3    3    0    0 -0.75269635366E+03  0.30670171892E+03  0.82910913930E+02  0.81700181447E+03  0.00000000000E+00 0.  1.
        -13    1    3    3    0    0 -0.41276129940E+03  0.21743009846E+03  0.99864677856E+02  0.47709610340E+03  0.00000000000E+00 0. -1.
          4    1    6    6  502    0  0.35243395690E+03 -0.29200899107E+03 -0.25850996075E+03  0.52564849914E+03  0.00000000000E+00 0. -1.
          1    1    5    5  503    0  0.10006984073E+03  0.68588755752E+02 -0.74089258539E+02  0.14215346872E+03  0.00000000000E+00 0. -1.
         -2    1    5    5    0  503  0.92482360820E+02  0.16372248067E+03 -0.18394882321E+03  0.26304981904E+03  0.00000000000E+00 0.  1.
         -3    1    6    6    0  502  0.62047149461E+03 -0.46443406272E+03 -0.32980218901E+03  0.84229054258E+03  0.00000000000E+00 0.  1.
<mgrwt>
<rscale>  0 0.29946004E+04</rscale>
<asrwt>0</asrwt>
<pdfrwt beam="1">  1        1 0.28698576E+00 0.29946004E+04</pdfrwt>
<pdfrwt beam="2">  1       -1 0.18489736E+00 0.29946004E+04</pdfrwt>
<totfact> 0.60122707E-01</totfact>
</mgrwt>
</event>
<event>
12    1  0.1472088E-007  0.1528278E+04  0.7818608E-02  0.8865863E-01
         -2   -1    0    0    0  501 -0.00000000000E+00  0.00000000000E+00  0.12780844241E+03  0.12780844241E+03  0.00000000000E+00 0.  1.
          2   -1    0    0  501    0  0.00000000000E+00 -0.00000000000E+00 -0.45686205520E+04  0.45686205520E+04  0.00000000000E+00 0. -1.
         23    2    1    2    0    0  0.31010245773E+02 -0.43703150099E+03 -0.74596874750E+03  0.86970614075E+03  0.89225729599E+02 0.  0.
        254    2    1    2    0    0 -0.31010245773E+02  0.43703150099E+03 -0.36948433621E+04  0.38267228536E+04  0.89441721810E+03 0.  0.
        -24    2    4    4    0    0  0.32962801820E+03  0.26233285388E+03 -0.84287441195E+03  0.94563193976E+03  0.79431319745E+02 0.  0.
         24    2    4    4    0    0 -0.36063826398E+03  0.17469864710E+03 -0.28519689501E+04  0.28810909138E+04  0.79864803230E+02 0.  0.
         13    1    3    3    0    0 -0.82654338619E+01 -0.79844204451E+02 -0.20611903249E+03  0.22119780726E+03  0.00000000000E+00 0. -1.
        -13    1    3    3    0    0  0.39275679635E+02 -0.35718729654E+03 -0.53984971500E+03  0.64850833349E+03  0.00000000000E+00 0.  1.
          4    1    6    6  502    0 -0.12984320848E+03  0.26660704481E+02 -0.10627141502E+04  0.10709488396E+04  0.00000000000E+00 0. -1.
          3    1    5    5  503    0  0.28224035154E+03  0.18401565737E+03 -0.64980449645E+03  0.73196124337E+03  0.00000000000E+00 0. -1.
         -4    1    5    5    0  503  0.47387666663E+02  0.78317196513E+02 -0.19306991550E+03  0.21367069639E+03  0.00000000000E+00 0.  1.
         -3    1    6    6    0  502 -0.23079505550E+03  0.14803794262E+03 -0.17892547999E+04  0.18101420742E+04  0.00000000000E+00 0.  1.
<mgrwt>
<rscale>  0 0.15282778E+04</rscale>
<asrwt>0</asrwt>
<pdfrwt beam="1">  1        2 0.70286473E+00 0.15282778E+04</pdfrwt>
<pdfrwt beam="2">  1       -2 0.19662836E-01 0.15282778E+04</pdfrwt>
<totfact> 0.23150824E+00</totfact>
</mgrwt>
</event>
<event>
12    1  0.1472088E-007  0.1127584E+04  0.7818608E-02  0.9178716E-01
         -2   -1    0    0    0  501 -0.00000000000E+00  0.00000000000E+00  0.25355907636E+03  0.25355907636E+03  0.00000000000E+00 0. -1.
          2   -1    0    0  501    0  0.00000000000E+00 -0.00000000000E+00 -0.12535995495E+04  0.12535995495E+04  0.00000000000E+00 0.  1.
         23    2    1    2    0    0  0.17309437824E+02 -0.17207787998E+03 -0.23051408570E+03  0.30230526274E+03  0.91330798531E+02 0.  0.
        254    2    1    2    0    0 -0.17309437824E+02  0.17207787998E+03 -0.76952638749E+03  0.12048533632E+04  0.91081850677E+03 0.  0.
        -24    2    4    4    0    0  0.35241153564E+02 -0.35097708001E+03 -0.15937061036E+03  0.39535436754E+03  0.80493694725E+02 0.  0.
         24    2    4    4    0    0 -0.52550591388E+02  0.52305495999E+03 -0.61015577713E+03  0.80949899563E+03  0.81550571662E+02 0.  0.
         13    1    3    3    0    0 -0.26924826897E+02 -0.33156506486E+02 -0.22470432785E+02  0.48261999289E+02  0.00000000000E+00 0. -1.
        -13    1    3    3    0    0  0.44234264721E+02 -0.13892137349E+03 -0.20804365291E+03  0.25404326345E+03  0.00000000000E+00 0.  1.
          4    1    6    6  502    0 -0.53072760273E+02  0.36163713923E+03 -0.36964740256E+03  0.51984357318E+03  0.00000000000E+00 0. -1.
          3    1    5    5  503    0 -0.24720732376E+02 -0.86120581056E+02 -0.29430334189E+02  0.94308078451E+02  0.00000000000E+00 0. -1.
         -4    1    5    5    0  503  0.59961885940E+02 -0.26485649895E+03 -0.12994027617E+03  0.30104628909E+03  0.00000000000E+00 0.  1.
         -3    1    6    6    0  502  0.52216888411E+00  0.16141782075E+03 -0.24050837457E+03  0.28965542245E+03  0.00000000000E+00 0.  1.
<mgrwt>
<rscale>  0 0.11275842E+04</rscale>
<asrwt>0</asrwt>
<pdfrwt beam="1">  1        2 0.19286147E+00 0.11275842E+04</pdfrwt>
<pdfrwt beam="2">  1       -2 0.39009089E-01 0.11275842E+04</pdfrwt>
<totfact> 0.10828995E+02</totfact>
</mgrwt>
</event>
<event>
12    1  0.1472088E-007  0.1621261E+04  0.7818608E-02  0.8807592E-01
         -2   -1    0    0    0  501 -0.00000000000E+00  0.00000000000E+00  0.64409678360E+03  0.64409678360E+03  0.00000000000E+00 0. -1.
          2   -1    0    0  501    0  0.00000000000E+00 -0.00000000000E+00 -0.10202221782E+04  0.10202221782E+04  0.00000000000E+00 0.  1.
         23    2    1    2    0    0  0.14137579809E+03 -0.53294534556E+03 -0.18312389237E+02  0.55918991250E+03  0.91324460013E+02 0.  0.
        254    2    1    2    0    0 -0.14137579809E+03  0.53294534556E+03 -0.35781300540E+03  0.11051290493E+04  0.88840430617E+03 0.  0.
        -24    2    4    4    0    0  0.14051833850E+03 -0.19596113051E+03 -0.13923280403E+03  0.28959880537E+03  0.79596018938E+02 0.  0.
         24    2    4    4    0    0 -0.28189413660E+03  0.72890647607E+03 -0.21858020138E+03  0.81553024397E+03  0.80890786143E+02 0.  0.
         11    1    3    3    0    0  0.11939920833E+03 -0.29949964453E+03  0.12686166063E+02  0.32267188727E+03  0.00000000000E+00 0.  1.
        -11    1    3    3    0    0  0.21976589762E+02 -0.23344570103E+03 -0.30998555300E+02  0.23651802523E+03  0.00000000000E+00 0. -1.
          2    1    6    6  502    0 -0.22732095829E+03  0.62954345277E+03 -0.21148871750E+03  0.70194533593E+03  0.00000000000E+00 0. -1.
          3    1    5    5  503    0  0.10019383949E+03 -0.17568045271E+03 -0.13725072350E+03  0.24441805996E+03  0.00000000000E+00 0. -1.
         -4    1    5    5    0  503  0.40324499016E+02 -0.20280677805E+02 -0.19820805308E+01  0.45180745416E+02  0.00000000000E+00 0.  1.
         -1    1    6    6    0  502 -0.54573178302E+02  0.99363023304E+02 -0.70914838740E+01  0.11358490804E+03  0.00000000000E+00 0.  1.
<mgrwt>
<rscale>  0 0.16212610E+04</rscale>
<asrwt>0</asrwt>
<pdfrwt beam="1">  1        2 0.15695726E+00 0.16212610E+04</pdfrwt>
<pdfrwt beam="2">  1       -2 0.99091814E-01 0.16212610E+04</pdfrwt>
<totfact> 0.19759334E+01</totfact>
</mgrwt>
</event>
<event>
12    1  0.1472088E-007  0.1091939E+04  0.7818608E-02  0.9213084E-01
          1   -1    0    0  501    0  0.00000000000E+00  0.00000000000E+00  0.10727336642E+04  0.10727336642E+04  0.00000000000E+00 0. -1.
         -1   -1    0    0    0  501 -0.00000000000E+00 -0.00000000000E+00 -0.27787207859E+03  0.27787207859E+03  0.00000000000E+00 0.  1.
         23    2    1    2    0    0  0.12969790158E+03 -0.73790863618E+02  0.84542691387E+02  0.19464813392E+03  0.92053202780E+02 0.  0.
        254    2    1    2    0    0 -0.12969790158E+03  0.73790863618E+02  0.71031889419E+03  0.11559576088E+04  0.89967684462E+03 0.  0.
        -24    2    4    4    0    0  0.18737028385E+03 -0.31773359175E+03  0.43649480446E+03  0.57699969002E+03  0.79615760792E+02 0.  0.
         24    2    4    4    0    0 -0.31706818544E+03  0.39152445537E+03  0.27382408973E+03  0.57895791881E+03  0.79931259665E+02 0.  0.
         11    1    3    3    0    0  0.63841125738E+02  0.18007699959E+01  0.67550940295E+02  0.92962689521E+02  0.00000000000E+00 0. -1.
        -11    1    3    3    0    0  0.65856775845E+02 -0.75591633614E+02  0.16991751092E+02  0.10168544440E+03  0.00000000000E+00 0.  1.
          2    1    6    6  502    0 -0.11310524713E+03  0.83488616803E+02  0.80290223495E+02  0.16189399635E+03  0.00000000000E+00 0. -1.
          1    1    5    5  503    0  0.19214640588E+03 -0.30398038752E+03  0.40098749556E+03  0.53862351312E+03  0.00000000000E+00 0. -1.
         -2    1    5    5    0  503 -0.47761220268E+01 -0.13753204228E+02  0.35507308904E+02  0.38376176904E+02  0.00000000000E+00 0.  1.
         -1    1    6    6    0  502 -0.20396293831E+03  0.30803583857E+03  0.19353386623E+03  0.41706392247E+03  0.00000000000E+00 0.  1.
<mgrwt>
<rscale>  0 0.10919391E+04</rscale>
<asrwt>0</asrwt>
<pdfrwt beam="1">  1        1 0.16503595E+00 0.10919391E+04</pdfrwt>
<pdfrwt beam="2">  1       -1 0.42749551E-01 0.10919391E+04</pdfrwt>
<totfact> 0.71383697E+01</totfact>
</mgrwt>
</event>
<event>
12    1  0.1472088E-007  0.1946431E+04  0.7818608E-02  0.8632084E-01
         -2   -1    0    0    0  501 -0.00000000000E+00  0.00000000000E+00  0.41137645368E+03  0.41137645368E+03  0.00000000000E+00 0.  1.
          2   -1    0    0  501    0  0.00000000000E+00 -0.00000000000E+00 -0.23023888966E+04  0.23023888966E+04  0.00000000000E+00 0. -1.
         23    2    1    2    0    0 -0.63716779603E+03 -0.96455359385E+02 -0.11857085879E+04  0.13526810829E+04  0.92492270233E+02 0.  0.
        254    2    1    2    0    0  0.63716779603E+03  0.96455359385E+02 -0.70530385507E+03  0.13610842674E+04  0.96943819728E+03 0.  0.
        -24    2    4    4    0    0  0.59151964051E+03 -0.88073144360E+02 -0.89627505330E+03  0.10803318104E+04  0.78456901793E+02 0.  0.
         24    2    4    4    0    0  0.45648155513E+02  0.18452850374E+03  0.19097119823E+03  0.28075245705E+03  0.78850623266E+02 0.  0.
         13    1    3    3    0    0 -0.63051683425E+03 -0.83526201627E+02 -0.11660196564E+04  0.13282055352E+04  0.00000000000E+00 0. -1.
        -13    1    3    3    0    0 -0.66509617743E+01 -0.12929157759E+02 -0.19688931473E+02  0.24475547704E+02  0.00000000000E+00 0.  1.
          2    1    6    6  502    0  0.34287618177E+02  0.76145930410E+02  0.35151487899E+02  0.90606128820E+02  0.00000000000E+00 0. -1.
          1    1    5    5  503    0  0.92832358076E+02 -0.41570837286E+02 -0.16992652952E+03  0.19804294144E+03  0.00000000000E+00 0. -1.
         -2    1    5    5    0  503  0.49868728244E+03 -0.46502307074E+02 -0.72634852378E+03  0.88228886892E+03  0.00000000000E+00 0.  1.
         -1    1    6    6    0  502  0.11360537336E+02  0.10838257333E+03  0.15581971033E+03  0.19014632823E+03  0.00000000000E+00 0.  1.
<mgrwt>
<rscale>  0 0.19464312E+04</rscale>
<asrwt>0</asrwt>
<pdfrwt beam="1">  1        2 0.35421369E+00 0.19464312E+04</pdfrwt>
<pdfrwt beam="2">  1       -2 0.63288683E-01 0.19464312E+04</pdfrwt>
<totfact> 0.97514010E+00</totfact>
</mgrwt>
</event>
<event>
12    1  0.1472088E-007  0.1777338E+04  0.7818608E-02  0.8718444E-01
         -2   -1    0    0    0  501 -0.00000000000E+00  0.00000000000E+00  0.38708981404E+03  0.38708981404E+03  0.00000000000E+00 0. -1.
          2   -1    0    0  501    0  0.00000000000E+00 -0.00000000000E+00 -0.20401798049E+04  0.20401798049E+04  0.00000000000E+00 0.  1.
         23    2    1    2    0    0 -0.23100584187E+03  0.18741850777E+03  0.17643612366E+03  0.35765500304E+03  0.91093355592E+02 0.  0.
        254    2    1    2    0    0  0.23100584187E+03 -0.18741850777E+03 -0.18295261145E+04  0.20696146159E+04  0.92067880318E+03 0.  0.
        -24    2    4    4    0    0 -0.94165990763E+02  0.27335864159E+03 -0.25071340387E+03  0.39117486994E+03  0.81045587453E+02 0.  0.
         24    2    4    4    0    0  0.32517183264E+03 -0.46077714936E+03 -0.15788127106E+04  0.16784397459E+04  0.80362325916E+02 0.  0.
         11    1    3    3    0    0 -0.69121654749E+02  0.20372028913E+02  0.74606312570E+02  0.10372523604E+03  0.00000000000E+00 0.  1.
        -11    1    3    3    0    0 -0.16188418712E+03  0.16704647886E+03  0.10182981109E+03  0.25392976699E+03  0.00000000000E+00 0. -1.
          2    1    6    6  502    0  0.12174424388E+03 -0.21714053400E+03 -0.60529191510E+03  0.65448451082E+03  0.00000000000E+00 0. -1.
          3    1    5    5  503    0 -0.91354695111E+02  0.23319951874E+03 -0.17536382767E+03  0.30574526638E+03  0.00000000000E+00 0. -1.
         -4    1    5    5    0  503 -0.28112956527E+01  0.40159122849E+02 -0.75349576194E+02  0.85429603557E+02  0.00000000000E+00 0.  1.
         -1    1    6    6    0  502  0.20342758875E+03 -0.24363661535E+03 -0.97352079552E+03  0.10239552351E+04  0.00000000000E+00 0.  1.
<mgrwt>
<rscale>  0 0.17773383E+04</rscale>
<asrwt>0</asrwt>
<pdfrwt beam="1">  1        2 0.31387382E+00 0.17773383E+04</pdfrwt>
<pdfrwt beam="2">  1       -2 0.59552279E-01 0.17773383E+04</pdfrwt>
<totfact> 0.15792823E+01</totfact>
</mgrwt>
</event>
<event>
12    1  0.1472088E-007  0.3297929E+04  0.7818608E-02  0.8163423E-01
          2   -1    0    0  501    0  0.00000000000E+00  0.00000000000E+00  0.23032590212E+04  0.23032590212E+04  0.00000000000E+00 0. -1.
         -2   -1    0    0    0  501 -0.00000000000E+00 -0.00000000000E+00 -0.11805373163E+04  0.11805373163E+04  0.00000000000E+00 0.  1.
         23    2    1    2    0    0 -0.80053109076E+03  0.21946548457E+03 -0.83085313885E+03  0.11779656345E+04  0.90944881914E+02 0.  0.
        254    2    1    2    0    0  0.80053109076E+03 -0.21946548457E+03  0.19535748438E+04  0.23058307030E+04  0.90076935702E+03 0.  0.
        -24    2    4    4    0    0  0.12928679823E+03  0.37175170907E+02 -0.58668606232E+02  0.16739072117E+03  0.80502041274E+02 0.  0.
         24    2    4    4    0    0  0.67124429253E+03 -0.25664065548E+03  0.20122434500E+04  0.21384399819E+04  0.85840127830E+02 0.  0.
         13    1    3    3    0    0 -0.74060102406E+03  0.22064606084E+03 -0.79194063596E+03  0.11065010311E+04  0.00000000000E+00 0.  1.
        -13    1    3    3    0    0 -0.59930066699E+02 -0.11805762645E+01 -0.38912502898E+02  0.71464603383E+02  0.00000000000E+00 0. -1.
          4    1    6    6  502    0  0.22252878645E+03 -0.12817364830E+03  0.73813891427E+03  0.78153477317E+03  0.00000000000E+00 0. -1.
          3    1    5    5  503    0  0.11939453895E+03  0.48050767748E+02 -0.72062856541E+02  0.14750249999E+03  0.00000000000E+00 0. -1.
         -4    1    5    5    0  503  0.98922592841E+01 -0.10875596841E+02  0.13394250309E+02  0.19888221181E+02  0.00000000000E+00 0.  1.
         -3    1    6    6    0  502  0.44871550608E+03 -0.12846700718E+03  0.12741045358E+04  0.13569052087E+04  0.00000000000E+00 0.  1.
<mgrwt>
<rscale>  0 0.32979286E+04</rscale>
<asrwt>0</asrwt>
<pdfrwt beam="1">  1        2 0.35434754E+00 0.32979286E+04</pdfrwt>
<pdfrwt beam="2">  1       -2 0.18162113E+00 0.32979286E+04</pdfrwt>
<totfact> 0.66638597E-01</totfact>
</mgrwt>
</event>
<event>
12    1  0.1472088E-007  0.1697072E+04  0.7818608E-02  0.8763036E-01
         -2   -1    0    0    0  501 -0.00000000000E+00  0.00000000000E+00  0.10314919401E+04  0.10314919401E+04  0.00000000000E+00 0.  1.
          2   -1    0    0  501    0  0.00000000000E+00 -0.00000000000E+00 -0.69803104876E+03  0.69803104876E+03  0.00000000000E+00 0. -1.
         23    2    1    2    0    0 -0.40154191208E+03  0.36445332857E+03 -0.21011035387E+03  0.58862407210E+03  0.90938449425E+02 0.  0.
        254    2    1    2    0    0  0.40154191208E+03 -0.36445332857E+03  0.54357124519E+03  0.11408989167E+04  0.84387114169E+03 0.  0.
        -24    2    4    4    0    0  0.11523300676E+02  0.24671896899E+03  0.60457190399E+02  0.26601264433E+03  0.78132060982E+02 0.  0.
         24    2    4    4    0    0  0.39001861140E+03 -0.61117229756E+03  0.48311405479E+03  0.87488627242E+03  0.79879316379E+02 0.  0.
         13    1    3    3    0    0 -0.13394921476E+03  0.13983314012E+03 -0.31293373182E+02  0.19615038724E+03  0.00000000000E+00 0.  1.
        -13    1    3    3    0    0 -0.26759269732E+03  0.22462018845E+03 -0.17881698069E+03  0.39247368485E+03  0.00000000000E+00 0. -1.
          4    1    6    6  502    0  0.14546072811E+03 -0.25378990232E+03  0.23921156386E+03  0.37787605141E+03  0.00000000000E+00 0. -1.
          3    1    5    5  503    0 -0.10666545737E+02  0.31568010300E+02 -0.15527581846E+02  0.36761668490E+02  0.00000000000E+00 0. -1.
         -4    1    5    5    0  503  0.22189846412E+02  0.21515095869E+03  0.75984772245E+02  0.22925097584E+03  0.00000000000E+00 0.  1.
         -3    1    6    6    0  502  0.24455788330E+03 -0.35738239524E+03  0.24390249092E+03  0.49701022101E+03  0.00000000000E+00 0.  1.
<mgrwt>
<rscale>  0 0.16970721E+04</rscale>
<asrwt>0</asrwt>
<pdfrwt beam="1">  1        2 0.10738939E+00 0.16970721E+04</pdfrwt>
<pdfrwt beam="2">  1       -2 0.15869107E+00 0.16970721E+04</pdfrwt>
<totfact> 0.10074574E+01</totfact>
</mgrwt>
</event>
<event>
12    1  0.1472088E-007  0.2852484E+04  0.7818608E-02  0.8287157E-01
         -1   -1    0    0    0  501 -0.00000000000E+00  0.00000000000E+00  0.10504297959E+04  0.10504297959E+04  0.00000000000E+00 0.  1.
          1   -1    0    0  501    0  0.00000000000E+00 -0.00000000000E+00 -0.19365088014E+04  0.19365088014E+04  0.00000000000E+00 0. -1.
         23    2    1    2    0    0 -0.11775767034E+04 -0.45372321226E+03 -0.59896987781E+03  0.13998591764E+04  0.91044788130E+02 0.  0.
        254    2    1    2    0    0  0.11775767034E+04  0.45372321226E+03 -0.28710912769E+03  0.15870794210E+04  0.91860644002E+03 0.  0.
        -24    2    4    4    0    0  0.65796356371E+02 -0.10396321093E+03  0.20083631896E+03  0.24853466411E+03  0.79352016426E+02 0.  0.
         24    2    4    4    0    0  0.11117803470E+04  0.55768642319E+03 -0.48794544665E+03  0.13385447569E+04  0.80880286046E+02 0.  0.
         13    1    3    3    0    0 -0.96218831289E+03 -0.35833917651E+03 -0.44917079745E+03  0.11206996565E+04  0.00000000000E+00 0. -1.
        -13    1    3    3    0    0 -0.21538839049E+03 -0.95384035751E+02 -0.14979908036E+03  0.27915951983E+03  0.00000000000E+00 0.  1.
          2    1    6    6  502    0  0.10280229241E+04  0.49705466354E+03 -0.46300074371E+03  0.12321786233E+04  0.00000000000E+00 0. -1.
          3    1    5    5  503    0  0.31231817359E+02 -0.12057267545E+02  0.10923674027E+03  0.11425178134E+03  0.00000000000E+00 0. -1.
         -4    1    5    5    0  503  0.34564539012E+02 -0.91905943383E+02  0.91599578695E+02  0.13428288276E+03  0.00000000000E+00 0.  1.
         -1    1    6    6    0  502  0.83757422897E+02  0.60631759647E+02 -0.24944702940E+02  0.10636613358E+03  0.00000000000E+00 0.  1.
<mgrwt>
<rscale>  0 0.28524842E+04</rscale>
<asrwt>0</asrwt>
<pdfrwt beam="1">  1        1 0.29792443E+00 0.28524842E+04</pdfrwt>
<pdfrwt beam="2">  1       -1 0.16160458E+00 0.28524842E+04</pdfrwt>
<totfact> 0.80598433E-01</totfact>
</mgrwt>
</event>
<event>
12    1  0.1559340E-007  0.2001310E+04  0.7818608E-02  0.8606008E-01
          2   -1    0    0  501    0  0.00000000000E+00  0.00000000000E+00  0.19451738656E+04  0.19451738656E+04  0.00000000000E+00 0. -1.
         -2   -1    0    0    0  501 -0.00000000000E+00 -0.00000000000E+00 -0.51476661114E+03  0.51476661114E+03  0.00000000000E+00 0.  1.
         23    2    1    2    0    0  0.63849232317E+03  0.37624255131E+03  0.21408061838E+03  0.77678986141E+03  0.91329477471E+02 0.  0.
        254    2    1    2    0    0 -0.63849232317E+03 -0.37624255131E+03  0.12163266361E+04  0.16831506154E+04  0.89683588474E+03 0.  0.
        -24    2    4    4    0    0 -0.16438748663E+03 -0.15849532292E+03 -0.10125456250E+03  0.26374361378E+03  0.84641563281E+02 0.  0.
         24    2    4    4    0    0 -0.47410483654E+03 -0.21774722839E+03  0.13175811986E+04  0.14194070016E+04  0.80664550593E+02 0.  0.
         13    1    3    3    0    0  0.42418462535E+03  0.23593550237E+03  0.18309891230E+03  0.51877101822E+03  0.00000000000E+00 0.  1.
        -13    1    3    3    0    0  0.21430769781E+03  0.14030704894E+03  0.30981706086E+02  0.25801884318E+03  0.00000000000E+00 0. -1.
          4    1    6    6  502    0 -0.51915156103E+01  0.32143319123E+01  0.43273285427E+02  0.43701956428E+02  0.00000000000E+00 0. -1.
          1    1    5    5  503    0 -0.48141925429E+02 -0.68495448100E+02  0.25757402453E+01  0.83761004246E+02  0.00000000000E+00 0. -1.
         -2    1    5    5    0  503 -0.11624556120E+03 -0.89999874824E+02 -0.10383030275E+03  0.17998260954E+03  0.00000000000E+00 0.  1.
         -3    1    6    6    0  502 -0.46891332093E+03 -0.22096156030E+03  0.12743079132E+04  0.13757050452E+04  0.00000000000E+00 0.  1.
<mgrwt>
<rscale>  0 0.20013101E+04</rscale>
<asrwt>0</asrwt>
<pdfrwt beam="1">  1        2 0.29925751E+00 0.20013101E+04</pdfrwt>
<pdfrwt beam="2">  1       -2 0.79194864E-01 0.20013101E+04</pdfrwt>
<totfact> 0.94142682E+00</totfact>
</mgrwt>
</event>
<event>
12    1  0.1472088E-007  0.2759409E+04  0.7818608E-02  0.8315982E-01
         -2   -1    0    0    0  501 -0.00000000000E+00  0.00000000000E+00  0.85487608012E+03  0.85487608012E+03  0.00000000000E+00 0.  1.
          2   -1    0    0  501    0  0.00000000000E+00 -0.00000000000E+00 -0.22267376431E+04  0.22267376431E+04  0.00000000000E+00 0. -1.
         23    2    1    2    0    0  0.32360748986E+03  0.85960991894E+03  0.30229888723E+03  0.97123505814E+03  0.90894998296E+02 0.  0.
        254    2    1    2    0    0 -0.32360748986E+03 -0.85960991894E+03 -0.16741604502E+04  0.21103786651E+04  0.89846195062E+03 0.  0.
        -24    2    4    4    0    0 -0.29128280212E+02  0.11783028787E+03 -0.63501269808E+03  0.65155513889E+03  0.80935399193E+02 0.  0.
         24    2    4    4    0    0 -0.29447920964E+03 -0.97744020681E+03 -0.10391477521E+04  0.14588235262E+04  0.78934574097E+02 0.  0.
         13    1    3    3    0    0  0.90074233227E+01  0.88832660752E+02  0.44241252269E+02  0.99647697884E+02  0.00000000000E+00 0. -1.
        -13    1    3    3    0    0  0.31460006653E+03  0.77077725819E+03  0.25805763496E+03  0.87158736026E+03  0.00000000000E+00 0.  1.
          2    1    6    6  502    0 -0.24957146934E+03 -0.89325337181E+03 -0.92255290264E+03  0.13081633548E+04  0.00000000000E+00 0. -1.
          3    1    5    5  503    0 -0.43994156858E+02  0.11301083488E+03 -0.45562937135E+03  0.47149237393E+03  0.00000000000E+00 0. -1.
         -4    1    5    5    0  503  0.14865876646E+02  0.48194529864E+01 -0.17938332673E+03  0.18006276496E+03  0.00000000000E+00 0.  1.
         -1    1    6    6    0  502 -0.44907740300E+02 -0.84186834994E+02 -0.11659484950E+03  0.15066017143E+03  0.00000000000E+00 0.  1.
<mgrwt>
<rscale>  0 0.27594092E+04</rscale>
<asrwt>0</asrwt>
<pdfrwt beam="1">  1        2 0.34257502E+00 0.27594092E+04</pdfrwt>
<pdfrwt beam="2">  1       -2 0.13151940E+00 0.27594092E+04</pdfrwt>
<totfact> 0.18360813E+00</totfact>
</mgrwt>
</event>
<event>
12    1  0.1472088E-007  0.2019553E+04  0.7818608E-02  0.8597533E-01
          2   -1    0    0  501    0  0.00000000000E+00  0.00000000000E+00  0.14274019710E+04  0.14274019710E+04  0.00000000000E+00 0. -1.
         -2   -1    0    0    0  501 -0.00000000000E+00 -0.00000000000E+00 -0.71433876405E+03  0.71433876405E+03  0.00000000000E+00 0.  1.
         23    2    1    2    0    0  0.80139174672E+03  0.28195407558E+02  0.36287989715E+03  0.88337758983E+03  0.75169367133E+02 0.  0.
        254    2    1    2    0    0 -0.80139174672E+03 -0.28195407558E+02  0.35018330976E+03  0.12583631452E+04  0.90433718378E+03 0.  0.
        -24    2    4    4    0    0 -0.45547374349E+03  0.37657209956E+03  0.39931675450E+03  0.71762052800E+03  0.79135798494E+02 0.  0.
         24    2    4    4    0    0 -0.34591800323E+03 -0.40476750712E+03 -0.49133444747E+02  0.54074261716E+03  0.80575944597E+02 0.  0.
         13    1    3    3    0    0  0.60074778809E+03  0.78277107798E-01  0.24352254225E+03  0.64822923384E+03  0.00000000000E+00 0.  1.
        -13    1    3    3    0    0  0.20064395863E+03  0.28117130451E+02  0.11935735490E+03  0.23514835600E+03  0.00000000000E+00 0. -1.
          2    1    6    6  502    0 -0.28645608425E+02 -0.77783469334E+02 -0.66882373751E+01  0.83159915241E+02  0.00000000000E+00 0. -1.
          3    1    5    5  503    0 -0.14086964065E+03  0.14016072931E+03  0.17412827106E+03  0.26421570824E+03  0.00000000000E+00 0. -1.
         -4    1    5    5    0  503 -0.31460410284E+03  0.23641137026E+03  0.22518848344E+03  0.45340481976E+03  0.00000000000E+00 0.  1.
         -1    1    6    6    0  502 -0.31727239480E+03 -0.32698403779E+03 -0.42445207372E+02  0.45758270192E+03  0.00000000000E+00 0.  1.
<mgrwt>
<rscale>  0 0.20195530E+04</rscale>
<asrwt>0</asrwt>
<pdfrwt beam="1">  1        2 0.21960030E+00 0.20195530E+04</pdfrwt>
<pdfrwt beam="2">  1       -2 0.10989827E+00 0.20195530E+04</pdfrwt>
<totfact> 0.85269891E+00</totfact>
</mgrwt>
</event>
<event>
12    1  0.1472088E-007  0.1510108E+04  0.7818608E-02  0.8877759E-01
         -2   -1    0    0    0  501 -0.00000000000E+00  0.00000000000E+00  0.33569647324E+03  0.33569647324E+03  0.00000000000E+00 0.  1.
          2   -1    0    0  501    0  0.00000000000E+00 -0.00000000000E+00 -0.16982801578E+04  0.16982801578E+04  0.00000000000E+00 0. -1.
         23    2    1    2    0    0  0.29292803777E+03  0.36386802175E+03 -0.27910313820E+03  0.55144144417E+03  0.89343897554E+02 0.  0.
        254    2    1    2    0    0 -0.29292803777E+03 -0.36386802175E+03 -0.10834805463E+04  0.14825351868E+04  0.89764899229E+03 0.  0.
        -24    2    4    4    0    0 -0.38395295928E+03  0.18081793804E+03 -0.62896292282E+03  0.76295085872E+03  0.79904022892E+02 0.  0.
         24    2    4    4    0    0  0.91024921508E+02 -0.54468595979E+03 -0.45451762349E+03  0.71958432811E+03  0.79037991237E+02 0.  0.
         11    1    3    3    0    0  0.62181945820E+02  0.13092696198E+03 -0.11361661431E+03  0.18416622602E+03  0.00000000000E+00 0. -1.
        -11    1    3    3    0    0  0.23074609195E+03  0.23294105977E+03 -0.16548652389E+03  0.36727521815E+03  0.00000000000E+00 0.  1.
          4    1    6    6  502    0  0.14093993839E+02 -0.28211548578E+03 -0.25965901989E+03  0.38368032865E+03  0.00000000000E+00 0. -1.
          1    1    5    5  503    0 -0.34697959876E+03  0.18393081281E+03 -0.55122425577E+03  0.67681132231E+03  0.00000000000E+00 0. -1.
         -2    1    5    5    0  503 -0.36973360520E+02 -0.31128747709E+01 -0.77738667047E+02  0.86139536403E+02  0.00000000000E+00 0.  1.
         -3    1    6    6    0  502  0.76930927670E+02 -0.26257047401E+03 -0.19485860360E+03  0.33590399946E+03  0.00000000000E+00 0.  1.
<mgrwt>
<rscale>  0 0.15101082E+04</rscale>
<asrwt>0</asrwt>
<pdfrwt beam="1">  1        2 0.26127387E+00 0.15101082E+04</pdfrwt>
<pdfrwt beam="2">  1       -2 0.51645611E-01 0.15101082E+04</pdfrwt>
<totfact> 0.33598905E+01</totfact>
</mgrwt>
</event>
<event>
12    1  0.1472088E-007  0.1192415E+04  0.7818608E-02  0.9119522E-01
         -2   -1    0    0    0  501 -0.00000000000E+00  0.00000000000E+00  0.15818994795E+03  0.15818994795E+03  0.00000000000E+00 0.  1.
          2   -1    0    0  501    0  0.00000000000E+00 -0.00000000000E+00 -0.22470669293E+04  0.22470669293E+04  0.00000000000E+00 0. -1.
         23    2    1    2    0    0  0.21388750331E+03  0.64472585625E+02 -0.64958849812E+03  0.69346074193E+03  0.94963178887E+02 0.  0.
        254    2    1    2    0    0 -0.21388750331E+03 -0.64472585625E+02 -0.14392884832E+04  0.17117961353E+04  0.89932757801E+03 0.  0.
        -24    2    4    4    0    0  0.14223318864E+03 -0.31213076209E+03 -0.11008326062E+04  0.11559280661E+04  0.81739675592E+02 0.  0.
         24    2    4    4    0    0 -0.35612069195E+03  0.24765817646E+03 -0.33845587704E+03  0.55586806922E+03  0.79249038271E+02 0.  0.
         13    1    3    3    0    0  0.16006365884E+03  0.72085324196E+02 -0.38198265222E+03  0.42038959959E+03  0.00000000000E+00 0.  1.
        -13    1    3    3    0    0  0.53823844474E+02 -0.76127385701E+01 -0.26760584590E+03  0.27307114234E+03  0.00000000000E+00 0. -1.
          2    1    6    6  502    0 -0.19496987788E+02  0.41131866864E+02 -0.43376305294E+02  0.62876600302E+02  0.00000000000E+00 0. -1.
          3    1    5    5  503    0  0.81586724966E+02 -0.16304801965E+03 -0.71484948081E+03  0.73773357699E+03  0.00000000000E+00 0. -1.
         -4    1    5    5    0  503  0.60646463673E+02 -0.14908274243E+03 -0.38598312536E+03  0.41819448910E+03  0.00000000000E+00 0.  1.
         -1    1    6    6    0  502 -0.33662370416E+03  0.20652630960E+03 -0.29507957175E+03  0.49299146891E+03  0.00000000000E+00 0.  1.
<mgrwt>
<rscale>  0 0.11924150E+04</rscale>
<asrwt>0</asrwt>
<pdfrwt beam="1">  1        2 0.34570259E+00 0.11924150E+04</pdfrwt>
<pdfrwt beam="2">  1       -2 0.24336916E-01 0.11924150E+04</pdfrwt>
<totfact> 0.72489020E+01</totfact>
</mgrwt>
</event>
<event>
12    1  0.1472088E-007  0.1875148E+04  0.7818608E-02  0.8667326E-01
         -2   -1    0    0    0  501 -0.00000000000E+00  0.00000000000E+00  0.88377752807E+03  0.88377752807E+03  0.00000000000E+00 0.  1.
          2   -1    0    0  501    0  0.00000000000E+00 -0.00000000000E+00 -0.99464545866E+03  0.99464545866E+03  0.00000000000E+00 0. -1.
         23    2    1    2    0    0 -0.31228539960E+03  0.64143681679E+03  0.65278363291E+01  0.71953258718E+03  0.93387208084E+02 0.  0.
        254    2    1    2    0    0  0.31228539960E+03 -0.64143681679E+03 -0.11739576692E+03  0.11588903996E+04  0.90569411577E+03 0.  0.
        -24    2    4    4    0    0  0.48024605493E+03 -0.45389982226E+03 -0.39688924206E+03  0.77421386244E+03  0.72282172135E+02 0.  0.
         24    2    4    4    0    0 -0.16796065533E+03 -0.18753699453E+03  0.27949347514E+03  0.38467653711E+03  0.80489312976E+02 0.  0.
         11    1    3    3    0    0 -0.30421970766E+03  0.58019674554E+03 -0.11395519337E+02  0.65521580561E+03  0.00000000000E+00 0.  1.
        -11    1    3    3    0    0 -0.80656919395E+01  0.61240071249E+02  0.17923355666E+02  0.64316781569E+02  0.00000000000E+00 0. -1.
          2    1    6    6  502    0 -0.63547828218E+02 -0.11705918415E+03  0.10575670778E+03  0.17007545474E+03  0.00000000000E+00 0. -1.
          3    1    5    5  503    0  0.94045880865E+02 -0.52432455862E+02 -0.64771008680E+02  0.12565458090E+03  0.00000000000E+00 0. -1.
         -4    1    5    5    0  503  0.38620017406E+03 -0.40146736640E+03 -0.33211823338E+03  0.64855928154E+03  0.00000000000E+00 0.  1.
         -1    1    6    6    0  502 -0.10441282711E+03 -0.70477810374E+02  0.17373676736E+03  0.21460108237E+03  0.00000000000E+00 0.  1.
<mgrwt>
<rscale>  0 0.18751483E+04</rscale>
<asrwt>0</asrwt>
<pdfrwt beam="1">  1        2 0.15302238E+00 0.18751483E+04</pdfrwt>
<pdfrwt beam="2">  1       -2 0.13596577E+00 0.18751483E+04</pdfrwt>
<totfact> 0.92293799E+00</totfact>
</mgrwt>
</event>
<event>
12    1  0.1472088E-007  0.1419390E+04  0.7818608E-02  0.8939902E-01
         -1   -1    0    0    0  501 -0.00000000000E+00  0.00000000000E+00  0.32599413839E+03  0.32599413839E+03  0.00000000000E+00 0.  1.
          1   -1    0    0  501    0  0.00000000000E+00 -0.00000000000E+00 -0.15450184040E+04  0.15450184040E+04  0.00000000000E+00 0. -1.
         23    2    1    2    0    0  0.40860197492E+03 -0.10224638069E+02 -0.40065649184E+03  0.57955656253E+03  0.91104706714E+02 0.  0.
        254    2    1    2    0    0 -0.40860197492E+03  0.10224638069E+02 -0.81836777381E+03  0.12914559799E+04  0.91163184327E+03 0.  0.
        -24    2    4    4    0    0 -0.63748114514E+03  0.10545434316E+03 -0.31200562924E+03  0.72205021745E+03  0.80660863763E+02 0.  0.
         24    2    4    4    0    0  0.22887917022E+03 -0.95229705089E+02 -0.50636214457E+03  0.56940576244E+03  0.79786775584E+02 0.  0.
         13    1    3    3    0    0  0.42884617342E+02 -0.29684977872E+02 -0.42164499406E+02  0.67068124516E+02  0.00000000000E+00 0. -1.
        -13    1    3    3    0    0  0.36571735758E+03  0.19460339803E+02 -0.35849199243E+03  0.51248843801E+03  0.00000000000E+00 0.  1.
          4    1    6    6  502    0  0.19779239300E+02 -0.35030891551E+02 -0.11186335981E+03  0.11887721791E+03  0.00000000000E+00 0. -1.
          3    1    5    5  503    0 -0.24490739606E+03  0.43003664946E+02 -0.77162474690E+02  0.26035167629E+03  0.00000000000E+00 0. -1.
         -4    1    5    5    0  503 -0.39257374908E+03  0.62450678212E+02 -0.23484315455E+03  0.46169854116E+03  0.00000000000E+00 0.  1.
         -3    1    6    6    0  502  0.20909993092E+03 -0.60198813538E+02 -0.39449878477E+03  0.45052854454E+03  0.00000000000E+00 0.  1.
<mgrwt>
<rscale>  0 0.14193899E+04</rscale>
<asrwt>0</asrwt>
<pdfrwt beam="1">  1        1 0.23769514E+00 0.14193899E+04</pdfrwt>
<pdfrwt beam="2">  1       -1 0.50152945E-01 0.14193899E+04</pdfrwt>
<totfact> 0.23654269E+01</totfact>
</mgrwt>
</event>
<event>
12    1  0.1472088E-007  0.1975401E+04  0.7818608E-02  0.8618208E-01
         -1   -1    0    0    0  501 -0.00000000000E+00  0.00000000000E+00  0.19366999071E+04  0.19366999071E+04  0.00000000000E+00 0.  1.
          1   -1    0    0  501    0  0.00000000000E+00 -0.00000000000E+00 -0.50371910308E+03  0.50371910308E+03  0.00000000000E+00 0. -1.
         23    2    1    2    0    0 -0.35655036859E+03  0.24902819114E+03  0.13777680106E+04  0.14470535631E+04  0.81093268302E+02 0.  0.
        254    2    1    2    0    0  0.35655036859E+03 -0.24902819114E+03  0.55212793435E+02  0.99336544707E+03  0.89139399457E+03 0.  0.
        -24    2    4    4    0    0 -0.27088893754E+03  0.21442049725E+02  0.10865034389E+03  0.30352059133E+03  0.80493938623E+02 0.  0.
         24    2    4    4    0    0  0.62743930614E+03 -0.27047024087E+03 -0.53437550457E+02  0.68984485574E+03  0.78715431217E+02 0.  0.
         11    1    3    3    0    0 -0.88416030185E+02  0.22395638045E+02  0.29748697627E+03  0.31115504181E+03  0.00000000000E+00 0. -1.
        -11    1    3    3    0    0 -0.26813433841E+03  0.22663255310E+03  0.10802810343E+04  0.11358985213E+04  0.00000000000E+00 0.  1.
          2    1    6    6  502    0  0.78515373518E+02 -0.42374147580E+02 -0.32799668839E+02  0.95058142933E+02  0.00000000000E+00 0. -1.
          3    1    5    5  503    0 -0.14239159470E+03 -0.24981466345E+01  0.96966933692E+02  0.17229101313E+03  0.00000000000E+00 0. -1.
         -4    1    5    5    0  503 -0.12849734285E+03  0.23940196359E+02  0.11683410201E+02  0.13122957820E+03  0.00000000000E+00 0.  1.
         -1    1    6    6    0  502  0.54892393262E+03 -0.22809609328E+03 -0.20637881618E+02  0.59478671281E+03  0.00000000000E+00 0.  1.
<mgrwt>
<rscale>  0 0.19754015E+04</rscale>
<asrwt>0</asrwt>
<pdfrwt beam="1">  1        1 0.77495248E-01 0.19754015E+04</pdfrwt>
<pdfrwt beam="2">  1       -1 0.29795383E+00 0.19754015E+04</pdfrwt>
<totfact> 0.13895640E+00</totfact>
</mgrwt>
</event>
<event>
12    1  0.1472088E-007  0.2253819E+04  0.7818608E-02  0.8496356E-01
         -2   -1    0    0    0  501 -0.00000000000E+00  0.00000000000E+00  0.34555823174E+03  0.34555823174E+03  0.00000000000E+00 0.  1.
          2   -1    0    0  501    0  0.00000000000E+00 -0.00000000000E+00 -0.36749948935E+04  0.36749948935E+04  0.00000000000E+00 0. -1.
         23    2    1    2    0    0  0.66501274103E+03  0.21265727323E+03 -0.27832272692E+03  0.75701617071E+03  0.90248993389E+02 0.  0.
        254    2    1    2    0    0 -0.66501274103E+03 -0.21265727323E+03 -0.30511139349E+04  0.32635369546E+04  0.92407367055E+03 0.  0.
        -24    2    4    4    0    0 -0.57330015611E+03  0.26843513762E+03 -0.20358475590E+04  0.21335007185E+04  0.80122033590E+02 0.  0.
         24    2    4    4    0    0 -0.91712584917E+02 -0.48109241085E+03 -0.10152663759E+04  0.11300362361E+04  0.79718095864E+02 0.  0.
         13    1    3    3    0    0  0.10268959090E+03  0.68658006198E+02 -0.48955923670E+02  0.13287496512E+03  0.00000000000E+00 0. -1.
        -13    1    3    3    0    0  0.56232315013E+03  0.14399926703E+03 -0.22936680325E+03  0.62414120559E+03  0.00000000000E+00 0.  1.
          4    1    6    6  502    0 -0.26283479464E+02 -0.91627736584E+02 -0.13523334983E+03  0.16545247750E+03  0.00000000000E+00 0. -1.
          3    1    5    5  503    0 -0.18238297556E+03  0.11848400297E+03 -0.61979360315E+03  0.65684558250E+03  0.00000000000E+00 0. -1.
         -4    1    5    5    0  503 -0.39091718055E+03  0.14995113465E+03 -0.14160539558E+04  0.14766551360E+04  0.00000000000E+00 0.  1.
         -3    1    6    6    0  502 -0.65429105453E+02 -0.38946467427E+03 -0.88003302609E+03  0.96458375859E+03  0.00000000000E+00 0.  1.
<mgrwt>
<rscale>  0 0.22538187E+04</rscale>
<asrwt>0</asrwt>
<pdfrwt beam="1">  1        2 0.56538381E+00 0.22538187E+04</pdfrwt>
<pdfrwt beam="2">  1       -2 0.53162806E-01 0.22538187E+04</pdfrwt>
<totfact> 0.18563627E+00</totfact>
</mgrwt>
</event>
<event>
12    1  0.1510084E-007  0.2008747E+04  0.7818608E-02  0.8602542E-01
         -2   -1    0    0    0  501 -0.00000000000E+00  0.00000000000E+00  0.11758880426E+04  0.11758880426E+04  0.00000000000E+00 0. -1.
          2   -1    0    0  501    0  0.00000000000E+00 -0.00000000000E+00 -0.85787564504E+03  0.85787564504E+03  0.00000000000E+00 0.  1.
         23    2    1    2    0    0  0.10171426216E+03  0.78935074425E+03  0.39984380869E+02  0.80197865951E+03  0.90280845222E+02 0.  0.
        254    2    1    2    0    0 -0.10171426216E+03 -0.78935074425E+03  0.27802801675E+03  0.12317850282E+04  0.89809486635E+03 0.  0.
        -24    2    4    4    0    0  0.20879757743E+03  0.33561395576E+02 -0.12827629213E+03  0.25961644429E+03  0.78886598421E+02 0.  0.
         24    2    4    4    0    0 -0.31051183959E+03 -0.82291213983E+03  0.40630430888E+03  0.97216858388E+03  0.80165900966E+02 0.  0.
         13    1    3    3    0    0  0.33698163900E+02  0.53248124517E+03  0.19610615457E+01  0.53355008057E+03  0.00000000000E+00 0.  1.
        -13    1    3    3    0    0  0.68016098257E+02  0.25686949908E+03  0.38023319323E+02  0.26842857894E+03  0.00000000000E+00 0. -1.
          4    1    6    6  502    0 -0.27288999392E+03 -0.73339153429E+03  0.38771207716E+03  0.87329991762E+03  0.00000000000E+00 0. -1.
          3    1    5    5  503    0  0.21016965934E+03  0.39863037125E+02 -0.13275708980E+03  0.25176336574E+03  0.00000000000E+00 0. -1.
         -4    1    5    5    0  503 -0.13720819150E+01 -0.63016415492E+01  0.44807976665E+01  0.78530785508E+01  0.00000000000E+00 0.  1.
         -3    1    6    6    0  502 -0.37621845664E+02 -0.89520605542E+02  0.18592231717E+02  0.98868666260E+02  0.00000000000E+00 0.  1.
<mgrwt>
<rscale>  0 0.20087466E+04</rscale>
<asrwt>0</asrwt>
<pdfrwt beam="1">  1        2 0.13198087E+00 0.20087466E+04</pdfrwt>
<pdfrwt beam="2">  1       -2 0.18090585E+00 0.20087466E+04</pdfrwt>
<totfact> 0.51982975E+00</totfact>
</mgrwt>
</event>
<event>
12    1  0.1472088E-007  0.1417734E+04  0.7818608E-02  0.8941081E-01
          2   -1    0    0  501    0  0.00000000000E+00  0.00000000000E+00  0.26490154428E+04  0.26490154428E+04  0.00000000000E+00 0. -1.
         -2   -1    0    0    0  501 -0.00000000000E+00 -0.00000000000E+00 -0.18969017062E+03  0.18969017062E+03  0.00000000000E+00 0.  1.
         23    2    1    2    0    0 -0.27267728585E+03  0.13224275141E+03  0.12628764497E+04  0.13022626227E+04  0.95864298503E+02 0.  0.
        254    2    1    2    0    0  0.27267728585E+03 -0.13224275141E+03  0.11964488225E+04  0.15364429907E+04  0.91505531607E+03 0.  0.
        -24    2    4    4    0    0  0.40241092033E+03 -0.39025058236E+03  0.42172470668E+03  0.70576528210E+03  0.77606954416E+02 0.  0.
         24    2    4    4    0    0 -0.12973363448E+03  0.25800783095E+03  0.77472411581E+03  0.83067770864E+03  0.80181938556E+02 0.  0.
         11    1    3    3    0    0 -0.17588391448E+03  0.59190760714E+02  0.58838734692E+03  0.61695896747E+03  0.00000000000E+00 0. -1.
        -11    1    3    3    0    0 -0.96793371367E+02  0.73051990695E+02  0.67448910282E+03  0.68530365525E+03  0.00000000000E+00 0.  1.
          2    1    6    6  502    0 -0.98869160701E+02  0.15775703401E+03  0.58468743251E+03  0.61361371111E+03  0.00000000000E+00 0. -1.
          3    1    5    5  503    0  0.40269155508E+03 -0.37382448400E+03  0.41049692275E+03  0.68586657373E+03  0.00000000000E+00 0. -1.
         -4    1    5    5    0  503 -0.28063475315E+00 -0.16426098359E+02  0.11227783928E+02  0.19898708377E+02  0.00000000000E+00 0.  1.
         -1    1    6    6    0  502 -0.30864473776E+02  0.10025079693E+03  0.19003668330E+03  0.21706399754E+03  0.00000000000E+00 0.  1.
<mgrwt>
<rscale>  0 0.14177337E+04</rscale>
<asrwt>0</asrwt>
<pdfrwt beam="1">  1        2 0.40754081E+00 0.14177337E+04</pdfrwt>
<pdfrwt beam="2">  1       -2 0.29183105E-01 0.14177337E+04</pdfrwt>
<totfact> 0.30025406E+01</totfact>
</mgrwt>
</event>
<event>
12    1  0.1472088E-007  0.2425109E+04  0.7818608E-02  0.8430163E-01
         -2   -1    0    0    0  501 -0.00000000000E+00  0.00000000000E+00  0.41936744685E+03  0.41936744685E+03  0.00000000000E+00 0.  1.
          2   -1    0    0  501    0  0.00000000000E+00 -0.00000000000E+00 -0.35059664978E+04  0.35059664978E+04  0.00000000000E+00 0. -1.
         23    2    1    2    0    0 -0.35222829305E+03 -0.89702409253E+03 -0.19813828902E+04  0.22051757994E+04  0.90582312511E+02 0.  0.
        254    2    1    2    0    0  0.35222829305E+03  0.89702409253E+03 -0.11052161607E+04  0.17201581453E+04  0.89929099288E+03 0.  0.
        -24    2    4    4    0    0  0.51491305766E+03  0.48779987036E+03 -0.10487421100E+04  0.12688007061E+04  0.83132712808E+02 0.  0.
         24    2    4    4    0    0 -0.16268476461E+03  0.40922422217E+03 -0.56474050662E+02  0.45135743918E+03  0.81261447544E+02 0.  0.
         11    1    3    3    0    0 -0.20223508712E+02 -0.20166397700E+02 -0.39033605673E+02  0.48366272056E+02  0.00000000000E+00 0.  1.
        -11    1    3    3    0    0 -0.33200478434E+03 -0.87685769483E+03 -0.19423492846E+04  0.21568095273E+04  0.00000000000E+00 0. -1.
          2    1    6    6  502    0 -0.65251484919E+02  0.25826681592E+03 -0.14083765987E+02  0.26675430072E+03  0.00000000000E+00 0. -1.
          1    1    5    5  503    0  0.35612615683E+03  0.31366996789E+03 -0.76134109795E+03  0.89713708862E+03  0.00000000000E+00 0. -1.
         -2    1    5    5    0  503  0.15878690083E+03  0.17412990247E+03 -0.28740101210E+03  0.37166361749E+03  0.00000000000E+00 0.  1.
         -1    1    6    6    0  502 -0.97433279692E+02  0.15095740625E+03 -0.42390284675E+02  0.18460313846E+03  0.00000000000E+00 0.  1.
<mgrwt>
<rscale>  0 0.24251088E+04</rscale>
<asrwt>0</asrwt>
<pdfrwt beam="1">  1        2 0.53937944E+00 0.24251088E+04</pdfrwt>
<pdfrwt beam="2">  1       -2 0.64518072E-01 0.24251088E+04</pdfrwt>
<totfact> 0.16058132E+00</totfact>
</mgrwt>
</event>
<event>
12    1  0.1472088E-007  0.1734774E+04  0.7818608E-02  0.8741776E-01
         -2   -1    0    0    0  501 -0.00000000000E+00  0.00000000000E+00  0.16952614115E+04  0.16952614115E+04  0.00000000000E+00 0.  1.
          2   -1    0    0  501    0  0.00000000000E+00 -0.00000000000E+00 -0.44380174101E+03  0.44380174101E+03  0.00000000000E+00 0. -1.
         23    2    1    2    0    0 -0.31021552186E+03  0.28887313792E+03  0.10367349578E+04  0.11239976463E+04  0.94180552017E+02 0.  0.
        254    2    1    2    0    0  0.31021552186E+03 -0.28887313792E+03  0.21472471270E+03  0.10150655062E+04  0.89697821592E+03 0.  0.
        -24    2    4    4    0    0  0.68402421679E+02  0.17288315469E+03  0.40628060097E+03  0.45402109651E+03  0.80645848504E+02 0.  0.
         24    2    4    4    0    0  0.24181310018E+03 -0.46175629262E+03 -0.19155588827E+03  0.56104440971E+03  0.79904456325E+02 0.  0.
         13    1    3    3    0    0 -0.20888253422E+03  0.20656954694E+03  0.81938052812E+03  0.87045237703E+03  0.00000000000E+00 0.  1.
        -13    1    3    3    0    0 -0.10133298764E+03  0.82303590986E+02  0.21735442972E+03  0.25354526932E+03  0.00000000000E+00 0. -1.
          2    1    6    6  502    0  0.43868427788E+02 -0.63094792992E+02 -0.58197049481E+02  0.96396516678E+02  0.00000000000E+00 0. -1.
          3    1    5    5  503    0  0.43700420281E+02  0.32472151066E+02  0.69341396538E+02  0.88161196688E+02  0.00000000000E+00 0. -1.
         -4    1    5    5    0  503  0.24702001398E+02  0.14041100363E+03  0.33693920443E+03  0.36585989982E+03  0.00000000000E+00 0.  1.
         -1    1    6    6    0  502  0.19794467240E+03 -0.39866149963E+03 -0.13335883879E+03  0.46464789303E+03  0.00000000000E+00 0.  1.
<mgrwt>
<rscale>  0 0.17347737E+04</rscale>
<asrwt>0</asrwt>
<pdfrwt beam="1">  1        2 0.68277192E-01 0.17347737E+04</pdfrwt>
<pdfrwt beam="2">  1       -2 0.26080945E+00 0.17347737E+04</pdfrwt>
<totfact> 0.37001444E+00</totfact>
</mgrwt>
</event>
<event>
12    1  0.1472088E-007  0.1949162E+04  0.7818608E-02  0.8630765E-01
         -2   -1    0    0    0  501 -0.00000000000E+00  0.00000000000E+00  0.12367438059E+04  0.12367438059E+04  0.00000000000E+00 0.  1.
          2   -1    0    0  501    0  0.00000000000E+00 -0.00000000000E+00 -0.76799064828E+03  0.76799064828E+03  0.00000000000E+00 0. -1.
         23    2    1    2    0    0  0.75027005915E+03 -0.37737333752E+02  0.30757883223E+03  0.81702518265E+03  0.92715387316E+02 0.  0.
        254    2    1    2    0    0 -0.75027005915E+03  0.37737333752E+02  0.16117432537E+03  0.11877092715E+04  0.90573002736E+03 0.  0.
        -24    2    4    4    0    0 -0.95283015938E+02 -0.33867064169E+03 -0.11621472946E+03  0.37903852303E+03  0.79922974947E+02 0.  0.
         24    2    4    4    0    0 -0.65498704321E+03  0.37640797544E+03  0.27738905483E+03  0.80867074848E+03  0.79452507548E+02 0.  0.
         11    1    3    3    0    0  0.37072926621E+03 -0.23112980289E+02  0.20190454574E+03  0.42277635255E+03  0.00000000000E+00 0. -1.
        -11    1    3    3    0    0  0.37954079293E+03 -0.14624353462E+02  0.10567428650E+03  0.39424883011E+03  0.00000000000E+00 0.  1.
          2    1    6    6  502    0 -0.41922330449E+03  0.24663972728E+03  0.13797316458E+03  0.50558473893E+03  0.00000000000E+00 0. -1.
          3    1    5    5  503    0 -0.10500957700E+03 -0.26566175678E+03 -0.78303299477E+02  0.29620024812E+03  0.00000000000E+00 0. -1.
         -4    1    5    5    0  503  0.97265610612E+01 -0.73008884915E+02 -0.37911429986E+02  0.82838274911E+02  0.00000000000E+00 0.  1.
         -1    1    6    6    0  502 -0.23576373872E+03  0.12976824817E+03  0.13941589025E+03  0.30308600954E+03  0.00000000000E+00 0.  1.
<mgrwt>
<rscale>  0 0.19491615E+04</rscale>
<asrwt>0</asrwt>
<pdfrwt beam="1">  1        2 0.11815241E+00 0.19491615E+04</pdfrwt>
<pdfrwt beam="2">  1       -2 0.19026828E+00 0.19491615E+04</pdfrwt>
<totfact> 0.52323362E+00</totfact>
</mgrwt>
</event>
<event>
12    1  0.1472088E-007  0.2345647E+04  0.7818608E-02  0.8460137E-01
          2   -1    0    0  501    0  0.00000000000E+00  0.00000000000E+00  0.25358062864E+04  0.25358062864E+04  0.00000000000E+00 0.  1.
         -2   -1    0    0    0  501 -0.00000000000E+00 -0.00000000000E+00 -0.54243706402E+03  0.54243706402E+03  0.00000000000E+00 0. -1.
         23    2    1    2    0    0 -0.42830761264E+03 -0.76406063267E+03  0.14740191989E+04  0.17169132259E+04  0.88444134833E+02 0.  0.
        254    2    1    2    0    0  0.42830761264E+03  0.76406063267E+03  0.51935002347E+03  0.13613301245E+04  0.90347064129E+03 0.  0.
        -24    2    4    4    0    0  0.66292266863E+03  0.31501087621E+03  0.37931019880E+03  0.82994630749E+03  0.78970435500E+02 0.  0.
         24    2    4    4    0    0 -0.23461505600E+03  0.44904975645E+03  0.14003982467E+03  0.53138381705E+03  0.77895444395E+02 0.  0.
         11    1    3    3    0    0 -0.16802738362E+03 -0.28713782075E+03  0.64441750038E+03  0.72522771910E+03  0.00000000000E+00 0.  1.
        -11    1    3    3    0    0 -0.26028022902E+03 -0.47692281192E+03  0.82960169854E+03  0.99168550679E+03  0.00000000000E+00 0. -1.
          2    1    6    6  502    0 -0.21594093538E+03  0.37200063452E+03  0.13920893285E+03  0.45209964238E+03  0.00000000000E+00 0. -1.
          3    1    5    5  503    0  0.65757518295E+03  0.31712899637E+03  0.38158450385E+03  0.82376128529E+03  0.00000000000E+00 0. -1.
         -4    1    5    5    0  503  0.53474856889E+01 -0.21181201559E+01 -0.22743050487E+01  0.61850222022E+01  0.00000000000E+00 0.  1.
         -1    1    6    6    0  502 -0.18674120615E+02  0.77049121932E+02  0.83089181815E+00  0.79284174666E+02  0.00000000000E+00 0.  1.
<mgrwt>
<rscale>  0 0.23456473E+04</rscale>
<asrwt>0</asrwt>
<pdfrwt beam="1">  1        2 0.39012404E+00 0.23456473E+04</pdfrwt>
<pdfrwt beam="2">  1       -2 0.83451857E-01 0.23456473E+04</pdfrwt>
<totfact> 0.37652927E+00</totfact>
</mgrwt>
</event>
<event>
12    1  0.1472088E-007  0.1560183E+04  0.7818608E-02  0.8845390E-01
         -2   -1    0    0    0  501 -0.00000000000E+00  0.00000000000E+00  0.12241404024E+04  0.12241404024E+04  0.00000000000E+00 0.  1.
          2   -1    0    0  501    0  0.00000000000E+00 -0.00000000000E+00 -0.49711825750E+03  0.49711825750E+03  0.00000000000E+00 0. -1.
         23    2    1    2    0    0  0.35246999651E+02 -0.47496255709E+03  0.22041254825E+02  0.48548642510E+03  0.91539447366E+02 0.  0.
        254    2    1    2    0    0 -0.35246999651E+02  0.47496255709E+03  0.70498089004E+03  0.12357722348E+04  0.89627182221E+03 0.  0.
        -24    2    4    4    0    0 -0.61657928841E+02  0.42688274386E+03 -0.79488811824E+02  0.44530066951E+03  0.77094992514E+02 0.  0.
         24    2    4    4    0    0  0.26410929189E+02  0.48079813226E+02  0.78446970186E+03  0.79047156526E+03  0.80270646680E+02 0.  0.
         13    1    3    3    0    0 -0.14516601384E+02 -0.34097410708E+03  0.30298405716E+01  0.34129643032E+03  0.00000000000E+00 0. -1.
        -13    1    3    3    0    0  0.49763601035E+02 -0.13398845001E+03  0.19011414253E+02  0.14418999478E+03  0.00000000000E+00 0.  1.
          4    1    6    6  502    0 -0.10933555986E+02 -0.76608284664E+01  0.27867594114E+02  0.30900384156E+02  0.00000000000E+00 0. -1.
          3    1    5    5  503    0 -0.50144276634E+01  0.49323732305E+02 -0.35528309399E+02  0.60993735925E+02  0.00000000000E+00 0. -1.
         -4    1    5    5    0  503 -0.56643501177E+02  0.37755901155E+03 -0.43960502425E+02  0.38430693359E+03  0.00000000000E+00 0.  1.
         -3    1    6    6    0  502  0.37344485175E+02  0.55740641693E+02  0.75660210775E+03  0.75957118110E+03  0.00000000000E+00 0.  1.
<mgrwt>
<rscale>  0 0.15601827E+04</rscale>
<asrwt>0</asrwt>
<pdfrwt beam="1">  1        2 0.76479732E-01 0.15601827E+04</pdfrwt>
<pdfrwt beam="2">  1       -2 0.18832929E+00 0.15601827E+04</pdfrwt>
<totfact> 0.94749896E+00</totfact>
</mgrwt>
</event>
<event>
12    1  0.1472088E-007  0.2310479E+04  0.7818608E-02  0.8473801E-01
         -2   -1    0    0    0  501 -0.00000000000E+00  0.00000000000E+00  0.11897945132E+04  0.11897945132E+04  0.00000000000E+00 0.  1.
          2   -1    0    0  501    0  0.00000000000E+00 -0.00000000000E+00 -0.11216883481E+04  0.11216883481E+04  0.00000000000E+00 0. -1.
         23    2    1    2    0    0 -0.63579762650E+03 -0.36170673656E+03 -0.61617155243E+03  0.96074007137E+03  0.91014930477E+02 0.  0.
        254    2    1    2    0    0  0.63579762650E+03  0.36170673656E+03  0.68427771754E+03  0.13507427899E+04  0.90620069778E+03 0.  0.
        -24    2    4    4    0    0  0.37957754964E+03  0.62246564259E+03  0.64129396557E+03  0.97423621988E+03  0.79596918679E+02 0.  0.
         24    2    4    4    0    0  0.25622007686E+03 -0.26075890603E+03  0.42983751967E+02  0.37650657003E+03  0.79155918836E+02 0.  0.
         11    1    3    3    0    0 -0.43015099760E+03 -0.27086316546E+03 -0.37992234484E+03  0.63461620153E+03  0.00000000000E+00 0. -1.
        -11    1    3    3    0    0 -0.20564662891E+03 -0.90843571097E+02 -0.23624920759E+03  0.32612386984E+03  0.00000000000E+00 0.  1.
          2    1    6    6  502    0  0.22458487931E+03 -0.25811635430E+03  0.42349684544E+02  0.34475486385E+03  0.00000000000E+00 0. -1.
          3    1    5    5  503    0  0.26960483346E+03  0.37590368424E+03  0.42719085184E+03  0.62966846034E+03  0.00000000000E+00 0. -1.
         -4    1    5    5    0  503  0.10997271618E+03  0.24656195835E+03  0.21410311373E+03  0.34456775955E+03  0.00000000000E+00 0.  1.
         -3    1    6    6    0  502  0.31635197551E+02 -0.26425517276E+01  0.63406742300E+00  0.31751706179E+02  0.00000000000E+00 0.  1.
<mgrwt>
<rscale>  0 0.23104793E+04</rscale>
<asrwt>0</asrwt>
<pdfrwt beam="1">  1        2 0.17256744E+00 0.23104793E+04</pdfrwt>
<pdfrwt beam="2">  1       -2 0.18304531E+00 0.23104793E+04</pdfrwt>
<totfact> 0.33063601E+00</totfact>
</mgrwt>
</event>
<event>
12    1  0.1472088E-007  0.2130188E+04  0.7818608E-02  0.8548061E-01
         -1   -1    0    0    0  501 -0.00000000000E+00  0.00000000000E+00  0.79465778777E+03  0.79465778777E+03  0.00000000000E+00 0.  1.
          1   -1    0    0  501    0  0.00000000000E+00 -0.00000000000E+00 -0.14275644651E+04  0.14275644651E+04  0.00000000000E+00 0. -1.
         23    2    1    2    0    0 -0.12466481586E+03 -0.42069953746E+03 -0.10400322445E+04  0.11321961881E+04  0.87588364796E+02 0.  0.
        254    2    1    2    0    0  0.12466481586E+03  0.42069953746E+03  0.40712556719E+03  0.10900260647E+04  0.91097539881E+03 0.  0.
        -24    2    4    4    0    0 -0.35947424952E+03  0.34582468310E+03  0.27462204219E+03  0.57536652398E+03  0.82540434711E+02 0.  0.
         24    2    4    4    0    0  0.48413906537E+03  0.74874854363E+02  0.13250352500E+03  0.51465954076E+03  0.85559221118E+02 0.  0.
         13    1    3    3    0    0 -0.13697004793E+03 -0.38440648941E+03 -0.92707349466E+03  0.10129138204E+04  0.00000000000E+00 0. -1.
        -13    1    3    3    0    0  0.12305232076E+02 -0.36293048051E+02 -0.11295874983E+03  0.11928236767E+03  0.00000000000E+00 0.  1.
          2    1    6    6  502    0  0.43433154191E+03  0.89607763151E+02  0.13203494246E+03  0.46271661473E+03  0.00000000000E+00 0. -1.
          3    1    5    5  503    0 -0.10244933277E+03  0.60030084050E+02  0.41278295244E+02  0.12571147296E+03  0.00000000000E+00 0. -1.
         -4    1    5    5    0  503 -0.25702491675E+03  0.28579459905E+03  0.23334374695E+03  0.44965505102E+03  0.00000000000E+00 0.  1.
         -1    1    6    6    0  502  0.49807523463E+02 -0.14732908788E+02  0.46858254062E+00  0.51942926029E+02  0.00000000000E+00 0.  1.
<mgrwt>
<rscale>  0 0.21301880E+04</rscale>
<asrwt>0</asrwt>
<pdfrwt beam="1">  1        1 0.21962530E+00 0.21301880E+04</pdfrwt>
<pdfrwt beam="2">  1       -1 0.12225505E+00 0.21301880E+04</pdfrwt>
<totfact> 0.39858649E+00</totfact>
</mgrwt>
</event>
<event>
12    1  0.1472088E-007  0.1911303E+04  0.7818608E-02  0.8649250E-01
         -2   -1    0    0    0  501 -0.00000000000E+00  0.00000000000E+00  0.91571485515E+03  0.91571485515E+03  0.00000000000E+00 0. -1.
          2   -1    0    0  501    0  0.00000000000E+00 -0.00000000000E+00 -0.99733003582E+03  0.99733003582E+03  0.00000000000E+00 0.  1.
         23    2    1    2    0    0 -0.38291808981E+02  0.43237720441E+03 -0.62211639536E+03  0.76411179714E+03  0.91769927658E+02 0.  0.
        254    2    1    2    0    0  0.38291808981E+02 -0.43237720441E+03  0.54050121469E+03  0.11489330938E+04  0.91623653140E+03 0.  0.
        -24    2    4    4    0    0  0.37724517188E+03 -0.52640766665E+03  0.33307166999E+03  0.73285019640E+03  0.81937304016E+02 0.  0.
         24    2    4    4    0    0 -0.33895336290E+03  0.94030462242E+02  0.20742954470E+03  0.41608289743E+03  0.79792552702E+02 0.  0.
         13    1    3    3    0    0  0.19136851779E+02  0.70904626627E+02 -0.14739123144E+03  0.16467501413E+03  0.00000000000E+00 0. -1.
        -13    1    3    3    0    0 -0.57428660760E+02  0.36147257778E+03 -0.47472516392E+03  0.59943678301E+03  0.00000000000E+00 0.  1.
          2    1    6    6  502    0 -0.31209543853E+03  0.95638040710E+02  0.16477534666E+03  0.36565162716E+03  0.00000000000E+00 0. -1.
          1    1    5    5  503    0  0.35133966578E+03 -0.48864088972E+03  0.28319972397E+03  0.66514025853E+03  0.00000000000E+00 0. -1.
         -2    1    5    5    0  503  0.25905506097E+02 -0.37766776934E+02  0.49871946023E+02  0.67709937870E+02  0.00000000000E+00 0.  1.
         -1    1    6    6    0  502 -0.26857924376E+02 -0.16075784683E+01  0.42654198039E+02  0.50431270266E+02  0.00000000000E+00 0.  1.
<mgrwt>
<rscale>  0 0.19113031E+04</rscale>
<asrwt>0</asrwt>
<pdfrwt beam="1">  1        2 0.15343539E+00 0.19113031E+04</pdfrwt>
<pdfrwt beam="2">  1       -2 0.14087921E+00 0.19113031E+04</pdfrwt>
<totfact> 0.83608170E+00</totfact>
</mgrwt>
</event>
<event>
12    1  0.1472088E-007  0.1629336E+04  0.7818608E-02  0.8802726E-01
          2   -1    0    0  501    0  0.00000000000E+00  0.00000000000E+00  0.62365922482E+03  0.62365922482E+03  0.00000000000E+00 0. -1.
         -2   -1    0    0    0  501 -0.00000000000E+00 -0.00000000000E+00 -0.10641773404E+04  0.10641773404E+04  0.00000000000E+00 0.  1.
         23    2    1    2    0    0  0.33958740282E+03 -0.39747862723E+03  0.58643500940E+02  0.53375775105E+03  0.90274101219E+02 0.  0.
        254    2    1    2    0    0 -0.33958740282E+03  0.39747862723E+03 -0.49916161648E+03  0.11540788141E+04  0.89968145839E+03 0.  0.
        -24    2    4    4    0    0 -0.32700890353E+03  0.10384163394E+03 -0.70384561295E+03  0.78720766506E+03  0.81113211818E+02 0.  0.
         24    2    4    4    0    0 -0.12578499281E+02  0.29363699329E+03  0.20468399646E+03  0.36687114906E+03  0.79485842344E+02 0.  0.
         11    1    3    3    0    0  0.10397543278E+03 -0.82315136432E+02 -0.14888509113E+02  0.13344789250E+03  0.00000000000E+00 0. -1.
        -11    1    3    3    0    0  0.23561197003E+03 -0.31516349080E+03  0.73532010053E+02  0.40030985856E+03  0.00000000000E+00 0.  1.
          4    1    6    6  502    0 -0.56159910412E+01  0.49289631069E+02  0.25452983780E+01  0.49673792186E+02  0.00000000000E+00 0. -1.
          1    1    5    5  503    0 -0.55227718495E+02 -0.99459199808E+01 -0.14431564890E+03  0.15484194759E+03  0.00000000000E+00 0. -1.
         -2    1    5    5    0  503 -0.27178118504E+03  0.11378755392E+03 -0.55952996404E+03  0.63236571747E+03  0.00000000000E+00 0.  1.
         -3    1    6    6    0  502 -0.69625082400E+01  0.24434736222E+03  0.20213869809E+03  0.31719735688E+03  0.00000000000E+00 0.  1.
<mgrwt>
<rscale>  0 0.16293361E+04</rscale>
<asrwt>0</asrwt>
<pdfrwt beam="1">  1        2 0.95947574E-01 0.16293361E+04</pdfrwt>
<pdfrwt beam="2">  1       -2 0.16371959E+00 0.16293361E+04</pdfrwt>
<totfact> 0.10698906E+01</totfact>
</mgrwt>
</event>
<event>
12    1  0.1472088E-007  0.2122217E+04  0.7818608E-02  0.8551519E-01
          2   -1    0    0  501    0  0.00000000000E+00  0.00000000000E+00  0.23178146810E+04  0.23178146810E+04  0.00000000000E+00 0. -1.
         -2   -1    0    0    0  501 -0.00000000000E+00 -0.00000000000E+00 -0.48578149852E+03  0.48578149852E+03  0.00000000000E+00 0.  1.
         23    2    1    2    0    0  0.65537037432E+03  0.12382579166E+03  0.19876713860E+02  0.67382703634E+03  0.93833026938E+02 0.  0.
        254    2    1    2    0    0 -0.65537037432E+03 -0.12382579166E+03  0.18121564687E+04  0.21297691432E+04  0.89842216262E+03 0.  0.
        -24    2    4    4    0    0 -0.84596450491E+03  0.40674942356E+02  0.13428252360E+04  0.15896318600E+04  0.80246129781E+02 0.  0.
         24    2    4    4    0    0  0.19059413059E+03 -0.16450073401E+03  0.46933123262E+03  0.54013728319E+03  0.89943675045E+02 0.  0.
         13    1    3    3    0    0  0.50993960693E+03  0.61830479492E+02  0.35878289937E+02  0.51492588069E+03  0.00000000000E+00 0.  1.
        -13    1    3    3    0    0  0.14543076738E+03  0.61995312166E+02 -0.16001576077E+02  0.15890115566E+03  0.00000000000E+00 0. -1.
          2    1    6    6  502    0  0.18505763118E+03 -0.14733561725E+03  0.46481737034E+03  0.52154510710E+03  0.00000000000E+00 0. -1.
          3    1    5    5  503    0 -0.75295542750E+03  0.58355224245E+02  0.12145454369E+04  0.14301985269E+04  0.00000000000E+00 0. -1.
         -4    1    5    5    0  503 -0.93009077410E+02 -0.17680281889E+02  0.12827979912E+03  0.15943333312E+03  0.00000000000E+00 0.  1.
         -1    1    6    6    0  502  0.55364994107E+01 -0.17165116765E+02  0.45138622739E+01  0.18592176094E+02  0.00000000000E+00 0.  1.
<mgrwt>
<rscale>  0 0.21222172E+04</rscale>
<asrwt>0</asrwt>
<pdfrwt beam="1">  1        2 0.35658687E+00 0.21222172E+04</pdfrwt>
<pdfrwt beam="2">  1       -2 0.74735616E-01 0.21222172E+04</pdfrwt>
<totfact> 0.65571142E+00</totfact>
</mgrwt>
</event>
<event>
12    1  0.1472088E-007  0.2974769E+04  0.7818608E-02  0.8250973E-01
         -2   -1    0    0    0  501 -0.00000000000E+00  0.00000000000E+00  0.75141257012E+03  0.75141257012E+03  0.00000000000E+00 0.  1.
          2   -1    0    0  501    0  0.00000000000E+00 -0.00000000000E+00 -0.29442040863E+04  0.29442040863E+04  0.00000000000E+00 0. -1.
         23    2    1    2    0    0 -0.54426357652E+02  0.89147516103E+03 -0.22534887943E+04  0.24253824258E+04  0.81104712231E+02 0.  0.
        254    2    1    2    0    0  0.54426357652E+02 -0.89147516103E+03  0.60697278118E+02  0.12702342306E+04  0.90117736869E+03 0.  0.
        -24    2    4    4    0    0 -0.31077319649E+03 -0.17097234154E+03  0.24525678256E+03  0.43824081642E+03  0.78055125115E+02 0.  0.
         24    2    4    4    0    0  0.36519955414E+03 -0.72050281949E+03 -0.18455950444E+03  0.83199341417E+03  0.75205074971E+02 0.  0.
         13    1    3    3    0    0 -0.39411259564E+02  0.86313007560E+03 -0.21891220896E+04  0.23534660180E+04  0.00000000000E+00 0. -1.
        -13    1    3    3    0    0 -0.15015098088E+02  0.28345085424E+02 -0.64366704675E+02  0.71916407787E+02  0.00000000000E+00 0.  1.
          2    1    6    6  502    0  0.28567623350E+03 -0.62047911107E+03 -0.14593797043E+03  0.69850062911E+03  0.00000000000E+00 0. -1.
          3    1    5    5  503    0 -0.21257161997E+03 -0.10554285823E+03  0.20485130591E+03  0.31351243369E+03  0.00000000000E+00 0. -1.
         -4    1    5    5    0  503 -0.98201576517E+02 -0.65429483304E+02  0.40405476645E+02  0.12472838273E+03  0.00000000000E+00 0.  1.
         -1    1    6    6    0  502  0.79523320643E+02 -0.10002370842E+03 -0.38621534006E+02  0.13349278505E+03  0.00000000000E+00 0.  1.
<mgrwt>
<rscale>  0 0.29747685E+04</rscale>
<asrwt>0</asrwt>
<pdfrwt beam="1">  1        2 0.45295448E+00 0.29747685E+04</pdfrwt>
<pdfrwt beam="2">  1       -2 0.11560193E+00 0.29747685E+04</pdfrwt>
<totfact> 0.94156886E-01</totfact>
</mgrwt>
</event>
<event>
12    1  0.1472088E-007  0.1468139E+04  0.7818608E-02  0.8905921E-01
          1   -1    0    0  501    0  0.00000000000E+00  0.00000000000E+00  0.13953584886E+04  0.13953584886E+04  0.00000000000E+00 0. -1.
         -1   -1    0    0    0  501 -0.00000000000E+00 -0.00000000000E+00 -0.38617869379E+03  0.38617869379E+03  0.00000000000E+00 0.  1.
         23    2    1    2    0    0 -0.15784636720E+03  0.95796954805E+02 -0.17914877817E+03  0.27309782736E+03  0.91627541714E+02 0.  0.
        254    2    1    2    0    0  0.15784636720E+03 -0.95796954805E+02  0.11883285730E+04  0.15084393550E+04  0.91058879758E+03 0.  0.
        -24    2    4    4    0    0 -0.72652530849E+01  0.37904132021E+03  0.32824500069E+03  0.50886083506E+03  0.86426053109E+02 0.  0.
         24    2    4    4    0    0  0.16511162029E+03 -0.47483827501E+03  0.86008357230E+03  0.99957851998E+03  0.81732684407E+02 0.  0.
         13    1    3    3    0    0 -0.78001948736E+02  0.70329292172E+01 -0.11030291351E+03  0.13527933629E+03  0.00000000000E+00 0. -1.
        -13    1    3    3    0    0 -0.79844418466E+02  0.88764025588E+02 -0.68845864662E+02  0.13781849107E+03  0.00000000000E+00 0.  1.
          4    1    6    6  502    0  0.63845870335E+02 -0.10035808653E+03  0.24560141745E+03  0.27288843315E+03  0.00000000000E+00 0. -1.
          1    1    5    5  503    0 -0.18598110059E+02  0.17182764734E+02  0.33635828438E+02  0.42101140797E+02  0.00000000000E+00 0. -1.
         -2    1    5    5    0  503  0.11332856974E+02  0.36185855547E+03  0.29460917225E+03  0.46675969427E+03  0.00000000000E+00 0.  1.
         -3    1    6    6    0  502  0.10126574995E+03 -0.37448018848E+03  0.61448215484E+03  0.72669008683E+03  0.00000000000E+00 0.  1.
<mgrwt>
<rscale>  0 0.14681386E+04</rscale>
<asrwt>0</asrwt>
<pdfrwt beam="1">  1        1 0.21467054E+00 0.14681386E+04</pdfrwt>
<pdfrwt beam="2">  1       -1 0.59412107E-01 0.14681386E+04</pdfrwt>
<totfact> 0.21559480E+01</totfact>
</mgrwt>
</event>
<event>
12    1  0.1472088E-007  0.1825760E+04  0.7818608E-02  0.8692719E-01
          2   -1    0    0  501    0  0.00000000000E+00  0.00000000000E+00  0.47082716972E+03  0.47082716972E+03  0.00000000000E+00 0. -1.
         -2   -1    0    0    0  501 -0.00000000000E+00 -0.00000000000E+00 -0.17699706573E+04  0.17699706573E+04  0.00000000000E+00 0.  1.
         23    2    1    2    0    0  0.51254022095E+02 -0.40096066043E+03  0.20012340478E+03  0.46047042794E+03  0.92667210338E+02 0.  0.
        254    2    1    2    0    0 -0.51254022095E+02  0.40096066043E+03 -0.14992668924E+04  0.17803273991E+04  0.87084327372E+03 0.  0.
        -24    2    4    4    0    0  0.37574742057E+03  0.34999536199E+03 -0.75287681955E+03  0.91513034824E+03  0.83409659959E+02 0.  0.
         24    2    4    4    0    0 -0.42700144266E+03  0.50965298446E+02 -0.74639007287E+03  0.86519705089E+03  0.80870899036E+02 0.  0.
         11    1    3    3    0    0 -0.24155226660E+02 -0.15934494408E+03  0.88164283374E+02  0.18370418352E+03  0.00000000000E+00 0. -1.
        -11    1    3    3    0    0  0.75409248755E+02 -0.24161571635E+03  0.11195912141E+03  0.27676624442E+03  0.00000000000E+00 0.  1.
          4    1    6    6  502    0 -0.31458646015E+02 -0.17643064581E+02 -0.65315662539E+02  0.74612732893E+02  0.00000000000E+00 0. -1.
          3    1    5    5  503    0  0.89353838633E+01  0.84167930485E+01 -0.52266502271E+02  0.53688646376E+02  0.00000000000E+00 0. -1.
         -4    1    5    5    0  503  0.36681203670E+03  0.34157856894E+03 -0.70061031728E+03  0.86144170186E+03  0.00000000000E+00 0.  1.
         -3    1    6    6    0  502 -0.39554279665E+03  0.68608363027E+02 -0.68107441033E+03  0.79058431800E+03  0.00000000000E+00 0.  1.
<mgrwt>
<rscale>  0 0.18257604E+04</rscale>
<asrwt>0</asrwt>
<pdfrwt beam="1">  1        2 0.72434949E-01 0.18257604E+04</pdfrwt>
<pdfrwt beam="2">  1       -2 0.27230318E+00 0.18257604E+04</pdfrwt>
<totfact> 0.29203706E+00</totfact>
</mgrwt>
</event>
<event>
12    1  0.1472088E-007  0.1352590E+04  0.7818608E-02  0.8988870E-01
         -1   -1    0    0    0  501 -0.00000000000E+00  0.00000000000E+00  0.52886081206E+03  0.52886081206E+03  0.00000000000E+00 0.  1.
          1   -1    0    0  501    0  0.00000000000E+00 -0.00000000000E+00 -0.86483003192E+03  0.86483003192E+03  0.00000000000E+00 0. -1.
         23    2    1    2    0    0 -0.39482269393E+02  0.29005921333E+03  0.14283264529E+03  0.33833776016E+03  0.91531844488E+02 0.  0.
        254    2    1    2    0    0  0.39482269393E+02 -0.29005921333E+03 -0.47880186515E+03  0.10553530838E+04  0.89377050109E+03 0.  0.
        -24    2    4    4    0    0 -0.41534061233E+02 -0.49631385107E+03  0.19373426136E+02  0.50425979327E+03  0.76485897112E+02 0.  0.
         24    2    4    4    0    0  0.81016330626E+02  0.20625463774E+03 -0.49817529129E+03  0.55109329055E+03  0.80128475769E+02 0.  0.
         13    1    3    3    0    0 -0.98693546748E+01  0.25781007343E+03  0.14211157974E+03  0.29454904382E+03  0.00000000000E+00 0.  1.
        -13    1    3    3    0    0 -0.29612914719E+02  0.32249139907E+02  0.72106554583E+00  0.43788716336E+02  0.00000000000E+00 0. -1.
          2    1    6    6  502    0  0.22376573090E+02  0.13129970428E+01 -0.51052494552E+02  0.55756543871E+02  0.00000000000E+00 0. -1.
          3    1    5    5  503    0 -0.13932182457E+02 -0.16516254676E+03  0.42642058384E+02  0.17114648026E+03  0.00000000000E+00 0. -1.
         -4    1    5    5    0  503 -0.27601878776E+02 -0.33115130431E+03 -0.23268632248E+02  0.33311331301E+03  0.00000000000E+00 0.  1.
         -1    1    6    6    0  502  0.58639757536E+02  0.20494164070E+03 -0.44712279673E+03  0.49533674668E+03  0.00000000000E+00 0.  1.
<mgrwt>
<rscale>  0 0.13525897E+04</rscale>
<asrwt>0</asrwt>
<pdfrwt beam="1">  1        1 0.13305077E+00 0.13525897E+04</pdfrwt>
<pdfrwt beam="2">  1       -1 0.81363203E-01 0.13525897E+04</pdfrwt>
<totfact> 0.28663980E+01</totfact>
</mgrwt>
</event>
<event>
12    1  0.1472088E-007  0.2585044E+04  0.7818608E-02  0.8373299E-01
         -2   -1    0    0    0  501 -0.00000000000E+00  0.00000000000E+00  0.43921132003E+03  0.43921132003E+03  0.00000000000E+00 0.  1.
          2   -1    0    0  501    0  0.00000000000E+00 -0.00000000000E+00 -0.38036650749E+04  0.38036650749E+04  0.00000000000E+00 0. -1.
         23    2    1    2    0    0  0.34044074571E+03  0.64623149611E+03 -0.29144411328E+04  0.30059513783E+04  0.90892929539E+02 0.  0.
        254    2    1    2    0    0 -0.34044074571E+03 -0.64623149611E+03 -0.45001262209E+03  0.12369250166E+04  0.89104269747E+03 0.  0.
        -24    2    4    4    0    0 -0.20611283086E+03  0.12841785741E+03  0.99777255894E+02  0.27468712884E+03  0.80770494664E+02 0.  0.
         24    2    4    4    0    0 -0.13432791484E+03 -0.77464935353E+03 -0.54978987799E+03  0.96223788774E+03  0.74210734054E+02 0.  0.
         13    1    3    3    0    0  0.30957579080E+03  0.51211229528E+03 -0.23611429771E+04  0.24357939838E+04  0.00000000000E+00 0. -1.
        -13    1    3    3    0    0  0.30864954910E+02  0.13411920084E+03 -0.55329815570E+03  0.57015739456E+03  0.00000000000E+00 0.  1.
          2    1    6    6  502    0 -0.14334085028E+03 -0.71569912566E+03 -0.51324066645E+03  0.89229357250E+03  0.00000000000E+00 0. -1.
          3    1    5    5  503    0 -0.16042023491E+03  0.72590368871E+02  0.10010031066E+03  0.20254403377E+03  0.00000000000E+00 0. -1.
         -4    1    5    5    0  503 -0.45692595956E+02  0.55827488542E+02 -0.32305477104E+00  0.72143095071E+02  0.00000000000E+00 0.  1.
         -1    1    6    6    0  502  0.90129354409E+01 -0.58950227865E+02 -0.36549211540E+02  0.69944315243E+02  0.00000000000E+00 0.  1.
<mgrwt>
<rscale>  0 0.25850437E+04</rscale>
<asrwt>0</asrwt>
<pdfrwt beam="1">  1        2 0.58517924E+00 0.25850437E+04</pdfrwt>
<pdfrwt beam="2">  1       -2 0.67570972E-01 0.25850437E+04</pdfrwt>
<totfact> 0.86915666E-01</totfact>
</mgrwt>
</event>
<event>
12    1  0.1472088E-007  0.1651969E+04  0.7818608E-02  0.8789243E-01
         -2   -1    0    0    0  501 -0.00000000000E+00  0.00000000000E+00  0.45919174334E+03  0.45919174334E+03  0.00000000000E+00 0. -1.
          2   -1    0    0  501    0  0.00000000000E+00 -0.00000000000E+00 -0.14857629712E+04  0.14857629712E+04  0.00000000000E+00 0.  1.
         23    2    1    2    0    0  0.40574057700E+03  0.15910459133E+03 -0.82424466991E+03  0.93646465338E+03  0.87447609116E+02 0.  0.
        254    2    1    2    0    0 -0.40574057700E+03 -0.15910459133E+03 -0.20232655797E+03  0.10084900612E+04  0.88666593520E+03 0.  0.
        -24    2    4    4    0    0 -0.18224332138E+03 -0.26279778830E+03 -0.50954365137E+03  0.60662876024E+03  0.78028292122E+02 0.  0.
         24    2    4    4    0    0 -0.22349725562E+03  0.10369319697E+03  0.30721709340E+03  0.40186130095E+03  0.80042865728E+02 0.  0.
         13    1    3    3    0    0  0.36880790868E+03  0.11669910436E+03 -0.74283670183E+03  0.83752272808E+03  0.00000000000E+00 0.  1.
        -13    1    3    3    0    0  0.36932668315E+02  0.42405486971E+02 -0.81407968086E+02  0.98941925300E+02  0.00000000000E+00 0. -1.
          2    1    6    6  502    0 -0.15780037954E+03  0.10899895809E+03  0.24582535558E+03  0.31178813013E+03  0.00000000000E+00 0. -1.
          3    1    5    5  503    0 -0.50770453344E+02 -0.12576539986E+03 -0.16876156159E+03  0.21650644195E+03  0.00000000000E+00 0. -1.
         -4    1    5    5    0  503 -0.13147286804E+03 -0.13703238844E+03 -0.34078208978E+03  0.39012231829E+03  0.00000000000E+00 0.  1.
         -3    1    6    6    0  502 -0.65696876080E+02 -0.53057611159E+01  0.61391737827E+02  0.90073170818E+02  0.00000000000E+00 0.  1.
<mgrwt>
<rscale>  0 0.16519686E+04</rscale>
<asrwt>0</asrwt>
<pdfrwt beam="1">  1        2 0.22857892E+00 0.16519686E+04</pdfrwt>
<pdfrwt beam="2">  1       -2 0.70644884E-01 0.16519686E+04</pdfrwt>
<totfact> 0.22501857E+01</totfact>
</mgrwt>
</event>
<event>
12    1  0.1472088E-007  0.1660763E+04  0.7818608E-02  0.8784064E-01
          1   -1    0    0  501    0  0.00000000000E+00  0.00000000000E+00  0.18313974805E+04  0.18313974805E+04  0.00000000000E+00 0. -1.
         -1   -1    0    0    0  501 -0.00000000000E+00 -0.00000000000E+00 -0.37650683353E+03  0.37650683353E+03  0.00000000000E+00 0.  1.
         23    2    1    2    0    0  0.48621609903E+03 -0.23287642562E+03  0.21147448096E+03  0.58650717637E+03  0.92906874157E+02 0.  0.
        254    2    1    2    0    0 -0.48621609903E+03  0.23287642562E+03  0.12434161660E+04  0.16213971377E+04  0.89006033029E+03 0.  0.
        -24    2    4    4    0    0 -0.60015827359E+03  0.38956929163E+03  0.57696560274E+03  0.92274654277E+03  0.81349180163E+02 0.  0.
         24    2    4    4    0    0  0.11394217456E+03 -0.15669286600E+03  0.66645056325E+03  0.69865059488E+03  0.80130063410E+02 0.  0.
         11    1    3    3    0    0  0.20797818084E+03 -0.56718006385E+02  0.10934658766E+03  0.24171994578E+03  0.00000000000E+00 0. -1.
        -11    1    3    3    0    0  0.27823791820E+03 -0.17615841924E+03  0.10212789329E+03  0.34478723059E+03  0.00000000000E+00 0.  1.
          4    1    6    6  502    0  0.11272422327E+02  0.91102048161E+01  0.53150919804E+02  0.55091592942E+02  0.00000000000E+00 0. -1.
          3    1    5    5  503    0 -0.12318187012E+03  0.62917374012E+02  0.15015428999E+03  0.20415356935E+03  0.00000000000E+00 0. -1.
         -4    1    5    5    0  503 -0.47697640347E+03  0.32665191761E+03  0.42681131275E+03  0.71859297342E+03  0.00000000000E+00 0.  1.
         -3    1    6    6    0  502  0.10266975223E+03 -0.16580307082E+03  0.61329964345E+03  0.64355900194E+03  0.00000000000E+00 0.  1.
<mgrwt>
<rscale>  0 0.16607633E+04</rscale>
<asrwt>0</asrwt>
<pdfrwt beam="1">  1        1 0.28175345E+00 0.16607633E+04</pdfrwt>
<pdfrwt beam="2">  1       -1 0.57924129E-01 0.16607633E+04</pdfrwt>
<totfact> 0.11181903E+01</totfact>
</mgrwt>
</event>
<event>
12    1  0.1472088E-007  0.1306507E+04  0.7818608E-02  0.9024421E-01
          1   -1    0    0  501    0  0.00000000000E+00  0.00000000000E+00  0.40612813578E+03  0.40612813578E+03  0.00000000000E+00 0. -1.
         -1   -1    0    0    0  501 -0.00000000000E+00 -0.00000000000E+00 -0.10507519058E+04  0.10507519058E+04  0.00000000000E+00 0.  1.
         23    2    1    2    0    0  0.13404036478E+03 -0.29244683837E+03 -0.24979206759E+03  0.41707625728E+03  0.89802865690E+02 0.  0.
        254    2    1    2    0    0 -0.13404036478E+03  0.29244683837E+03 -0.39483170244E+03  0.10398037843E+04  0.90653619009E+03 0.  0.
        -24    2    4    4    0    0 -0.34781575107E+03 -0.18700458314E+03 -0.29447776939E+03  0.49910135703E+03  0.80240246209E+02 0.  0.
         24    2    4    4    0    0  0.21377538629E+03  0.47945142152E+03 -0.10035393305E+03  0.54070242728E+03  0.81942794761E+02 0.  0.
         11    1    3    3    0    0  0.88923779569E+02 -0.10706420062E+03 -0.13773779410E+03  0.19581083103E+03  0.00000000000E+00 0. -1.
        -11    1    3    3    0    0  0.45116585207E+02 -0.18538263775E+03 -0.11205427350E+03  0.22126542624E+03  0.00000000000E+00 0.  1.
          4    1    6    6  502    0  0.89598134496E+01  0.13974868328E+02 -0.19765497896E+02  0.25811821108E+02  0.00000000000E+00 0. -1.
          3    1    5    5  503    0 -0.47976472710E+02 -0.56304691553E+02 -0.36308306175E+02  0.82402993404E+02  0.00000000000E+00 0. -1.
         -4    1    5    5    0  503 -0.29983927836E+03 -0.13069989159E+03 -0.25816946321E+03  0.41669836362E+03  0.00000000000E+00 0.  1.
         -3    1    6    6    0  502  0.20481557284E+03  0.46547655319E+03 -0.80588435152E+02  0.51489060618E+03  0.00000000000E+00 0.  1.
<mgrwt>
<rscale>  0 0.13065067E+04</rscale>
<asrwt>0</asrwt>
<pdfrwt beam="1">  1        1 0.62481251E-01 0.13065067E+04</pdfrwt>
<pdfrwt beam="2">  1       -1 0.16165414E+00 0.13065067E+04</pdfrwt>
<totfact> 0.16392832E+01</totfact>
</mgrwt>
</event>
<event>
12    1  0.1472088E-007  0.1359026E+04  0.7818608E-02  0.8984024E-01
         -1   -1    0    0    0  501 -0.00000000000E+00  0.00000000000E+00  0.18409890764E+03  0.18409890764E+03  0.00000000000E+00 0.  1.
          1   -1    0    0  501    0  0.00000000000E+00 -0.00000000000E+00 -0.25080971148E+04  0.25080971148E+04  0.00000000000E+00 0. -1.
         23    2    1    2    0    0 -0.35133137638E+03  0.71512723536E+02 -0.82630173541E+03  0.90519810924E+03  0.89784482919E+02 0.  0.
        254    2    1    2    0    0  0.35133137638E+03 -0.71512723536E+02 -0.14976964718E+04  0.17869979132E+04  0.90648718396E+03 0.  0.
        -24    2    4    4    0    0  0.60440850372E+03 -0.24554139362E+03 -0.10053871097E+04  0.12010931764E+04  0.78875615647E+02 0.  0.
         24    2    4    4    0    0 -0.25307712734E+03  0.17402867009E+03 -0.49230936209E+03  0.58590473682E+03  0.81128553755E+02 0.  0.
         11    1    3    3    0    0 -0.18545249556E+03  0.34171815677E+02 -0.32379285196E+03  0.37470275163E+03  0.00000000000E+00 0.  1.
        -11    1    3    3    0    0 -0.16587888081E+03  0.37340907858E+02 -0.50250888345E+03  0.53049535761E+03  0.00000000000E+00 0. -1.
          4    1    6    6  502    0 -0.53649864793E+02  0.50497283769E+02 -0.64144870767E+02  0.97687502303E+02  0.00000000000E+00 0. -1.
          1    1    5    5  503    0  0.20532448472E+03 -0.97157424949E+02 -0.41636465826E+03  0.47429657167E+03  0.00000000000E+00 0. -1.
         -2    1    5    5    0  503  0.39908401900E+03 -0.14838396867E+03 -0.58902245144E+03  0.72679660475E+03  0.00000000000E+00 0.  1.
         -3    1    6    6    0  502 -0.19942726255E+03  0.12353138632E+03 -0.42816449132E+03  0.48821723452E+03  0.00000000000E+00 0.  1.
<mgrwt>
<rscale>  0 0.13590260E+04</rscale>
<asrwt>0</asrwt>
<pdfrwt beam="1">  1        1 0.38586107E+00 0.13590260E+04</pdfrwt>
<pdfrwt beam="2">  1       -1 0.28322910E-01 0.13590260E+04</pdfrwt>
<totfact> 0.14821827E+01</totfact>
</mgrwt>
</event>
<event>
12    1  0.1472088E-007  0.1611103E+04  0.7818608E-02  0.8813756E-01
          2   -1    0    0  501    0  0.00000000000E+00  0.00000000000E+00  0.58879722507E+03  0.58879722507E+03  0.00000000000E+00 0. -1.
         -2   -1    0    0    0  501 -0.00000000000E+00 -0.00000000000E+00 -0.11021001385E+04  0.11021001385E+04  0.00000000000E+00 0.  1.
         23    2    1    2    0    0  0.32492899895E+02  0.21754920371E+03 -0.70764783092E+03  0.74624541232E+03  0.87939287120E+02 0.  0.
        254    2    1    2    0    0 -0.32492899895E+02 -0.21754920371E+03  0.19434491745E+03  0.94465195130E+03  0.89789415722E+03 0.  0.
        -24    2    4    4    0    0  0.17054591438E+03 -0.15949283519E+03  0.50396959424E+03  0.56116990046E+03  0.80015197772E+02 0.  0.
         24    2    4    4    0    0 -0.20303881427E+03 -0.58056368523E+02 -0.30962467679E+03  0.38348205084E+03  0.81214166302E+02 0.  0.
         13    1    3    3    0    0  0.60597467241E+02  0.11874497170E+03 -0.43071771060E+03  0.45087710916E+03  0.00000000000E+00 0.  1.
        -13    1    3    3    0    0 -0.28104567347E+02  0.98804232016E+02 -0.27693012033E+03  0.29536830317E+03  0.00000000000E+00 0. -1.
          2    1    6    6  502    0 -0.20365230333E+03 -0.57870504356E+02 -0.26653797846E+03  0.34039058431E+03  0.00000000000E+00 0. -1.
          1    1    5    5  503    0  0.89406843331E+02 -0.59726658723E+02  0.14992861996E+03  0.18449782785E+03  0.00000000000E+00 0. -1.
         -2    1    5    5    0  503  0.81139071045E+02 -0.99766176468E+02  0.35404097428E+03  0.37667207262E+03  0.00000000000E+00 0.  1.
         -1    1    6    6    0  502  0.61348905542E+00 -0.18586416794E+00 -0.43086698332E+02  0.43091466527E+02  0.00000000000E+00 0.  1.
<mgrwt>
<rscale>  0 0.16111034E+04</rscale>
<asrwt>0</asrwt>
<pdfrwt beam="1">  1        2 0.90584189E-01 0.16111034E+04</pdfrwt>
<pdfrwt beam="2">  1       -2 0.16955387E+00 0.16111034E+04</pdfrwt>
<totfact> 0.10428011E+01</totfact>
</mgrwt>
</event>
<event>
12    1  0.1472088E-007  0.2593406E+04  0.7818608E-02  0.8370445E-01
          2   -1    0    0  501    0  0.00000000000E+00  0.00000000000E+00  0.20314098264E+04  0.20314098264E+04  0.00000000000E+00 0. -1.
         -2   -1    0    0    0  501 -0.00000000000E+00 -0.00000000000E+00 -0.82771991060E+03  0.82771991060E+03  0.00000000000E+00 0.  1.
         23    2    1    2    0    0 -0.14903637333E+03  0.11147890245E+04  0.66225054927E+03  0.13083995874E+04  0.91472840059E+02 0.  0.
        254    2    1    2    0    0  0.14903637333E+03 -0.11147890245E+04  0.54143936656E+03  0.15507301496E+04  0.92013096867E+03 0.  0.
        -24    2    4    4    0    0  0.11482219126E+03  0.11198407498E+03  0.21013080144E+03  0.27695948997E+03  0.82625884048E+02 0.  0.
         24    2    4    4    0    0  0.34214182065E+02 -0.12267730995E+04  0.33130856512E+03  0.12737706597E+04  0.81138647568E+02 0.  0.
         11    1    3    3    0    0 -0.15032522506E+03  0.11101091375E+04  0.64985491260E+03  0.12950874016E+04  0.00000000000E+00 0. -1.
        -11    1    3    3    0    0  0.12888517273E+01  0.46798870685E+01  0.12395636671E+02  0.13312185779E+02  0.00000000000E+00 0.  1.
          4    1    6    6  502    0 -0.13728886841E+02 -0.63924161146E+03  0.19873480419E+03  0.66956242618E+03  0.00000000000E+00 0. -1.
          3    1    5    5  503    0  0.11276896964E+03  0.85101720501E+02  0.12843920210E+03  0.19093394665E+03  0.00000000000E+00 0. -1.
         -4    1    5    5    0  503  0.20532216234E+01  0.26882354480E+02  0.81691599338E+02  0.86025543322E+02  0.00000000000E+00 0.  1.
         -3    1    6    6    0  502  0.47943068906E+02 -0.58753148806E+03  0.13257376093E+03  0.60420823348E+03  0.00000000000E+00 0.  1.
<mgrwt>
<rscale>  0 0.25934058E+04</rscale>
<asrwt>0</asrwt>
<pdfrwt beam="1">  1        2 0.31252459E+00 0.25934058E+04</pdfrwt>
<pdfrwt beam="2">  1       -2 0.12734153E+00 0.25934058E+04</pdfrwt>
<totfact> 0.25990256E+00</totfact>
</mgrwt>
</event>
<event>
12    1  0.1472088E-007  0.1300818E+04  0.7818608E-02  0.9028917E-01
          2   -1    0    0  501    0  0.00000000000E+00  0.00000000000E+00  0.12185461231E+04  0.12185461231E+04  0.00000000000E+00 0. -1.
         -2   -1    0    0    0  501 -0.00000000000E+00 -0.00000000000E+00 -0.34716107474E+03  0.34716107474E+03  0.00000000000E+00 0.  1.
         23    2    1    2    0    0 -0.50921909603E+02  0.17308381417E+03 -0.99229522003E+02  0.22437462915E+03  0.89142742624E+02 0.  0.
        254    2    1    2    0    0  0.50921909603E+02 -0.17308381417E+03  0.97061457038E+03  0.13413325687E+04  0.90803599492E+03 0.  0.
        -24    2    4    4    0    0  0.26216730397E+03  0.24065998064E+03  0.14865063575E+03  0.39388274937E+03  0.79985543613E+02 0.  0.
         24    2    4    4    0    0 -0.21124539437E+03 -0.41374379481E+03  0.82196393463E+03  0.94744981936E+03  0.78917082972E+02 0.  0.
         13    1    3    3    0    0  0.23522242192E+02  0.26223554260E+02 -0.27898850442E+02  0.44936805980E+02  0.00000000000E+00 0. -1.
        -13    1    3    3    0    0 -0.74444151795E+02  0.14686025991E+03 -0.71330671562E+02  0.17943782317E+03  0.00000000000E+00 0.  1.
          2    1    6    6  502    0 -0.20918953028E+03 -0.36631777452E+03  0.71040107922E+03  0.82620739821E+03  0.00000000000E+00 0. -1.
          3    1    5    5  503    0  0.25569978433E+03  0.22574891726E+03  0.15713521617E+03  0.37554817202E+03  0.00000000000E+00 0. -1.
         -4    1    5    5    0  503  0.64675196422E+01  0.14911063379E+02 -0.84845804201E+01  0.18334577342E+02  0.00000000000E+00 0.  1.
         -1    1    6    6    0  502 -0.20558640910E+01 -0.47426020288E+02  0.11156285541E+03  0.12124242114E+03  0.00000000000E+00 0.  1.
<mgrwt>
<rscale>  0 0.13008179E+04</rscale>
<asrwt>0</asrwt>
<pdfrwt beam="1">  1        2 0.18746863E+00 0.13008179E+04</pdfrwt>
<pdfrwt beam="2">  1       -2 0.53409397E-01 0.13008179E+04</pdfrwt>
<totfact> 0.59787110E+01</totfact>
</mgrwt>
</event>
<event>
12    1  0.1472088E-007  0.3034597E+04  0.7818608E-02  0.8233920E-01
          2   -1    0    0  501    0  0.00000000000E+00  0.00000000000E+00  0.37126731007E+04  0.37126731007E+04  0.00000000000E+00 0. -1.
         -2   -1    0    0    0  501 -0.00000000000E+00 -0.00000000000E+00 -0.62009106824E+03  0.62009106824E+03  0.00000000000E+00 0.  1.
         23    2    1    2    0    0  0.54108279116E+03  0.11991093696E+04  0.81712776489E+03  0.15514208691E+04  0.92601629265E+02 0.  0.
        254    2    1    2    0    0 -0.54108279116E+03 -0.11991093696E+04  0.22754542676E+04  0.27813432999E+04  0.90969476233E+03 0.  0.
        -24    2    4    4    0    0 -0.14769417051E+03 -0.12166516208E+03  0.11634227131E+04  0.11818054001E+04  0.80595376954E+02 0.  0.
         24    2    4    4    0    0 -0.39338862065E+03 -0.10774442075E+04  0.11120315545E+04  0.15995378997E+04  0.79162410585E+02 0.  0.
         13    1    3    3    0    0  0.12242077762E+03  0.23603904117E+03  0.12579313658E+03  0.29415164279E+03  0.00000000000E+00 0.  1.
        -13    1    3    3    0    0  0.41866201354E+03  0.96307032845E+03  0.69133462831E+03  0.12572692263E+04  0.00000000000E+00 0. -1.
          4    1    6    6  502    0 -0.39708995130E+03 -0.10631130456E+04  0.10998721852E+04  0.15803824224E+04  0.00000000000E+00 0. -1.
          3    1    5    5  503    0 -0.12006653545E+03 -0.12560857330E+03  0.87854318206E+03  0.89556217504E+03  0.00000000000E+00 0. -1.
         -4    1    5    5    0  503 -0.27627635054E+02  0.39434112231E+01  0.28487953104E+03  0.28624322510E+03  0.00000000000E+00 0.  1.
         -3    1    6    6    0  502  0.37013306521E+01 -0.14331161942E+02  0.12159369272E+02  0.19155477345E+02  0.00000000000E+00 0.  1.
<mgrwt>
<rscale>  0 0.30345975E+04</rscale>
<asrwt>0</asrwt>
<pdfrwt beam="1">  1        2 0.57118046E+00 0.30345975E+04</pdfrwt>
<pdfrwt beam="2">  1       -2 0.95398628E-01 0.30345975E+04</pdfrwt>
<totfact> 0.44960361E-01</totfact>
</mgrwt>
</event>
<event>
12    1  0.1472088E-007  0.3648143E+04  0.7818608E-02  0.8079552E-01
          2   -1    0    0  501    0  0.00000000000E+00  0.00000000000E+00  0.26014137995E+04  0.26014137995E+04  0.00000000000E+00 0. -1.
         -2   -1    0    0    0  501 -0.00000000000E+00 -0.00000000000E+00 -0.12790110774E+04  0.12790110774E+04  0.00000000000E+00 0.  1.
         23    2    1    2    0    0 -0.76264344605E+03  0.19560512604E+03 -0.99599648976E+03  0.12730486123E+04  0.93580823155E+02 0.  0.
        254    2    1    2    0    0  0.76264344605E+03 -0.19560512604E+03  0.23183992118E+04  0.26073762646E+04  0.89640933091E+03 0.  0.
        -24    2    4    4    0    0  0.70247682507E+02 -0.38099340101E+03  0.42012277645E+03  0.57666385885E+03  0.77119065765E+02 0.  0.
         24    2    4    4    0    0  0.69239576354E+03  0.18538827497E+03  0.18982764354E+04  0.20307124057E+04  0.80986071602E+02 0.  0.
         13    1    3    3    0    0 -0.96421807189E+02 -0.44267342259E+01 -0.10401478759E+03  0.14190079956E+03  0.00000000000E+00 0. -1.
        -13    1    3    3    0    0 -0.66622163886E+03  0.20003186026E+03 -0.89198170218E+03  0.11311478127E+04  0.00000000000E+00 0.  1.
          4    1    6    6  502    0  0.58722849026E+03  0.12610199086E+03  0.15783764891E+04  0.16887899080E+04  0.00000000000E+00 0. -1.
          1    1    5    5  503    0 -0.11426270992E+02 -0.15584312414E+02  0.11725008483E+02  0.22603236187E+02  0.00000000000E+00 0. -1.
         -2    1    5    5    0  503  0.81673953499E+02 -0.36540908859E+03  0.40839776797E+03  0.55406062266E+03  0.00000000000E+00 0.  1.
         -3    1    6    6    0  502  0.10516727328E+03  0.59286284103E+02  0.31989994628E+03  0.34192249777E+03  0.00000000000E+00 0.  1.
<mgrwt>
<rscale>  0 0.36481431E+04</rscale>
<asrwt>0</asrwt>
<pdfrwt beam="1">  1        2 0.40021751E+00 0.36481431E+04</pdfrwt>
<pdfrwt beam="2">  1       -2 0.19677094E+00 0.36481431E+04</pdfrwt>
<totfact> 0.34439467E-01</totfact>
</mgrwt>
</event>
<event>
12    1  0.1472088E-007  0.2656574E+04  0.7818608E-02  0.8349234E-01
         -1   -1    0    0    0  501 -0.00000000000E+00  0.00000000000E+00  0.82340581136E+03  0.82340581136E+03  0.00000000000E+00 0.  1.
          1   -1    0    0  501    0  0.00000000000E+00 -0.00000000000E+00 -0.21427416825E+04  0.21427416825E+04  0.00000000000E+00 0. -1.
         23    2    1    2    0    0 -0.74786295808E+03  0.23516131079E+03 -0.15606312216E+04  0.17488871102E+04  0.91850249396E+02 0.  0.
        254    2    1    2    0    0  0.74786295808E+03 -0.23516131079E+03  0.24129535050E+03  0.12172603836E+04  0.89938843063E+03 0.  0.
        -24    2    4    4    0    0  0.13408766175E+02 -0.25651525411E+03 -0.21881058906E+03  0.34663911926E+03  0.79377166193E+02 0.  0.
         24    2    4    4    0    0  0.73445419190E+03  0.21353943318E+02  0.46010593956E+03  0.87062126434E+03  0.80030990261E+02 0.  0.
         13    1    3    3    0    0 -0.39650425155E+03  0.13612837315E+03 -0.93211480307E+03  0.10220491972E+04  0.00000000000E+00 0. -1.
        -13    1    3    3    0    0 -0.35135870653E+03  0.99032937645E+02 -0.62851641854E+03  0.72683791299E+03  0.00000000000E+00 0.  1.
          2    1    6    6  502    0  0.38864637325E+03 -0.22736180348E+02  0.21802485884E+03  0.44620373868E+03  0.00000000000E+00 0. -1.
          3    1    5    5  503    0 -0.29545292022E+02 -0.51422068011E+02 -0.48814452565E+02  0.76811484417E+02  0.00000000000E+00 0. -1.
         -4    1    5    5    0  503  0.42954058196E+02 -0.20509318610E+03 -0.16999613650E+03  0.26982763484E+03  0.00000000000E+00 0.  1.
         -1    1    6    6    0  502  0.34580781865E+03  0.44090123666E+02  0.24208108072E+03  0.42441752566E+03  0.00000000000E+00 0.  1.
<mgrwt>
<rscale>  0 0.26565737E+04</rscale>
<asrwt>0</asrwt>
<pdfrwt beam="1">  1        1 0.32965256E+00 0.26565737E+04</pdfrwt>
<pdfrwt beam="2">  1       -1 0.12667782E+00 0.26565737E+04</pdfrwt>
<totfact> 0.11304171E+00</totfact>
</mgrwt>
</event>
<event>
12    1  0.1472088E-007  0.1509593E+04  0.7818608E-02  0.8878099E-01
          3   -1    0    0  501    0  0.00000000000E+00  0.00000000000E+00  0.15611371090E+04  0.15611371090E+04  0.00000000000E+00 0. -1.
         -3   -1    0    0    0  501 -0.00000000000E+00 -0.00000000000E+00 -0.36493759201E+03  0.36493759201E+03  0.00000000000E+00 0.  1.
         23    2    1    2    0    0 -0.80057209935E+02 -0.13517296458E+03  0.96520993090E+03  0.98213932730E+03  0.91030545989E+02 0.  0.
        254    2    1    2    0    0  0.80057209935E+02  0.13517296458E+03  0.23098958612E+03  0.94393537374E+03  0.90165232417E+03 0.  0.
        -24    2    4    4    0    0 -0.23167503844E+03  0.21966798929E+03 -0.21102601396E+03  0.39080888003E+03  0.79197557958E+02 0.  0.
         24    2    4    4    0    0  0.31173224838E+03 -0.84495024702E+02  0.44201560008E+03  0.55312649371E+03  0.79086809596E+02 0.  0.
         11    1    3    3    0    0 -0.58157408098E+02 -0.14580047125E+03  0.81684269817E+03  0.83178846775E+03  0.00000000000E+00 0. -1.
        -11    1    3    3    0    0 -0.21899801837E+02  0.10627506664E+02  0.14836723273E+03  0.15035085955E+03  0.00000000000E+00 0.  1.
          4    1    6    6  502    0  0.54187733511E+02 -0.43146572648E+02  0.12178389232E+03  0.14010443827E+03  0.00000000000E+00 0. -1.
          3    1    5    5  503    0 -0.59848564908E+02  0.46581532875E+02 -0.13654402122E+02  0.77059279933E+02  0.00000000000E+00 0. -1.
         -4    1    5    5    0  503 -0.17182647354E+03  0.17308645641E+03 -0.19737161183E+03  0.31374960009E+03  0.00000000000E+00 0.  1.
         -3    1    6    6    0  502  0.25754451487E+03 -0.41348452055E+02  0.32023170776E+03  0.41302205544E+03  0.00000000000E+00 0.  1.
<mgrwt>
<rscale>  0 0.15095928E+04</rscale>
<asrwt>0</asrwt>
<pdfrwt beam="1">  1        3 0.24017494E+00 0.15095928E+04</pdfrwt>
<pdfrwt beam="2">  1       -3 0.56144246E-01 0.15095928E+04</pdfrwt>
<totfact> 0.66601908E-01</totfact>
</mgrwt>
</event>
<event>
12    1  0.1472088E-007  0.1622601E+04  0.7818608E-02  0.8806783E-01
         -2   -1    0    0    0  501 -0.00000000000E+00  0.00000000000E+00  0.37763055099E+03  0.37763055099E+03  0.00000000000E+00 0.  1.
          2   -1    0    0  501    0  0.00000000000E+00 -0.00000000000E+00 -0.17429950278E+04  0.17429950278E+04  0.00000000000E+00 0. -1.
         23    2    1    2    0    0 -0.44887287559E+03  0.86808700541E+01 -0.49998488606E+02  0.46216545247E+03  0.97646508621E+02 0.  0.
        254    2    1    2    0    0  0.44887287559E+03 -0.86808700541E+01 -0.13153659882E+04  0.16584601263E+04  0.90484257840E+03 0.  0.
        -24    2    4    4    0    0  0.60708045444E+03 -0.12947541348E+03 -0.13000208867E+04  0.14428495432E+04  0.80311502583E+02 0.  0.
         24    2    4    4    0    0 -0.15820757884E+03  0.12079454343E+03 -0.15345101439E+02  0.21561058311E+03  0.81433971321E+02 0.  0.
         13    1    3    3    0    0 -0.23769027359E+03 -0.40480986435E+02 -0.76177546421E+01  0.24123309600E+03  0.00000000000E+00 0. -1.
        -13    1    3    3    0    0 -0.21118260201E+03  0.49161856489E+02 -0.42380733964E+02  0.22093235647E+03  0.00000000000E+00 0.  1.
          2    1    6    6  502    0 -0.11142166247E+03  0.12506996604E+03 -0.18513005040E+02  0.16852303887E+03  0.00000000000E+00 0. -1.
          3    1    5    5  503    0  0.48242080825E+03 -0.13514685194E+03 -0.10290727174E+04  0.11445458337E+04  0.00000000000E+00 0. -1.
         -4    1    5    5    0  503  0.12465964619E+03  0.56714384622E+01 -0.27094816935E+03  0.29830370946E+03  0.00000000000E+00 0.  1.
         -1    1    6    6    0  502 -0.46785916370E+02 -0.42754226174E+01  0.31679036012E+01  0.47087544238E+02  0.00000000000E+00 0.  1.
<mgrwt>
<rscale>  0 0.16226006E+04</rscale>
<asrwt>0</asrwt>
<pdfrwt beam="1">  1        2 0.26815308E+00 0.16226006E+04</pdfrwt>
<pdfrwt beam="2">  1       -2 0.58097008E-01 0.16226006E+04</pdfrwt>
<totfact> 0.24628454E+01</totfact>
</mgrwt>
</event>
<event>
12    1  0.1472088E-007  0.1866834E+04  0.7818608E-02  0.8671544E-01
         -2   -1    0    0    0  501 -0.00000000000E+00  0.00000000000E+00  0.30244345997E+03  0.30244345997E+03  0.00000000000E+00 0.  1.
          2   -1    0    0  501    0  0.00000000000E+00 -0.00000000000E+00 -0.28807604700E+04  0.28807604700E+04  0.00000000000E+00 0. -1.
         23    2    1    2    0    0  0.35764577848E+03 -0.29156194683E+03 -0.19273453951E+04  0.19838733521E+04  0.90412022474E+02 0.  0.
        254    2    1    2    0    0 -0.35764577848E+03  0.29156194683E+03 -0.65097161499E+03  0.11993305778E+04  0.89538311338E+03 0.  0.
        -24    2    4    4    0    0 -0.53277749837E+03  0.29666685859E+02 -0.84202979025E+02  0.54611064760E+03  0.80091964144E+02 0.  0.
         24    2    4    4    0    0  0.17513171989E+03  0.26189526097E+03 -0.56676863596E+03  0.65321993024E+03  0.78799387860E+02 0.  0.
         11    1    3    3    0    0  0.53375822257E+02 -0.89966778757E+02 -0.47250047988E+03  0.48394183862E+03  0.00000000000E+00 0.  1.
        -11    1    3    3    0    0  0.30426995623E+03 -0.20159516807E+03 -0.14548449152E+04  0.14999315135E+04  0.00000000000E+00 0. -1.
          2    1    6    6  502    0  0.76891036981E+01  0.28321864494E+02 -0.19972354575E+02  0.35498524919E+02  0.00000000000E+00 0. -1.
          1    1    5    5  503    0 -0.89892850987E+02 -0.15244861192E+02 -0.37225170043E+02  0.98482707802E+02  0.00000000000E+00 0. -1.
         -2    1    5    5    0  503 -0.44288464739E+03  0.44911547051E+02 -0.46977808981E+02  0.44762793980E+03  0.00000000000E+00 0.  1.
         -1    1    6    6    0  502  0.16744261619E+03  0.23357339647E+03 -0.54679628139E+03  0.61772140532E+03  0.00000000000E+00 0.  1.
<mgrwt>
<rscale>  0 0.18668339E+04</rscale>
<asrwt>0</asrwt>
<pdfrwt beam="1">  1        2 0.44319393E+00 0.18668339E+04</pdfrwt>
<pdfrwt beam="2">  1       -2 0.46529762E-01 0.18668339E+04</pdfrwt>
<totfact> 0.85116403E+00</totfact>
</mgrwt>
</event>
<event>
12    1  0.1849440E-007  0.1337493E+04  0.7818608E-02  0.9000350E-01
         -1   -1    0    0    0  501 -0.00000000000E+00  0.00000000000E+00  0.71041409065E+03  0.71041409065E+03  0.00000000000E+00 0.  1.
          1   -1    0    0  501    0  0.00000000000E+00 -0.00000000000E+00 -0.62952241835E+03  0.62952241835E+03  0.00000000000E+00 0. -1.
         23    2    1    2    0    0  0.31717106513E+03 -0.13958681623E+03 -0.73827532878E+02  0.36623762207E+03  0.92722852554E+02 0.  0.
        254    2    1    2    0    0 -0.31717106513E+03  0.13958681623E+03  0.15471920518E+03  0.97369888693E+03  0.89669923951E+03 0.  0.
        -24    2    4    4    0    0 -0.50210437471E+03  0.10358275112E+03  0.39923405542E+03  0.65489071360E+03  0.81583247784E+02 0.  0.
         24    2    4    4    0    0  0.18493330958E+03  0.36004065119E+02 -0.24451485024E+03  0.31880817333E+03  0.79715228767E+02 0.  0.
         11    1    3    3    0    0  0.32260587415E+03 -0.13023313561E+03 -0.71553624890E+02  0.35518324972E+03  0.00000000000E+00 0. -1.
        -11    1    3    3    0    0 -0.54348090261E+01 -0.93536806238E+01 -0.22739079881E+01  0.11054372343E+02  0.00000000000E+00 0.  1.
          4    1    6    6  502    0  0.18602992122E+03  0.32772160199E+02 -0.20352049180E+03  0.27767199472E+03  0.00000000000E+00 0. -1.
          1    1    5    5  503    0 -0.49800575188E+03  0.10568264382E+03  0.38044257534E+03  0.63554315608E+03  0.00000000000E+00 0. -1.
         -2    1    5    5    0  503 -0.40986228334E+01 -0.20998927015E+01  0.18791480075E+02  0.19347557517E+02  0.00000000000E+00 0.  1.
         -3    1    6    6    0  502 -0.10966116341E+01  0.32319049198E+01 -0.40994358442E+02  0.41136178609E+02  0.00000000000E+00 0.  1.
<mgrwt>
<rscale>  0 0.13374926E+04</rscale>
<asrwt>0</asrwt>
<pdfrwt beam="1">  1        1 0.96849603E-01 0.13374926E+04</pdfrwt>
<pdfrwt beam="2">  1       -1 0.10929448E+00 0.13374926E+04</pdfrwt>
<totfact> 0.24253260E+01</totfact>
</mgrwt>
</event>
<event>
12    1  0.1472088E-007  0.2877233E+04  0.7818608E-02  0.8279684E-01
          2   -1    0    0  501    0  0.00000000000E+00  0.00000000000E+00  0.21202635272E+04  0.21202635272E+04  0.00000000000E+00 0. -1.
         -2   -1    0    0    0  501 -0.00000000000E+00 -0.00000000000E+00 -0.97611339132E+03  0.97611339132E+03  0.00000000000E+00 0.  1.
         23    2    1    2    0    0  0.76547168667E+03 -0.99290845897E+03  0.89208454994E+03  0.15414585142E+04  0.92007586092E+02 0.  0.
        254    2    1    2    0    0 -0.76547168667E+03  0.99290845897E+03  0.25206558594E+03  0.15549184043E+04  0.88454512226E+03 0.  0.
        -24    2    4    4    0    0 -0.55061966414E+03  0.11089597909E+04  0.73313217777E+02  0.12429062030E+04  0.80418711326E+02 0.  0.
         24    2    4    4    0    0 -0.21485202253E+03 -0.11605133191E+03  0.17875236816E+03  0.31201220130E+03  0.75959867140E+02 0.  0.
         11    1    3    3    0    0  0.60306855716E+03 -0.71921477737E+03  0.67937810775E+03  0.11586700108E+04  0.00000000000E+00 0. -1.
        -11    1    3    3    0    0  0.16240312951E+03 -0.27369368161E+03  0.21270644218E+03  0.38278850345E+03  0.00000000000E+00 0.  1.
          4    1    6    6  502    0 -0.20744564151E+02 -0.18630708657E+02  0.55955352848E+02  0.62517531615E+02  0.00000000000E+00 0. -1.
          3    1    5    5  503    0 -0.82503092407E+02  0.21689736827E+03  0.35603483762E+02  0.23477401193E+03  0.00000000000E+00 0. -1.
         -4    1    5    5    0  503 -0.46811657173E+03  0.89206242261E+03  0.37709734015E+02  0.10081321910E+04  0.00000000000E+00 0.  1.
         -3    1    6    6    0  502 -0.19410745838E+03 -0.97420623250E+02  0.12279701531E+03  0.24949466969E+03  0.00000000000E+00 0.  1.
<mgrwt>
<rscale>  0 0.28772331E+04</rscale>
<asrwt>0</asrwt>
<pdfrwt beam="1">  1        2 0.32619439E+00 0.28772331E+04</pdfrwt>
<pdfrwt beam="2">  1       -2 0.15017129E+00 0.28772331E+04</pdfrwt>
<totfact> 0.14785776E+00</totfact>
</mgrwt>
</event>
<event>
12    1  0.1472088E-007  0.2522568E+04  0.7818608E-02  0.8394990E-01
          2   -1    0    0  501    0  0.00000000000E+00  0.00000000000E+00  0.19865561681E+04  0.19865561681E+04  0.00000000000E+00 0. -1.
         -2   -1    0    0    0  501 -0.00000000000E+00 -0.00000000000E+00 -0.80080130899E+03  0.80080130899E+03  0.00000000000E+00 0.  1.
         23    2    1    2    0    0 -0.59908299940E+03  0.90605749466E+03  0.32502051687E+03  0.11375063165E+04  0.91878506332E+02 0.  0.
        254    2    1    2    0    0  0.59908299940E+03 -0.90605749466E+03  0.86073434221E+03  0.16498511606E+04  0.89515619883E+03 0.  0.
        -24    2    4    4    0    0  0.80531426497E+03 -0.60243228448E+03  0.48878052167E+03  0.11211772226E+04  0.81708281619E+02 0.  0.
         24    2    4    4    0    0 -0.20623126557E+03 -0.30362521019E+03  0.37195382054E+03  0.52867393799E+03  0.80167854750E+02 0.  0.
         13    1    3    3    0    0 -0.10599119513E+02  0.26014903816E+01 -0.13064764362E+01  0.10991631696E+02  0.00000000000E+00 0.  1.
        -13    1    3    3    0    0 -0.58848387989E+03  0.90345600428E+03  0.32632699331E+03  0.11265146848E+04  0.00000000000E+00 0. -1.
          2    1    6    6  502    0 -0.17796068620E+03 -0.19805276177E+03  0.27024334232E+03  0.37937628596E+03  0.00000000000E+00 0. -1.
          1    1    5    5  503    0  0.56453348882E+03 -0.37876627684E+03  0.31183400203E+03  0.74793208067E+03  0.00000000000E+00 0. -1.
         -2    1    5    5    0  503  0.24078077616E+03 -0.22366600763E+03  0.17694651965E+03  0.37324514190E+03  0.00000000000E+00 0.  1.
         -1    1    6    6    0  502 -0.28270579368E+02 -0.10557244842E+03  0.10171047822E+03  0.14929765203E+03  0.00000000000E+00 0.  1.
<mgrwt>
<rscale>  0 0.25225676E+04</rscale>
<asrwt>0</asrwt>
<pdfrwt beam="1">  1        2 0.30562402E+00 0.25225676E+04</pdfrwt>
<pdfrwt beam="2">  1       -2 0.12320020E+00 0.25225676E+04</pdfrwt>
<totfact> 0.30089276E+00</totfact>
</mgrwt>
</event>
<event>
12    1  0.1472088E-007  0.1333664E+04  0.7818608E-02  0.9003287E-01
         -1   -1    0    0    0  501 -0.00000000000E+00  0.00000000000E+00  0.19155229394E+03  0.19155229394E+03  0.00000000000E+00 0.  1.
          1   -1    0    0  501    0  0.00000000000E+00 -0.00000000000E+00 -0.23213752374E+04  0.23213752374E+04  0.00000000000E+00 0. -1.
         23    2    1    2    0    0 -0.12496109563E+03 -0.27417961812E+03 -0.91944665243E+03  0.97263216342E+03  0.99204033311E+02 0.  0.
        254    2    1    2    0    0  0.12496109563E+03  0.27417961812E+03 -0.12103762911E+04  0.15402953679E+04  0.90371971107E+03 0.  0.
        -24    2    4    4    0    0  0.11498789980E+03 -0.31858014941E+03 -0.36146313974E+03  0.50177271809E+03  0.80029560359E+02 0.  0.
         24    2    4    4    0    0  0.99731958330E+01  0.59275976753E+03 -0.84891315131E+03  0.10385226499E+04  0.80075896242E+02 0.  0.
         11    1    3    3    0    0 -0.15387346360E+02 -0.10020629777E+03 -0.19780116205E+03  0.22226869381E+03  0.00000000000E+00 0.  1.
        -11    1    3    3    0    0 -0.10957374927E+03 -0.17397332035E+03 -0.72164549038E+03  0.75036346960E+03  0.00000000000E+00 0. -1.
          4    1    6    6  502    0 -0.21774669116E+02  0.59151726813E+02 -0.75445999785E+02  0.98311555189E+02  0.00000000000E+00 0. -1.
          1    1    5    5  503    0  0.15967643178E+02 -0.12123514134E+02 -0.49456942362E+02  0.53366041369E+02  0.00000000000E+00 0. -1.
         -2    1    5    5    0  503  0.99020256618E+02 -0.30645663528E+03 -0.31200619738E+03  0.44840667672E+03  0.00000000000E+00 0.  1.
         -3    1    6    6    0  502  0.31747864949E+02  0.53360804072E+03 -0.77346715153E+03  0.94021109467E+03  0.00000000000E+00 0.  1.
<mgrwt>
<rscale>  0 0.13336638E+04</rscale>
<asrwt>0</asrwt>
<pdfrwt beam="1">  1        1 0.35713465E+00 0.13336638E+04</pdfrwt>
<pdfrwt beam="2">  1       -1 0.29469584E-01 0.13336638E+04</pdfrwt>
<totfact> 0.18621020E+01</totfact>
</mgrwt>
</event>
<event>
12    1  0.1472088E-007  0.1903972E+04  0.7818608E-02  0.8652882E-01
         -2   -1    0    0    0  501 -0.00000000000E+00  0.00000000000E+00  0.15032997610E+04  0.15032997610E+04  0.00000000000E+00 0.  1.
          2   -1    0    0  501    0  0.00000000000E+00 -0.00000000000E+00 -0.60285900008E+03  0.60285900008E+03  0.00000000000E+00 0. -1.
         23    2    1    2    0    0  0.12807229919E+03  0.88029498116E+02  0.11454387482E+04  0.11594509613E+04  0.90249095975E+02 0.  0.
        254    2    1    2    0    0 -0.12807229919E+03 -0.88029498116E+02 -0.24499798736E+03  0.94670779975E+03  0.90115478024E+03 0.  0.
        -24    2    4    4    0    0 -0.48657613144E+03  0.62977971111E+02 -0.23735872263E+03  0.54968508555E+03  0.71358065637E+02 0.  0.
         24    2    4    4    0    0  0.35850383225E+03 -0.15100746923E+03 -0.76392647301E+01  0.39702271421E+03  0.78996352642E+02 0.  0.
         13    1    3    3    0    0  0.77432572100E+02  0.78860663177E+02  0.97949186736E+03  0.98570742395E+03  0.00000000000E+00 0.  1.
        -13    1    3    3    0    0  0.50639727090E+02  0.91688349391E+01  0.16594688089E+03  0.17374353735E+03  0.00000000000E+00 0. -1.
          2    1    6    6  502    0  0.19884932844E+03 -0.93813719962E+02  0.33780400112E+02  0.22244816229E+03  0.00000000000E+00 0. -1.
          3    1    5    5  503    0 -0.35467288763E+03  0.59532646250E+02 -0.20448212025E+03  0.41370270810E+03  0.00000000000E+00 0. -1.
         -4    1    5    5    0  503 -0.13190324381E+03  0.34453248607E+01 -0.32876602376E+02  0.13598237745E+03  0.00000000000E+00 0.  1.
         -1    1    6    6    0  502  0.15965450381E+03 -0.57193749266E+02 -0.41419664842E+02  0.17457455192E+03  0.00000000000E+00 0.  1.
<mgrwt>
<rscale>  0 0.19039725E+04</rscale>
<asrwt>0</asrwt>
<pdfrwt beam="1">  1        2 0.92747539E-01 0.19039725E+04</pdfrwt>
<pdfrwt beam="2">  1       -2 0.23127688E+00 0.19039725E+04</pdfrwt>
<totfact> 0.38734688E+00</totfact>
</mgrwt>
</event>
<event>
12    1  0.1472088E-007  0.1266976E+04  0.7818608E-02  0.9056171E-01
         -1   -1    0    0    0  501 -0.00000000000E+00  0.00000000000E+00  0.29010622672E+03  0.29010622672E+03  0.00000000000E+00 0.  1.
          1   -1    0    0  501    0  0.00000000000E+00 -0.00000000000E+00 -0.13833108206E+04  0.13833108206E+04  0.00000000000E+00 0. -1.
         23    2    1    2    0    0 -0.10048991987E+03 -0.39983093877E+02 -0.65322381008E+03  0.66992498651E+03  0.10198661534E+03 0.  0.
        254    2    1    2    0    0  0.10048991987E+03  0.39983093877E+02 -0.43998078383E+03  0.10034920608E+04  0.89538614812E+03 0.  0.
        -24    2    4    4    0    0 -0.83980282488E+02  0.35629893343E+03  0.59579243808E+02  0.37920282714E+03  0.79015694701E+02 0.  0.
         24    2    4    4    0    0  0.18447020236E+03 -0.31631583956E+03 -0.49956002764E+03  0.62428923370E+03  0.78050369531E+02 0.  0.
         13    1    3    3    0    0 -0.11566179158E+03 -0.17211864820E+02 -0.58188936548E+03  0.59352264657E+03  0.00000000000E+00 0. -1.
        -13    1    3    3    0    0  0.15171871706E+02 -0.22771229057E+02 -0.71334444593E+02  0.76402339946E+02  0.00000000000E+00 0.  1.
          4    1    6    6  502    0  0.71172782868E+02 -0.12020942039E+03 -0.25643558927E+03  0.29201897407E+03  0.00000000000E+00 0. -1.
          3    1    5    5  503    0  0.93189299015E+01  0.12745971120E+02  0.12435808529E+02  0.20098546417E+02  0.00000000000E+00 0. -1.
         -4    1    5    5    0  503 -0.93299212390E+02  0.34355296231E+03  0.47143435279E+02  0.35910428073E+03  0.00000000000E+00 0.  1.
         -3    1    6    6    0  502  0.11329741949E+03 -0.19610641917E+03 -0.24312443836E+03  0.33227025962E+03  0.00000000000E+00 0.  1.
<mgrwt>
<rscale>  0 0.12669761E+04</rscale>
<asrwt>0</asrwt>
<pdfrwt beam="1">  1        1 0.21281705E+00 0.12669761E+04</pdfrwt>
<pdfrwt beam="2">  1       -1 0.44631727E-01 0.12669761E+04</pdfrwt>
<totfact> 0.38654363E+01</totfact>
</mgrwt>
</event>
<event>
12    1  0.1472088E-007  0.2278385E+04  0.7818608E-02  0.8486493E-01
          2   -1    0    0  501    0  0.00000000000E+00  0.00000000000E+00  0.17420662104E+04  0.17420662104E+04  0.00000000000E+00 0. -1.
         -2   -1    0    0    0  501 -0.00000000000E+00 -0.00000000000E+00 -0.74495394177E+03  0.74495394177E+03  0.00000000000E+00 0.  1.
         23    2    1    2    0    0  0.22359032890E+03 -0.97718744001E+02  0.14505238399E+04  0.14737067081E+04  0.90832061169E+02 0.  0.
        254    2    1    2    0    0 -0.22359032890E+03  0.97718744001E+02 -0.45341157126E+03  0.10133134441E+04  0.87274308639E+03 0.  0.
        -24    2    4    4    0    0  0.33096688441E+03  0.29292173150E+02 -0.17914775483E+03  0.38554175033E+03  0.78430945433E+02 0.  0.
         24    2    4    4    0    0 -0.55455721331E+03  0.68426570850E+02 -0.27426381643E+03  0.62777169373E+03  0.81613479339E+02 0.  0.
         11    1    3    3    0    0  0.21200401207E+03 -0.73850082151E+02  0.13839542245E+04  0.14020445183E+04  0.00000000000E+00 0. -1.
        -11    1    3    3    0    0  0.11586316830E+02 -0.23868661850E+02  0.66569615387E+02  0.71662189814E+02  0.00000000000E+00 0.  1.
          2    1    6    6  502    0 -0.25239111073E+03  0.64048785457E+02 -0.10002886180E+03  0.27894317143E+03  0.00000000000E+00 0. -1.
          1    1    5    5  503    0  0.30596874229E+03  0.59308936646E+01 -0.15108140822E+03  0.34128820470E+03  0.00000000000E+00 0. -1.
         -2    1    5    5    0  503  0.24998142124E+02  0.23361279486E+02 -0.28066346611E+02  0.44253545632E+02  0.00000000000E+00 0.  1.
         -1    1    6    6    0  502 -0.30216610258E+03  0.43777853938E+01 -0.17423495463E+03  0.34882852230E+03  0.00000000000E+00 0.  1.
<mgrwt>
<rscale>  0 0.22783846E+04</rscale>
<asrwt>0</asrwt>
<pdfrwt beam="1">  1        2 0.26801019E+00 0.22783846E+04</pdfrwt>
<pdfrwt beam="2">  1       -2 0.11460830E+00 0.22783846E+04</pdfrwt>
<totfact> 0.50184400E+00</totfact>
</mgrwt>
</event>
<event>
12    1  0.1472088E-007  0.1442763E+04  0.7818608E-02  0.8923433E-01
         -2   -1    0    0    0  501 -0.00000000000E+00  0.00000000000E+00  0.28959141675E+03  0.28959141675E+03  0.00000000000E+00 0. -1.
          2   -1    0    0  501    0  0.00000000000E+00 -0.00000000000E+00 -0.17969842702E+04  0.17969842702E+04  0.00000000000E+00 0.  1.
         23    2    1    2    0    0  0.39074722988E+03  0.15198265426E+03 -0.27612636463E+03  0.51011035409E+03  0.90469217138E+02 0.  0.
        254    2    1    2    0    0 -0.39074722988E+03 -0.15198265426E+03 -0.12312664888E+04  0.15764653329E+04  0.89075454215E+03 0.  0.
        -24    2    4    4    0    0 -0.52644034552E+03  0.13719653776E+03 -0.10848383735E+04  0.12162291760E+04  0.79854771863E+02 0.  0.
         24    2    4    4    0    0  0.13569311564E+03 -0.28917919202E+03 -0.14642811531E+03  0.36023615684E+03  0.79320041692E+02 0.  0.
         11    1    3    3    0    0  0.59065429149E+02  0.36507977653E+01 -0.72558118448E+02  0.93630837856E+02  0.00000000000E+00 0.  1.
        -11    1    3    3    0    0  0.33168180073E+03  0.14833185650E+03 -0.20356824618E+03  0.41647951623E+03  0.00000000000E+00 0. -1.
          4    1    6    6  502    0  0.86007615484E+02 -0.17143657027E+03 -0.44819198199E+02  0.19696844436E+03  0.00000000000E+00 0. -1.
          3    1    5    5  503    0 -0.36650170555E+03  0.83545890212E+02 -0.82254629897E+03  0.90437040524E+03  0.00000000000E+00 0. -1.
         -4    1    5    5    0  503 -0.15993863997E+03  0.53650647545E+02 -0.26229207455E+03  0.31185877078E+03  0.00000000000E+00 0.  1.
         -3    1    6    6    0  502  0.49685500155E+02 -0.11774262175E+03 -0.10160891711E+03  0.16326771248E+03  0.00000000000E+00 0.  1.
<mgrwt>
<rscale>  0 0.14427629E+04</rscale>
<asrwt>0</asrwt>
<pdfrwt beam="1">  1        2 0.27645912E+00 0.14427629E+04</pdfrwt>
<pdfrwt beam="2">  1       -2 0.44552526E-01 0.14427629E+04</pdfrwt>
<totfact> 0.40156441E+01</totfact>
</mgrwt>
</event>
<event>
12    1  0.1472088E-007  0.1779019E+04  0.7818608E-02  0.8717537E-01
         -1   -1    0    0    0  501 -0.00000000000E+00  0.00000000000E+00  0.12759607323E+04  0.12759607323E+04  0.00000000000E+00 0.  1.
          1   -1    0    0  501    0  0.00000000000E+00 -0.00000000000E+00 -0.62010334951E+03  0.62010334951E+03  0.00000000000E+00 0. -1.
         23    2    1    2    0    0  0.58154518192E+03  0.28208030652E+03  0.11946428172E+03  0.66367184750E+03  0.91785121952E+02 0.  0.
        254    2    1    2    0    0 -0.58154518192E+03 -0.28208030652E+03  0.53639310105E+03  0.12323922343E+04  0.90183643879E+03 0.  0.
        -24    2    4    4    0    0 -0.74575826097E+03 -0.57044240735E+02  0.18195358054E+03  0.77413198444E+03  0.82242292382E+02 0.  0.
         24    2    4    4    0    0  0.16421307904E+03 -0.22503606579E+03  0.35443952051E+03  0.45826024985E+03  0.82267348653E+02 0.  0.
         11    1    3    3    0    0  0.20211254163E+03  0.92641163431E+02 -0.26422225412E+01  0.22234847871E+03  0.00000000000E+00 0.  1.
        -11    1    3    3    0    0  0.37943264030E+03  0.18943914309E+03  0.12210650426E+03  0.44132336879E+03  0.00000000000E+00 0. -1.
          4    1    6    6  502    0  0.54860572220E+02 -0.31232905970E+02  0.11633469003E+03  0.13235912097E+03  0.00000000000E+00 0. -1.
          3    1    5    5  503    0 -0.87134867949E+02 -0.20622932530E+02  0.45885637175E+02  0.10061452309E+03  0.00000000000E+00 0. -1.
         -4    1    5    5    0  503 -0.65862339302E+03 -0.36421308205E+02  0.13606794336E+03  0.67351746134E+03  0.00000000000E+00 0.  1.
         -3    1    6    6    0  502  0.10935250682E+03 -0.19380315982E+03  0.23810483048E+03  0.32590112887E+03  0.00000000000E+00 0.  1.
<mgrwt>
<rscale>  0 0.17790194E+04</rscale>
<asrwt>0</asrwt>
<pdfrwt beam="1">  1        1 0.95400515E-01 0.17790194E+04</pdfrwt>
<pdfrwt beam="2">  1       -1 0.19630165E+00 0.17790194E+04</pdfrwt>
<totfact> 0.49257798E+00</totfact>
</mgrwt>
</event>
<event>
12    1  0.1472088E-007  0.1310967E+04  0.7818608E-02  0.9020913E-01
         -2   -1    0    0    0  501 -0.00000000000E+00  0.00000000000E+00  0.18199228293E+03  0.18199228293E+03  0.00000000000E+00 0. -1.
          2   -1    0    0  501    0  0.00000000000E+00 -0.00000000000E+00 -0.23608632555E+04  0.23608632555E+04  0.00000000000E+00 0.  1.
         23    2    1    2    0    0 -0.21415429006E+03  0.23590153322E+03 -0.41386912549E+03  0.53046401863E+03  0.92697511825E+02 0.  0.
        254    2    1    2    0    0  0.21415429006E+03 -0.23590153322E+03 -0.17650018470E+04  0.20123915198E+04  0.91267547103E+03 0.  0.
        -24    2    4    4    0    0 -0.71603522908E+01  0.33545141857E+03 -0.72130302088E+03  0.79949563678E+03  0.79600882085E+02 0.  0.
         24    2    4    4    0    0  0.22131464235E+03 -0.57135295180E+03 -0.10436988262E+04  0.12128958830E+04  0.79905048529E+02 0.  0.
         13    1    3    3    0    0 -0.85925811287E+02  0.57652321159E+02 -0.79708657808E+02  0.13061586929E+03  0.00000000000E+00 0. -1.
        -13    1    3    3    0    0 -0.12822847877E+03  0.17824921206E+03 -0.33416046769E+03  0.39984814934E+03  0.00000000000E+00 0.  1.
          2    1    6    6  502    0  0.65792145381E+02 -0.89692153432E+02 -0.16938588704E+03  0.20264468291E+03  0.00000000000E+00 0. -1.
          3    1    5    5  503    0 -0.21808623988E+02  0.34566019848E+02 -0.57592322824E+02  0.70620828773E+02  0.00000000000E+00 0. -1.
         -4    1    5    5    0  503  0.14648271697E+02  0.30088539872E+03 -0.66371069806E+03  0.72887480800E+03  0.00000000000E+00 0.  1.
         -1    1    6    6    0  502  0.15552249697E+03 -0.48166079836E+03 -0.87431293911E+03  0.10102512001E+04  0.00000000000E+00 0.  1.
<mgrwt>
<rscale>  0 0.13109674E+04</rscale>
<asrwt>0</asrwt>
<pdfrwt beam="1">  1        2 0.36320971E+00 0.13109674E+04</pdfrwt>
<pdfrwt beam="2">  1       -2 0.27998814E-01 0.13109674E+04</pdfrwt>
<totfact> 0.47954263E+01</totfact>
</mgrwt>
</event>
<event>
12    1  0.1472088E-007  0.1863927E+04  0.7818608E-02  0.8673024E-01
          2   -1    0    0  501    0  0.00000000000E+00  0.00000000000E+00  0.55140522414E+03  0.55140522414E+03  0.00000000000E+00 0. -1.
         -2   -1    0    0    0  501 -0.00000000000E+00 -0.00000000000E+00 -0.15751679068E+04  0.15751679068E+04  0.00000000000E+00 0.  1.
         23    2    1    2    0    0 -0.35820835335E+03  0.24531143038E+03  0.24385002458E+03  0.50628786205E+03  0.91507608925E+02 0.  0.
        254    2    1    2    0    0  0.35820835335E+03 -0.24531143038E+03 -0.12676127072E+04  0.16202852689E+04  0.91103866806E+03 0.  0.
        -24    2    4    4    0    0  0.13204406360E+03 -0.56413552741E+03 -0.56828716038E+03  0.81545373849E+03  0.79561139640E+02 0.  0.
         24    2    4    4    0    0  0.22616428975E+03  0.31882409703E+03 -0.69932554684E+03  0.80483153037E+03  0.76801569107E+02 0.  0.
         11    1    3    3    0    0 -0.41276551130E+02  0.15998834650E+02  0.58625710445E+02  0.73462169234E+02  0.00000000000E+00 0.  1.
        -11    1    3    3    0    0 -0.31693180222E+03  0.22931259573E+03  0.18522431413E+03  0.43282569282E+03  0.00000000000E+00 0. -1.
          4    1    6    6  502    0  0.14995191707E+03  0.26611814900E+03 -0.54834837965E+03  0.62768653971E+03  0.00000000000E+00 0. -1.
          3    1    5    5  503    0  0.12355912978E+03 -0.36246340826E+03 -0.37570521982E+03  0.53647086881E+03  0.00000000000E+00 0. -1.
         -4    1    5    5    0  503  0.84849338192E+01 -0.20167211915E+03 -0.19258194056E+03  0.27898286968E+03  0.00000000000E+00 0.  1.
         -3    1    6    6    0  502  0.76212372682E+02  0.52705948035E+02 -0.15097716718E+03  0.17714499067E+03  0.00000000000E+00 0.  1.
<mgrwt>
<rscale>  0 0.18639268E+04</rscale>
<asrwt>0</asrwt>
<pdfrwt beam="1">  1        2 0.84831575E-01 0.18639268E+04</pdfrwt>
<pdfrwt beam="2">  1       -2 0.24233352E+00 0.18639268E+04</pdfrwt>
<totfact> 0.36927051E+00</totfact>
</mgrwt>
</event>
<event>
12    1  0.1472088E-007  0.1673656E+04  0.7818608E-02  0.8776534E-01
          1   -1    0    0  501    0  0.00000000000E+00  0.00000000000E+00  0.40129327116E+03  0.40129327116E+03  0.00000000000E+00 0. -1.
         -1   -1    0    0    0  501 -0.00000000000E+00 -0.00000000000E+00 -0.17450600388E+04  0.17450600388E+04  0.00000000000E+00 0.  1.
         23    2    1    2    0    0 -0.23540864567E+02  0.44515889469E+03 -0.98513492063E+03  0.10850513823E+04  0.90139205959E+02 0.  0.
        254    2    1    2    0    0  0.23540864567E+02 -0.44515889469E+03 -0.35863184699E+03  0.10613019277E+04  0.89388162874E+03 0.  0.
        -24    2    4    4    0    0  0.17912046979E+03 -0.67827216914E+03 -0.22890367227E+03  0.74242063543E+03  0.81573467497E+02 0.  0.
         24    2    4    4    0    0 -0.15557960522E+03  0.23311327445E+03 -0.12972817472E+03  0.31888129226E+03  0.79429635223E+02 0.  0.
         11    1    3    3    0    0  0.30052301209E+01  0.19918667480E+03 -0.33937853115E+03  0.39352528538E+03  0.00000000000E+00 0. -1.
        -11    1    3    3    0    0 -0.26546094688E+02  0.24597221989E+03 -0.64575638948E+03  0.69152609687E+03  0.00000000000E+00 0.  1.
          2    1    6    6  502    0 -0.13303176882E+03  0.14825438016E+03 -0.11453897934E+03  0.22977378123E+03  0.00000000000E+00 0. -1.
          1    1    5    5  503    0  0.10768266922E+03 -0.42203980067E+03 -0.10030243003E+03  0.44696054419E+03  0.00000000000E+00 0. -1.
         -2    1    5    5    0  503  0.71437800573E+02 -0.25623236847E+03 -0.12860124225E+03  0.29546009123E+03  0.00000000000E+00 0.  1.
         -1    1    6    6    0  502 -0.22547836404E+02  0.84858894283E+02 -0.15189195383E+02  0.89107511029E+02  0.00000000000E+00 0.  1.
<mgrwt>
<rscale>  0 0.16736557E+04</rscale>
<asrwt>0</asrwt>
<pdfrwt beam="1">  1        1 0.61737426E-01 0.16736557E+04</pdfrwt>
<pdfrwt beam="2">  1       -1 0.26847077E+00 0.16736557E+04</pdfrwt>
<totfact> 0.30138327E+00</totfact>
</mgrwt>
</event>
<event>
12    1  0.1472088E-007  0.1532629E+04  0.7818608E-02  0.8863040E-01
          2   -1    0    0  501    0  0.00000000000E+00  0.00000000000E+00  0.29548061498E+04  0.29548061498E+04  0.00000000000E+00 0. -1.
         -2   -1    0    0    0  501 -0.00000000000E+00 -0.00000000000E+00 -0.19873988105E+03  0.19873988105E+03  0.00000000000E+00 0.  1.
         23    2    1    2    0    0  0.12900401683E+03 -0.45851226587E+03  0.74232473153E+03  0.88677268937E+03  0.91892661571E+02 0.  0.
        254    2    1    2    0    0 -0.12900401683E+03  0.45851226587E+03  0.20137415373E+04  0.22667733415E+04  0.92532743862E+03 0.  0.
        -24    2    4    4    0    0  0.96309370529E+02  0.67199162071E+03  0.10664484744E+04  0.12668077727E+04  0.81494486952E+02 0.  0.
         24    2    4    4    0    0 -0.22531338736E+03 -0.21347935484E+03  0.94729306291E+03  0.99996556881E+03  0.78914094531E+02 0.  0.
         13    1    3    3    0    0  0.10918143529E+03 -0.30987103736E+03  0.43818745345E+03  0.54767589865E+03  0.00000000000E+00 0. -1.
        -13    1    3    3    0    0  0.19822581540E+02 -0.14864122851E+03  0.30413727808E+03  0.33909679071E+03  0.00000000000E+00 0.  1.
          2    1    6    6  502    0 -0.21328206522E+03 -0.19976902749E+03  0.80293774866E+03  0.85446236424E+03  0.00000000000E+00 0. -1.
          3    1    5    5  503    0  0.59283535362E+02  0.32648402739E+03  0.59300268019E+03  0.67952817191E+03  0.00000000000E+00 0. -1.
         -4    1    5    5    0  503  0.37025835167E+02  0.34550759332E+03  0.47344579417E+03  0.58727960081E+03  0.00000000000E+00 0.  1.
         -1    1    6    6    0  502 -0.12031322137E+02 -0.13710327355E+02  0.14435531425E+03  0.14550320457E+03  0.00000000000E+00 0.  1.
<mgrwt>
<rscale>  0 0.15326289E+04</rscale>
<asrwt>0</asrwt>
<pdfrwt beam="1">  1        2 0.45458553E+00 0.15326289E+04</pdfrwt>
<pdfrwt beam="2">  1       -2 0.30575369E-01 0.15326289E+04</pdfrwt>
<totfact> 0.17836464E+01</totfact>
</mgrwt>
</event>
<event>
12    1  0.1472088E-007  0.1227754E+04  0.7818608E-02  0.9088904E-01
         -1   -1    0    0    0  501 -0.00000000000E+00  0.00000000000E+00  0.25575962806E+03  0.25575962806E+03  0.00000000000E+00 0.  1.
          1   -1    0    0  501    0  0.00000000000E+00 -0.00000000000E+00 -0.14734342903E+04  0.14734342903E+04  0.00000000000E+00 0. -1.
         23    2    1    2    0    0  0.50332269273E+02  0.18354084498E+03 -0.56220581605E+03  0.60034399476E+03  0.90094136005E+02 0.  0.
        254    2    1    2    0    0 -0.50332269273E+02 -0.18354084498E+03 -0.65546884622E+03  0.11288499236E+04  0.89913411826E+03 0.  0.
        -24    2    4    4    0    0  0.26329474907E+03  0.22196011386E+03 -0.98179413201E+02  0.36759038133E+03  0.83024540000E+02 0.  0.
         24    2    4    4    0    0 -0.31362701834E+03 -0.40550095884E+03 -0.55728943302E+03  0.76125954230E+03  0.78432418934E+02 0.  0.
         11    1    3    3    0    0  0.21776083585E+02  0.44909806942E+01 -0.25462732225E+02  0.33804104134E+02  0.00000000000E+00 0.  1.
        -11    1    3    3    0    0  0.28556185688E+02  0.17904986429E+03 -0.53674308382E+03  0.56653989063E+03  0.00000000000E+00 0. -1.
          2    1    6    6  502    0 -0.19104755524E+03 -0.19924074612E+03 -0.25977354885E+03  0.37904925796E+03  0.00000000000E+00 0. -1.
          1    1    5    5  503    0  0.19895846222E+03  0.12643600556E+03 -0.41988658731E+02  0.23944431640E+03  0.00000000000E+00 0. -1.
         -2    1    5    5    0  503  0.64336286842E+02  0.95524108297E+02 -0.56190754470E+02  0.12814606494E+03  0.00000000000E+00 0.  1.
         -1    1    6    6    0  502 -0.12257946310E+03 -0.20626021272E+03 -0.29751588417E+03  0.38221028434E+03  0.00000000000E+00 0.  1.
<mgrwt>
<rscale>  0 0.12277541E+04</rscale>
<asrwt>0</asrwt>
<pdfrwt beam="1">  1        1 0.22668220E+00 0.12277541E+04</pdfrwt>
<pdfrwt beam="2">  1       -1 0.39347634E-01 0.12277541E+04</pdfrwt>
<totfact> 0.42311043E+01</totfact>
</mgrwt>
</event>
<event>
12    1  0.1472088E-007  0.2248242E+04  0.7818608E-02  0.8498613E-01
         -1   -1    0    0    0  501 -0.00000000000E+00  0.00000000000E+00  0.10511837621E+04  0.10511837621E+04  0.00000000000E+00 0.  1.
          1   -1    0    0  501    0  0.00000000000E+00 -0.00000000000E+00 -0.12021188757E+04  0.12021188757E+04  0.00000000000E+00 0. -1.
         23    2    1    2    0    0 -0.34123095973E+03  0.18122318541E+03 -0.92352937437E+03  0.10051247928E+04  0.89938495371E+02 0.  0.
        254    2    1    2    0    0  0.34123095973E+03 -0.18122318541E+03  0.77259426074E+03  0.12481778451E+04  0.90098037179E+03 0.  0.
        -24    2    4    4    0    0 -0.19721614193E+03 -0.71247489126E+02 -0.73319142051E+02  0.23626146159E+03  0.80457257586E+02 0.  0.
         24    2    4    4    0    0  0.53844710166E+03 -0.10997569629E+03  0.84591340279E+03  0.10119163835E+04  0.79908366558E+02 0.  0.
         13    1    3    3    0    0 -0.12264111823E+03  0.28829550088E+02 -0.36856668639E+03  0.38950402970E+03  0.00000000000E+00 0.  1.
        -13    1    3    3    0    0 -0.21858984149E+03  0.15239363532E+03 -0.55496268799E+03  0.61562076309E+03  0.00000000000E+00 0. -1.
          2    1    6    6  502    0  0.64060487240E+02 -0.10300718947E+02  0.15385793449E+03  0.16697938448E+03  0.00000000000E+00 0. -1.
          1    1    5    5  503    0 -0.39088496347E+02 -0.46946043423E+02 -0.39485529392E+02  0.72738906859E+02  0.00000000000E+00 0. -1.
         -2    1    5    5    0  503 -0.15812764558E+03 -0.24301445703E+02 -0.33833612659E+02  0.16352255473E+03  0.00000000000E+00 0.  1.
         -1    1    6    6    0  502  0.47438661442E+03 -0.99674977340E+02  0.69205546830E+03  0.84493699898E+03  0.00000000000E+00 0.  1.
<mgrwt>
<rscale>  0 0.22482418E+04</rscale>
<asrwt>0</asrwt>
<pdfrwt beam="1">  1        1 0.18494136E+00 0.22482418E+04</pdfrwt>
<pdfrwt beam="2">  1       -1 0.16172058E+00 0.22482418E+04</pdfrwt>
<totfact> 0.27419363E+00</totfact>
</mgrwt>
</event>
<event>
12    1  0.1472088E-007  0.1260876E+04  0.7818608E-02  0.9061179E-01
          2   -1    0    0  501    0  0.00000000000E+00  0.00000000000E+00  0.12616784936E+04  0.12616784936E+04  0.00000000000E+00 0.  1.
         -2   -1    0    0    0  501 -0.00000000000E+00 -0.00000000000E+00 -0.31501873229E+03  0.31501873229E+03  0.00000000000E+00 0. -1.
         23    2    1    2    0    0 -0.63014914984E+02  0.29185537348E+03  0.33428206383E+03  0.45433294852E+03  0.74320194891E+02 0.  0.
        254    2    1    2    0    0  0.63014914984E+02 -0.29185537348E+03  0.61237769752E+03  0.11223642774E+04  0.89193311872E+03 0.  0.
        -24    2    4    4    0    0  0.32753339081E+03 -0.29994964356E+03  0.69924360977E+03  0.83216392243E+03  0.79418242380E+02 0.  0.
         24    2    4    4    0    0 -0.26451847583E+03  0.80942700849E+01 -0.86865912251E+02  0.29020035499E+03  0.81455620192E+02 0.  0.
         13    1    3    3    0    0 -0.36815621486E+02  0.15829429040E+03  0.23560069883E+03  0.28621698350E+03  0.00000000000E+00 0.  1.
        -13    1    3    3    0    0 -0.26199293498E+02  0.13356108308E+03  0.98681365008E+02  0.16811596501E+03  0.00000000000E+00 0. -1.
          2    1    6    6  502    0 -0.14763437440E+03  0.29349013394E+02 -0.14797628842E+02  0.15124894350E+03  0.00000000000E+00 0. -1.
          1    1    5    5  503    0  0.13972351028E+02 -0.17765092302E+01  0.49975735793E+02  0.51922603424E+02  0.00000000000E+00 0. -1.
         -2    1    5    5    0  503  0.31356103979E+03 -0.29817313433E+03  0.64926787397E+03  0.78024131901E+03  0.00000000000E+00 0.  1.
         -3    1    6    6    0  502 -0.11688410143E+03 -0.21254743310E+02 -0.72068283409E+02  0.13895141149E+03  0.00000000000E+00 0.  1.
<mgrwt>
<rscale>  0 0.12608765E+04</rscale>
<asrwt>0</asrwt>
<pdfrwt beam="1">  1        2 0.19410438E+00 0.12608765E+04</pdfrwt>
<pdfrwt beam="2">  1       -2 0.48464421E-01 0.12608765E+04</pdfrwt>
<totfact> 0.68972484E+01</totfact>
</mgrwt>
</event>
<event>
12    1  0.1472088E-007  0.2835210E+04  0.7818608E-02  0.8292420E-01
         -1   -1    0    0    0  501 -0.00000000000E+00  0.00000000000E+00  0.12480950055E+04  0.12480950055E+04  0.00000000000E+00 0.  1.
          1   -1    0    0  501    0  0.00000000000E+00 -0.00000000000E+00 -0.16101371596E+04  0.16101371596E+04  0.00000000000E+00 0. -1.
         23    2    1    2    0    0  0.10306516310E+04  0.54608310014E+02 -0.91582875308E+03  0.13828442709E+04  0.91055590117E+02 0.  0.
        254    2    1    2    0    0 -0.10306516310E+04 -0.54608310014E+02  0.55378659895E+03  0.14753878942E+04  0.89714268046E+03 0.  0.
        -24    2    4    4    0    0 -0.93356221345E+03  0.19971374014E+03  0.66697034564E+03  0.11676734466E+04  0.84781197922E+02 0.  0.
         24    2    4    4    0    0 -0.97089417584E+02 -0.25432205015E+03 -0.11318374670E+03  0.30771444761E+03  0.88156454951E+02 0.  0.
         13    1    3    3    0    0  0.78460511245E+03  0.63321980522E+02 -0.73928901225E+03  0.10798903182E+04  0.00000000000E+00 0. -1.
        -13    1    3    3    0    0  0.24604651859E+03 -0.87136705082E+01 -0.17653974083E+03  0.30295395270E+03  0.00000000000E+00 0.  1.
          4    1    6    6  502    0 -0.93190913332E+02 -0.12275204968E+03 -0.52966342859E+02  0.16296639379E+03  0.00000000000E+00 0. -1.
          3    1    5    5  503    0 -0.67202909549E+03  0.14870744824E+03  0.52568876668E+03  0.86607487538E+03  0.00000000000E+00 0. -1.
         -4    1    5    5    0  503 -0.26153311796E+03  0.51006291904E+02  0.14128157897E+03  0.30159857121E+03  0.00000000000E+00 0.  1.
         -3    1    6    6    0  502 -0.38985042521E+01 -0.13157000047E+03 -0.60217403839E+02  0.14474805382E+03  0.00000000000E+00 0.  1.
<mgrwt>
<rscale>  0 0.28352101E+04</rscale>
<asrwt>0</asrwt>
<pdfrwt beam="1">  1        1 0.24771341E+00 0.28352101E+04</pdfrwt>
<pdfrwt beam="2">  1       -1 0.19201461E+00 0.28352101E+04</pdfrwt>
<totfact> 0.81074112E-01</totfact>
</mgrwt>
</event>
<event>
12    1  0.1472088E-007  0.1297936E+04  0.7818608E-02  0.9031203E-01
         -2   -1    0    0    0  501 -0.00000000000E+00  0.00000000000E+00  0.12241079631E+04  0.12241079631E+04  0.00000000000E+00 0.  1.
          2   -1    0    0  501    0  0.00000000000E+00 -0.00000000000E+00 -0.34405427438E+03  0.34405427438E+03  0.00000000000E+00 0. -1.
         23    2    1    2    0    0  0.28754802431E+03 -0.24415080724E+02  0.76403365270E+02  0.31170462585E+03  0.89679078405E+02 0.  0.
        254    2    1    2    0    0 -0.28754802431E+03  0.24415080724E+02  0.80365032341E+03  0.12564576116E+04  0.92171141088E+03 0.  0.
        -24    2    4    4    0    0  0.12199080496E+03 -0.15786736428E+02  0.82318907355E+03  0.83618038283E+03  0.80164856816E+02 0.  0.
         24    2    4    4    0    0 -0.40953882926E+03  0.40201817152E+02 -0.19538750145E+02  0.42027722876E+03  0.83144136760E+02 0.  0.
         11    1    3    3    0    0  0.19338342339E+03 -0.24839758447E+02  0.76712151659E+01  0.19512306267E+03  0.00000000000E+00 0.  1.
        -11    1    3    3    0    0  0.94164600911E+02  0.42467772323E+00  0.68732150104E+02  0.11658156318E+03  0.00000000000E+00 0. -1.
          2    1    6    6  502    0 -0.33759101169E+03  0.28962639457E+02  0.16079924390E+02  0.33921245499E+03  0.00000000000E+00 0. -1.
          1    1    5    5  503    0  0.95840808592E+02 -0.16805906750E+02  0.77719488079E+03  0.78326226886E+03  0.00000000000E+00 0. -1.
         -2    1    5    5    0  503  0.26149996366E+02  0.10191703216E+01  0.45994192766E+02  0.52918113972E+02  0.00000000000E+00 0.  1.
         -1    1    6    6    0  502 -0.71947817578E+02  0.11239177695E+02 -0.35618674535E+02  0.81064773762E+02  0.00000000000E+00 0.  1.
<mgrwt>
<rscale>  0 0.12979362E+04</rscale>
<asrwt>0</asrwt>
<pdfrwt beam="1">  1        2 0.52931427E-01 0.12979362E+04</pdfrwt>
<pdfrwt beam="2">  1       -2 0.18832430E+00 0.12979362E+04</pdfrwt>
<totfact> 0.14674525E+01</totfact>
</mgrwt>
</event>
<event>
12    1  0.1472088E-007  0.1888102E+04  0.7818608E-02  0.8660802E-01
         -1   -1    0    0    0  501 -0.00000000000E+00  0.00000000000E+00  0.70071762641E+03  0.70071762641E+03  0.00000000000E+00 0.  1.
          1   -1    0    0  501    0  0.00000000000E+00 -0.00000000000E+00 -0.12718849896E+04  0.12718849896E+04  0.00000000000E+00 0. -1.
         23    2    1    2    0    0  0.47279023221E+03 -0.14657134144E+03 -0.77407517693E+03  0.92346533842E+03  0.92639569922E+02 0.  0.
        254    2    1    2    0    0 -0.47279023221E+03  0.14657134144E+03  0.20290781369E+03  0.10491372776E+04  0.90249857876E+03 0.  0.
        -24    2    4    4    0    0  0.77831223227E+02 -0.27181310061E+03 -0.69492328223E+02  0.30159438529E+03  0.78676099187E+02 0.  0.
         24    2    4    4    0    0 -0.55062145544E+03  0.41838444205E+03  0.27240014192E+03  0.74754289234E+03  0.79931283230E+02 0.  0.
         11    1    3    3    0    0  0.21376029942E+03 -0.47263272193E+02 -0.26521279821E+03  0.34389694800E+03  0.00000000000E+00 0.  1.
        -11    1    3    3    0    0  0.25902993278E+03 -0.99308069247E+02 -0.50886237872E+03  0.57956839042E+03  0.00000000000E+00 0. -1.
          4    1    6    6  502    0 -0.10553651687E+03  0.83585580107E+02  0.20123665605E+02  0.13612298672E+03  0.00000000000E+00 0. -1.
          1    1    5    5  503    0  0.11588082142E+02 -0.16401833559E+01 -0.13451401329E+02  0.17830144332E+02  0.00000000000E+00 0. -1.
         -2    1    5    5    0  503  0.66243141085E+02 -0.27017291726E+03 -0.56040926894E+02  0.28376424096E+03  0.00000000000E+00 0.  1.
         -3    1    6    6    0  502 -0.44508493857E+03  0.33479886195E+03  0.25227647631E+03  0.61141990563E+03  0.00000000000E+00 0.  1.
<mgrwt>
<rscale>  0 0.18881019E+04</rscale>
<asrwt>0</asrwt>
<pdfrwt beam="1">  1        1 0.19567461E+00 0.18881019E+04</pdfrwt>
<pdfrwt beam="2">  1       -1 0.10780271E+00 0.18881019E+04</pdfrwt>
<totfact> 0.71039202E+00</totfact>
</mgrwt>
</event>
<event>
12    1  0.1472088E-007  0.1746244E+04  0.7818608E-02  0.8735421E-01
          1   -1    0    0  501    0  0.00000000000E+00  0.00000000000E+00  0.84695747185E+03  0.84695747185E+03  0.00000000000E+00 0. -1.
         -1   -1    0    0    0  501 -0.00000000000E+00 -0.00000000000E+00 -0.90009477530E+03  0.90009477530E+03  0.00000000000E+00 0.  1.
         23    2    1    2    0    0 -0.40256941925E+02  0.60444591442E+03  0.18325706512E+03  0.63907486927E+03  0.88645652910E+02 0.  0.
        254    2    1    2    0    0  0.40256941925E+02 -0.60444591442E+03 -0.23639436858E+03  0.11079773779E+04  0.89708198487E+03 0.  0.
        -24    2    4    4    0    0  0.56104862225E+02 -0.64595401132E+02 -0.49189037666E+03  0.50539634124E+03  0.78415544829E+02 0.  0.
         24    2    4    4    0    0 -0.15847920300E+02 -0.53985051329E+03  0.25549600808E+03  0.60258103665E+03  0.78332383505E+02 0.  0.
         11    1    3    3    0    0 -0.46165075615E+02  0.59209460691E+03  0.16524935440E+03  0.61645323170E+03  0.00000000000E+00 0. -1.
        -11    1    3    3    0    0  0.59081336898E+01  0.12351307505E+02  0.18007710722E+02  0.22621637567E+02  0.00000000000E+00 0.  1.
          2    1    6    6  502    0  0.29988097901E+02 -0.29821265683E+03  0.13550706278E+03  0.32892588644E+03  0.00000000000E+00 0. -1.
          3    1    5    5  503    0  0.78656326589E+01 -0.20704589336E+02 -0.33169954872E+03  0.33243817292E+03  0.00000000000E+00 0. -1.
         -4    1    5    5    0  503  0.48239229566E+02 -0.43890811796E+02 -0.16019082794E+03  0.17295816831E+03  0.00000000000E+00 0.  1.
         -1    1    6    6    0  502 -0.45836018201E+02 -0.24163785646E+03  0.11998894531E+03  0.27365515020E+03  0.00000000000E+00 0.  1.
<mgrwt>
<rscale>  0 0.17462440E+04</rscale>
<asrwt>0</asrwt>
<pdfrwt beam="1">  1        1 0.13030115E+00 0.17462440E+04</pdfrwt>
<pdfrwt beam="2">  1       -1 0.13847612E+00 0.17462440E+04</pdfrwt>
<totfact> 0.82383561E+00</totfact>
</mgrwt>
</event>
<event>
12    1  0.1472088E-007  0.2568087E+04  0.7818608E-02  0.8379123E-01
          1   -1    0    0  501    0  0.00000000000E+00  0.00000000000E+00  0.27094080993E+04  0.27094080993E+04  0.00000000000E+00 0. -1.
         -1   -1    0    0    0  501 -0.00000000000E+00 -0.00000000000E+00 -0.60853430668E+03  0.60853430668E+03  0.00000000000E+00 0.  1.
         23    2    1    2    0    0 -0.21009899790E+03 -0.75133937153E+03 -0.12365058518E+03  0.79519095750E+03  0.91579209145E+02 0.  0.
        254    2    1    2    0    0  0.21009899790E+03  0.75133937153E+03  0.22245243778E+04  0.25227514485E+04  0.89839508194E+03 0.  0.
        -24    2    4    4    0    0  0.23256758994E+03 -0.10387447523E+03  0.94088678056E+03  0.97796483592E+03  0.79181411713E+02 0.  0.
         24    2    4    4    0    0 -0.22468592044E+02  0.85521384676E+03  0.12836375972E+04  0.15447866126E+04  0.82125732894E+02 0.  0.
         13    1    3    3    0    0 -0.14842752390E+03 -0.59443734187E+03 -0.62547719027E+02  0.61587230853E+03  0.00000000000E+00 0.  1.
        -13    1    3    3    0    0 -0.61671473995E+02 -0.15690202966E+03 -0.61102866151E+02  0.17931864897E+03  0.00000000000E+00 0. -1.
          4    1    6    6  502    0  0.81517951885E+01  0.12532790476E+03  0.23999410283E+03  0.27087027314E+03  0.00000000000E+00 0. -1.
          3    1    5    5  503    0  0.74513261074E+02 -0.75636412530E+02  0.37240115962E+03  0.38724116086E+03  0.00000000000E+00 0. -1.
         -4    1    5    5    0  503  0.15805432887E+03 -0.28238062696E+02  0.56848562094E+03  0.59072367506E+03  0.00000000000E+00 0.  1.
         -3    1    6    6    0  502 -0.30620387232E+02  0.72988594200E+03  0.10436434944E+04  0.12739163394E+04  0.00000000000E+00 0.  1.
<mgrwt>
<rscale>  0 0.25680871E+04</rscale>
<asrwt>0</asrwt>
<pdfrwt beam="1">  1        1 0.41683201E+00 0.25680871E+04</pdfrwt>
<pdfrwt beam="2">  1       -1 0.93620664E-01 0.25680871E+04</pdfrwt>
<totfact> 0.94412916E-01</totfact>
</mgrwt>
</event>
<event>
12    1  0.1472088E-007  0.1209415E+04  0.7818608E-02  0.9104656E-01
          2   -1    0    0  501    0  0.00000000000E+00  0.00000000000E+00  0.24767454706E+04  0.24767454706E+04  0.00000000000E+00 0. -1.
         -2   -1    0    0    0  501 -0.00000000000E+00 -0.00000000000E+00 -0.14764171192E+03  0.14764171192E+03  0.00000000000E+00 0.  1.
         23    2    1    2    0    0  0.91645873000E+02  0.22006166203E+03  0.70138675259E+03  0.74674315170E+03  0.94105561854E+02 0.  0.
        254    2    1    2    0    0 -0.91645873000E+02 -0.22006166203E+03  0.16277170061E+04  0.18776440308E+04  0.90512891533E+03 0.  0.
        -24    2    4    4    0    0  0.51395258470E+02  0.55350522676E+02  0.15412444174E+04  0.15453088520E+04  0.82703935616E+02 0.  0.
         24    2    4    4    0    0 -0.14304113147E+03 -0.27541218471E+03  0.86472588666E+02  0.33233517878E+03  0.81587533892E+02 0.  0.
         13    1    3    3    0    0  0.58716309670E+02  0.17962937516E+03  0.41990427311E+03  0.46047140630E+03  0.00000000000E+00 0. -1.
        -13    1    3    3    0    0  0.32929563331E+02  0.40432286869E+02  0.28148247948E+03  0.28627174540E+03  0.00000000000E+00 0.  1.
          2    1    6    6  502    0 -0.11233377893E+03 -0.22239049492E+03  0.33604117824E+02  0.25140733254E+03  0.00000000000E+00 0. -1.
          1    1    5    5  503    0  0.38537091381E+02  0.77399399021E+02  0.12014835654E+04  0.12045906078E+04  0.00000000000E+00 0. -1.
         -2    1    5    5    0  503  0.12858167089E+02 -0.22048876345E+02  0.33976085200E+03  0.34071824424E+03  0.00000000000E+00 0.  1.
         -1    1    6    6    0  502 -0.30707352538E+02 -0.53021689785E+02  0.52868470843E+02  0.80927846238E+02  0.00000000000E+00 0.  1.
<mgrwt>
<rscale>  0 0.12094146E+04</rscale>
<asrwt>0</asrwt>
<pdfrwt beam="1">  1        2 0.38103773E+00 0.12094146E+04</pdfrwt>
<pdfrwt beam="2">  1       -2 0.22714111E-01 0.12094146E+04</pdfrwt>
<totfact> 0.60747337E+01</totfact>
</mgrwt>
</event>
<event>
12    1  0.1472088E-007  0.1213794E+04  0.7818608E-02  0.9100867E-01
         -1   -1    0    0    0  501 -0.00000000000E+00  0.00000000000E+00  0.29465171106E+03  0.29465171106E+03  0.00000000000E+00 0.  1.
          1   -1    0    0  501    0  0.00000000000E+00 -0.00000000000E+00 -0.12500322182E+04  0.12500322182E+04  0.00000000000E+00 0. -1.
         23    2    1    2    0    0  0.32856013782E+02 -0.15091256601E+02  0.11127901496E+03  0.14943429473E+03  0.92953351764E+02 0.  0.
        254    2    1    2    0    0 -0.32856013782E+02  0.15091256601E+02 -0.10666595221E+04  0.13952496345E+04  0.89869446580E+03 0.  0.
        -24    2    4    4    0    0 -0.13330270867E+02 -0.43476514152E+03 -0.51833702039E+03  0.68125860324E+03  0.79003755506E+02 0.  0.
         24    2    4    4    0    0 -0.19525742915E+02  0.44985639812E+03 -0.54832250170E+03  0.71399103126E+03  0.79834787438E+02 0.  0.
         13    1    3    3    0    0  0.48947424923E+02 -0.30099135804E+02  0.11360256185E+03  0.12730809260E+03  0.00000000000E+00 0.  1.
        -13    1    3    3    0    0 -0.16091411141E+02  0.15007879202E+02 -0.23235468881E+01  0.22126202133E+02  0.00000000000E+00 0. -1.
          4    1    6    6  502    0 -0.19822708064E+01 -0.27106337680E+01 -0.96669786325E+01  0.10233641036E+02  0.00000000000E+00 0. -1.
          1    1    5    5  503    0 -0.31980144954E+02 -0.93470496713E+02 -0.93825571229E+02  0.13624500447E+03  0.00000000000E+00 0. -1.
         -2    1    5    5    0  503  0.18649874086E+02 -0.34129464481E+03 -0.42451144916E+03  0.54501359877E+03  0.00000000000E+00 0.  1.
         -3    1    6    6    0  502 -0.17543472108E+02  0.45256703189E+03 -0.53865552307E+03  0.70375739023E+03  0.00000000000E+00 0.  1.
<mgrwt>
<rscale>  0 0.12137943E+04</rscale>
<asrwt>0</asrwt>
<pdfrwt beam="1">  1        1 0.19231265E+00 0.12137943E+04</pdfrwt>
<pdfrwt beam="2">  1       -1 0.45331033E-01 0.12137943E+04</pdfrwt>
<totfact> 0.46916336E+01</totfact>
</mgrwt>
</event>
<event>
12    1  0.1472088E-007  0.3188863E+04  0.7818608E-02  0.8191765E-01
         -2   -1    0    0    0  501 -0.00000000000E+00  0.00000000000E+00  0.44361770897E+04  0.44361770897E+04  0.00000000000E+00 0.  1.
          2   -1    0    0  501    0  0.00000000000E+00 -0.00000000000E+00 -0.57306365273E+03  0.57306365273E+03  0.00000000000E+00 0. -1.
         23    2    1    2    0    0 -0.86802421859E+03 -0.43585741854E+03  0.35034818121E+04  0.36367596696E+04  0.90544760231E+02 0.  0.
        254    2    1    2    0    0  0.86802421859E+03  0.43585741854E+03  0.35963162491E+03  0.13724810728E+04  0.90051743810E+03 0.  0.
        -24    2    4    4    0    0  0.92490880574E+02 -0.20584570949E+03 -0.10401777494E+03  0.26116346312E+03  0.80371872316E+02 0.  0.
         24    2    4    4    0    0  0.77553333802E+03  0.64170312803E+03  0.46364939985E+03  0.11113176097E+04  0.82590561203E+02 0.  0.
         11    1    3    3    0    0 -0.34575057789E+03 -0.16880532968E+03  0.15552090746E+04  0.16020967409E+04  0.00000000000E+00 0. -1.
        -11    1    3    3    0    0 -0.52227364070E+03 -0.26705208886E+03  0.19482727375E+04  0.20346629287E+04  0.00000000000E+00 0.  1.
          4    1    6    6  502    0  0.41727632457E+03  0.35914214242E+03  0.29708023313E+03  0.62558714375E+03  0.00000000000E+00 0. -1.
          1    1    5    5  503    0  0.68929113332E+02 -0.18061111160E+03 -0.11499686198E+03  0.22493526749E+03  0.00000000000E+00 0. -1.
         -2    1    5    5    0  503  0.23561767243E+02 -0.25234597894E+02  0.10979087033E+02  0.36228195629E+02  0.00000000000E+00 0.  1.
         -3    1    6    6    0  502  0.35825701345E+03  0.28256098561E+03  0.16656916672E+03  0.48573046597E+03  0.00000000000E+00 0.  1.
<mgrwt>
<rscale>  0 0.31888630E+04</rscale>
<asrwt>0</asrwt>
<pdfrwt beam="1">  1        2 0.88163642E-01 0.31888630E+04</pdfrwt>
<pdfrwt beam="2">  1       -2 0.68248876E+00 0.31888630E+04</pdfrwt>
<totfact> 0.11468620E-02</totfact>
</mgrwt>
</event>
<event>
12    1  0.1472088E-007  0.2098957E+04  0.7818608E-02  0.8561703E-01
         -2   -1    0    0    0  501 -0.00000000000E+00  0.00000000000E+00  0.36944847075E+03  0.36944847075E+03  0.00000000000E+00 0.  1.
          2   -1    0    0  501    0  0.00000000000E+00 -0.00000000000E+00 -0.29812145028E+04  0.29812145028E+04  0.00000000000E+00 0. -1.
         23    2    1    2    0    0  0.46974343544E+03 -0.70656778383E+03 -0.96754493778E+03  0.12901227786E+04  0.91524034338E+02 0.  0.
        254    2    1    2    0    0 -0.46974343544E+03  0.70656778383E+03 -0.16442210942E+04  0.20605401950E+04  0.90689909030E+03 0.  0.
        -24    2    4    4    0    0 -0.15310747841E+03  0.30649640739E+03 -0.14757731100E+04  0.15172176445E+04  0.81615935770E+02 0.  0.
         24    2    4    4    0    0 -0.31663595703E+03  0.40007137644E+03 -0.16844798424E+03  0.54332255043E+03  0.80679829413E+02 0.  0.
         11    1    3    3    0    0  0.43936819786E+02 -0.89384896738E+02 -0.76626590995E+02  0.12566518350E+03  0.00000000000E+00 0.  1.
        -11    1    3    3    0    0  0.42580661566E+03 -0.61718288709E+03 -0.89091834679E+03  0.11644575951E+04  0.00000000000E+00 0. -1.
          4    1    6    6  502    0 -0.95810629827E+02  0.73669464070E+02 -0.21635610077E+02  0.12278015454E+03  0.00000000000E+00 0. -1.
          1    1    5    5  503    0 -0.60951007461E+02  0.20068936507E+03 -0.80054115321E+03  0.82756110623E+03  0.00000000000E+00 0. -1.
         -2    1    5    5    0  503 -0.92156470946E+02  0.10580704232E+03 -0.67523195679E+03  0.68965653829E+03  0.00000000000E+00 0.  1.
         -3    1    6    6    0  502 -0.22082532721E+03  0.32640191237E+03 -0.14681237416E+03  0.42054239589E+03  0.00000000000E+00 0.  1.
<mgrwt>
<rscale>  0 0.20989570E+04</rscale>
<asrwt>0</asrwt>
<pdfrwt beam="1">  1        2 0.45864838E+00 0.20989570E+04</pdfrwt>
<pdfrwt beam="2">  1       -2 0.56838227E-01 0.20989570E+04</pdfrwt>
<totfact> 0.47940198E+00</totfact>
</mgrwt>
</event>
<event>
12    1  0.1472088E-007  0.3456297E+04  0.7818608E-02  0.8124226E-01
         -1   -1    0    0    0  501 -0.00000000000E+00  0.00000000000E+00  0.21427948072E+04  0.21427948072E+04  0.00000000000E+00 0.  1.
          1   -1    0    0  501    0  0.00000000000E+00 -0.00000000000E+00 -0.13937392092E+04  0.13937392092E+04  0.00000000000E+00 0. -1.
         23    2    1    2    0    0  0.64501903080E+03 -0.11681703336E+04  0.12536075806E+04  0.18331680520E+04  0.91113459829E+02 0.  0.
        254    2    1    2    0    0 -0.64501903080E+03  0.11681703336E+04 -0.50455198256E+03  0.17033659643E+04  0.93070480107E+03 0.  0.
        -24    2    4    4    0    0 -0.85660743416E+03  0.76061640551E+03 -0.25628637890E+03  0.11763485797E+04  0.76155501043E+02 0.  0.
         24    2    4    4    0    0  0.21158840336E+03  0.40755392809E+03 -0.24826560366E+03  0.52701738459E+03  0.72399288329E+02 0.  0.
         11    1    3    3    0    0  0.11154680293E+03 -0.18919646064E+03  0.25380206241E+03  0.33563890842E+03  0.00000000000E+00 0.  1.
        -11    1    3    3    0    0  0.53347222787E+03 -0.97897387296E+03  0.99980551816E+03  0.14975291436E+04  0.00000000000E+00 0. -1.
          2    1    6    6  502    0  0.13832195535E+03  0.18859229539E+03 -0.13048534768E+03  0.26781792915E+03  0.00000000000E+00 0. -1.
          1    1    5    5  503    0 -0.50625735706E+03  0.49827212551E+03 -0.16498582170E+03  0.72924066261E+03  0.00000000000E+00 0. -1.
         -2    1    5    5    0  503 -0.35035007710E+03  0.26234428000E+03 -0.91300557194E+02  0.44710791708E+03  0.00000000000E+00 0.  1.
         -1    1    6    6    0  502  0.73266448006E+02  0.21896163270E+03 -0.11778025599E+03  0.25919945544E+03  0.00000000000E+00 0.  1.
<mgrwt>
<rscale>  0 0.34562969E+04</rscale>
<asrwt>0</asrwt>
<pdfrwt beam="1">  1        1 0.21442142E+00 0.34562969E+04</pdfrwt>
<pdfrwt beam="2">  1       -1 0.32966074E+00 0.34562969E+04</pdfrwt>
<totfact> 0.13442901E-01</totfact>
</mgrwt>
</event>
<event>
12    1  0.1472088E-007  0.2340796E+04  0.7818608E-02  0.8462007E-01
         -2   -1    0    0    0  501 -0.00000000000E+00  0.00000000000E+00  0.58130071803E+03  0.58130071803E+03  0.00000000000E+00 0.  1.
          2   -1    0    0  501    0  0.00000000000E+00 -0.00000000000E+00 -0.23564929031E+04  0.23564929031E+04  0.00000000000E+00 0. -1.
         23    2    1    2    0    0 -0.93575944921E+02 -0.24458273294E+03  0.45687704711E+03  0.53440399842E+03  0.90960577344E+02 0.  0.
        254    2    1    2    0    0  0.93575944921E+02  0.24458273294E+03 -0.22320692322E+04  0.24033896227E+04  0.85180481953E+03 0.  0.
        -24    2    4    4    0    0 -0.11357841060E+03 -0.18562176731E+03 -0.17482393347E+03  0.29006101660E+03  0.78844719414E+02 0.  0.
         24    2    4    4    0    0  0.20715435552E+03  0.43020450025E+03 -0.20572452987E+04  0.21133286061E+04  0.76881332619E+02 0.  0.
         13    1    3    3    0    0 -0.46101102580E+02 -0.65821106413E+02  0.21767443852E+03  0.23203424509E+03  0.00000000000E+00 0.  1.
        -13    1    3    3    0    0 -0.47474842342E+02 -0.17876162652E+03  0.23920260859E+03  0.30236975333E+03  0.00000000000E+00 0. -1.
          4    1    6    6  502    0  0.18301052398E+03  0.41842962252E+03 -0.19345785589E+04  0.19877551161E+04  0.00000000000E+00 0. -1.
          1    1    5    5  503    0 -0.11556013901E+03 -0.18255114689E+03 -0.18168225052E+03  0.28228975736E+03  0.00000000000E+00 0. -1.
         -2    1    5    5    0  503  0.19817284031E+01 -0.30706204233E+01  0.68583170531E+01  0.77712592318E+01  0.00000000000E+00 0.  1.
         -3    1    6    6    0  502  0.24143831543E+02  0.11774877727E+02 -0.12266673974E+03  0.12557348998E+03  0.00000000000E+00 0.  1.
<mgrwt>
<rscale>  0 0.23407956E+04</rscale>
<asrwt>0</asrwt>
<pdfrwt beam="1">  1        2 0.36253737E+00 0.23407956E+04</pdfrwt>
<pdfrwt beam="2">  1       -2 0.89430879E-01 0.23407956E+04</pdfrwt>
<totfact> 0.40790505E+00</totfact>
</mgrwt>
</event>
<event>
12    1  0.1472088E-007  0.1417600E+04  0.7818608E-02  0.8941177E-01
          1   -1    0    0  501    0  0.00000000000E+00  0.00000000000E+00  0.65003125523E+03  0.65003125523E+03  0.00000000000E+00 0. -1.
         -1   -1    0    0    0  501 -0.00000000000E+00 -0.00000000000E+00 -0.77288156976E+03  0.77288156976E+03  0.00000000000E+00 0.  1.
         23    2    1    2    0    0 -0.26894001969E+03  0.21378226905E+03  0.18971793700E+03  0.40334306348E+03  0.93065237782E+02 0.  0.
        254    2    1    2    0    0  0.26894001969E+03 -0.21378226905E+03 -0.31256825153E+03  0.10195697615E+04  0.90762987720E+03 0.  0.
        -24    2    4    4    0    0  0.26247461513E+03  0.67342737859E+02 -0.56607647899E+03  0.63266112335E+03  0.79934654544E+02 0.  0.
         24    2    4    4    0    0  0.64654045584E+01 -0.28112500691E+03  0.25350822746E+03  0.38690863817E+03  0.79742096340E+02 0.  0.
         13    1    3    3    0    0 -0.51518080740E+01  0.30276732502E+02  0.10883980964E+01  0.30731193726E+02  0.00000000000E+00 0.  1.
        -13    1    3    3    0    0 -0.26378821162E+03  0.18350553655E+03  0.18862953891E+03  0.37261186975E+03  0.00000000000E+00 0. -1.
          2    1    6    6  502    0  0.17203094210E+02 -0.26041022322E+03  0.25313249603E+03  0.36357322695E+03  0.00000000000E+00 0. -1.
          3    1    5    5  503    0  0.26254918267E+03  0.71346596412E+02 -0.56668272051E+03  0.62861094158E+03  0.00000000000E+00 0. -1.
         -4    1    5    5    0  503 -0.74567537709E-01 -0.40038585526E+01  0.60624151923E+00  0.40501817745E+01  0.00000000000E+00 0.  1.
         -1    1    6    6    0  502 -0.10737689651E+02 -0.20714783689E+02  0.37573142913E+00  0.23335411212E+02  0.00000000000E+00 0.  1.
<mgrwt>
<rscale>  0 0.14175996E+04</rscale>
<asrwt>0</asrwt>
<pdfrwt beam="1">  1        1 0.10000481E+00 0.14175996E+04</pdfrwt>
<pdfrwt beam="2">  1       -1 0.11890486E+00 0.14175996E+04</pdfrwt>
<totfact> 0.18781969E+01</totfact>
</mgrwt>
</event>
<event>
12    1  0.1472088E-007  0.1456529E+04  0.7818608E-02  0.8913887E-01
          2   -1    0    0  501    0  0.00000000000E+00  0.00000000000E+00  0.81627292151E+03  0.81627292151E+03  0.00000000000E+00 0.  1.
         -2   -1    0    0    0  501 -0.00000000000E+00 -0.00000000000E+00 -0.64974500715E+03  0.64974500715E+03  0.00000000000E+00 0. -1.
         23    2    1    2    0    0 -0.25924757360E+03  0.25746724033E+03  0.29248818840E+03  0.47608182089E+03  0.87211671067E+02 0.  0.
        254    2    1    2    0    0  0.25924757360E+03 -0.25746724033E+03 -0.12596027405E+03  0.98993610777E+03  0.91137743145E+03 0.  0.
        -24    2    4    4    0    0 -0.17259564877E+03 -0.45492201045E+03 -0.12570806383E+03  0.50854165038E+03  0.77902498658E+02 0.  0.
         24    2    4    4    0    0  0.43184322237E+03  0.19745477012E+03 -0.25221022293E+00  0.48139445739E+03  0.79142940558E+02 0.  0.
         11    1    3    3    0    0 -0.11915430223E+02  0.15942282632E+02  0.50002093477E+02  0.53817684872E+02  0.00000000000E+00 0.  1.
        -11    1    3    3    0    0 -0.24733214338E+03  0.24152495770E+03  0.24248609493E+03  0.42226413602E+03  0.00000000000E+00 0. -1.
          4    1    6    6  502    0  0.17676493865E+03  0.12298151316E+03  0.87366632741E+01  0.21551479161E+03  0.00000000000E+00 0. -1.
          1    1    5    5  503    0 -0.31563847165E+02 -0.15595013652E+03 -0.67736480627E+02  0.17293048412E+03  0.00000000000E+00 0. -1.
         -2    1    5    5    0  503 -0.14103180161E+03 -0.29897187392E+03 -0.57971583201E+02  0.33561116626E+03  0.00000000000E+00 0.  1.
         -3    1    6    6    0  502  0.25507828372E+03  0.74473256955E+02 -0.89888734970E+01  0.26587966578E+03  0.00000000000E+00 0.  1.
<mgrwt>
<rscale>  0 0.14565291E+04</rscale>
<asrwt>0</asrwt>
<pdfrwt beam="1">  1        2 0.12558045E+00 0.14565291E+04</pdfrwt>
<pdfrwt beam="2">  1       -2 0.99960771E-01 0.14565291E+04</pdfrwt>
<totfact> 0.26877264E+01</totfact>
</mgrwt>
</event>
<event>
12    1  0.1472088E-007  0.2127255E+04  0.7818608E-02  0.8549331E-01
         -2   -1    0    0    0  501 -0.00000000000E+00  0.00000000000E+00  0.11223804789E+04  0.11223804789E+04  0.00000000000E+00 0.  1.
          2   -1    0    0  501    0  0.00000000000E+00 -0.00000000000E+00 -0.10079502815E+04  0.10079502815E+04  0.00000000000E+00 0. -1.
         23    2    1    2    0    0  0.35361540413E+03 -0.79077964141E+03 -0.36466066487E+02  0.87154776731E+03  0.88822527531E+02 0.  0.
        254    2    1    2    0    0 -0.35361540413E+03  0.79077964141E+03  0.15089626390E+03  0.12587829931E+04  0.90077113964E+03 0.  0.
        -24    2    4    4    0    0 -0.13272263810E+03  0.55897006118E+03  0.50859239552E+03  0.77165083087E+03  0.81950912410E+02 0.  0.
         24    2    4    4    0    0 -0.22089276603E+03  0.23180958023E+03 -0.35769613161E+03  0.48713216225E+03  0.82594947524E+02 0.  0.
         11    1    3    3    0    0  0.41669066710E+02 -0.18199955834E+03 -0.10601370922E+02  0.18700946345E+03  0.00000000000E+00 0.  1.
        -11    1    3    3    0    0  0.31194633742E+03 -0.60878008308E+03 -0.25864695565E+02  0.68453830386E+03  0.00000000000E+00 0. -1.
          4    1    6    6  502    0 -0.30453287753E+02  0.11351572810E+02 -0.11050557747E+02  0.34327478304E+02  0.00000000000E+00 0. -1.
          3    1    5    5  503    0 -0.54290493990E+02  0.37575391568E+03  0.30793402006E+03  0.48883721585E+03  0.00000000000E+00 0. -1.
         -4    1    5    5    0  503 -0.78432144108E+02  0.18321614550E+03  0.20065837545E+03  0.28281361502E+03  0.00000000000E+00 0.  1.
         -3    1    6    6    0  502 -0.19043947827E+03  0.22045800742E+03 -0.34664557387E+03  0.45280468395E+03  0.00000000000E+00 0.  1.
<mgrwt>
<rscale>  0 0.21272552E+04</rscale>
<asrwt>0</asrwt>
<pdfrwt beam="1">  1        2 0.15506927E+00 0.21272552E+04</pdfrwt>
<pdfrwt beam="2">  1       -2 0.17267392E+00 0.21272552E+04</pdfrwt>
<totfact> 0.46694720E+00</totfact>
</mgrwt>
</event>
<event>
12    1  0.1472088E-007  0.1636114E+04  0.7818608E-02  0.8798664E-01
          2   -1    0    0  501    0  0.00000000000E+00  0.00000000000E+00  0.27775980158E+04  0.27775980158E+04  0.00000000000E+00 0. -1.
         -2   -1    0    0    0  501 -0.00000000000E+00 -0.00000000000E+00 -0.24093391929E+03  0.24093391929E+03  0.00000000000E+00 0.  1.
         23    2    1    2    0    0  0.26682058744E+03 -0.14008034331E+03  0.29910803208E+01  0.31440096197E+03  0.89572818782E+02 0.  0.
        254    2    1    2    0    0 -0.26682058744E+03  0.14008034331E+03  0.25336730161E+04  0.27041309731E+04  0.89554990836E+03 0.  0.
        -24    2    4    4    0    0  0.11145280223E+03 -0.28033769010E+03  0.48201530505E+03  0.57440691272E+03  0.81200981888E+02 0.  0.
         24    2    4    4    0    0 -0.37827338967E+03  0.42041803341E+03  0.20516577111E+04  0.21297240604E+04  0.81136487779E+02 0.  0.
         13    1    3    3    0    0  0.15247565525E+03 -0.12614184715E+03 -0.11917397687E+02  0.19824887241E+03  0.00000000000E+00 0.  1.
        -13    1    3    3    0    0  0.11434493219E+03 -0.13938496165E+02  0.14908478007E+02  0.11615208956E+03  0.00000000000E+00 0. -1.
          4    1    6    6  502    0 -0.12459209588E+03  0.11755260073E+03  0.75648860818E+03  0.77563961902E+03  0.00000000000E+00 0. -1.
          3    1    5    5  503    0  0.23593712048E+02 -0.53926677144E+02  0.43714074571E+02  0.73318961201E+02  0.00000000000E+00 0. -1.
         -4    1    5    5    0  503  0.87859090185E+02 -0.22641101295E+03  0.43830123048E+03  0.50108795152E+03  0.00000000000E+00 0.  1.
         -3    1    6    6    0  502 -0.25368129379E+03  0.30286543268E+03  0.12951691029E+04  0.13540844413E+04  0.00000000000E+00 0.  1.
<mgrwt>
<rscale>  0 0.16361144E+04</rscale>
<asrwt>0</asrwt>
<pdfrwt beam="1">  1        2 0.42732275E+00 0.16361144E+04</pdfrwt>
<pdfrwt beam="2">  1       -2 0.37066759E-01 0.16361144E+04</pdfrwt>
<totfact> 0.15707867E+01</totfact>
</mgrwt>
</event>
<event>
12    1  0.1472088E-007  0.1538512E+04  0.7818608E-02  0.8859239E-01
          2   -1    0    0  501    0  0.00000000000E+00  0.00000000000E+00  0.35130662350E+03  0.35130662350E+03  0.00000000000E+00 0. -1.
         -2   -1    0    0    0  501 -0.00000000000E+00 -0.00000000000E+00 -0.16844396488E+04  0.16844396488E+04  0.00000000000E+00 0.  1.
         23    2    1    2    0    0  0.27561884116E+03  0.15176230376E+03  0.72376464945E+02  0.33676787996E+03  0.95795145258E+02 0.  0.
        254    2    1    2    0    0 -0.27561884116E+03 -0.15176230376E+03 -0.14055094902E+04  0.16989783923E+04  0.90115099068E+03 0.  0.
        -24    2    4    4    0    0 -0.36956210368E+03  0.75576336935E+02 -0.13867452917E+04  0.14393908766E+04  0.80595661049E+02 0.  0.
         24    2    4    4    0    0  0.93943262522E+02 -0.22733864069E+03 -0.18764198550E+02  0.25958751568E+03  0.80779880068E+02 0.  0.
         13    1    3    3    0    0  0.16565828282E+03  0.53391116703E+02  0.38555478089E+01  0.17409234118E+03  0.00000000000E+00 0.  1.
        -13    1    3    3    0    0  0.10996055833E+03  0.98371187053E+02  0.68520917136E+02  0.16267553878E+03  0.00000000000E+00 0. -1.
          4    1    6    6  502    0  0.78601672854E+02 -0.14331963614E+03  0.22030778529E+02  0.16493664323E+03  0.00000000000E+00 0. -1.
          1    1    5    5  503    0 -0.31212805727E+03  0.59438124511E+02 -0.12578279161E+04  0.12973387689E+04  0.00000000000E+00 0. -1.
         -2    1    5    5    0  503 -0.57434046406E+02  0.16138212424E+02 -0.12891737563E+03  0.14205210779E+03  0.00000000000E+00 0.  1.
         -3    1    6    6    0  502  0.15341589667E+02 -0.84019004554E+02 -0.40794977080E+02  0.94650872446E+02  0.00000000000E+00 0.  1.
<mgrwt>
<rscale>  0 0.15385120E+04</rscale>
<asrwt>0</asrwt>
<pdfrwt beam="1">  1        2 0.54047174E-01 0.15385120E+04</pdfrwt>
<pdfrwt beam="2">  1       -2 0.25914456E+00 0.15385120E+04</pdfrwt>
<totfact> 0.50110463E+00</totfact>
</mgrwt>
</event>
<event>
12    1  0.1472088E-007  0.1153208E+04  0.7818608E-02  0.9154829E-01
         -2   -1    0    0    0  501 -0.00000000000E+00  0.00000000000E+00  0.14774588726E+03  0.14774588726E+03  0.00000000000E+00 0. -1.
          2   -1    0    0  501    0  0.00000000000E+00 -0.00000000000E+00 -0.22502961906E+04  0.22502961906E+04  0.00000000000E+00 0.  1.
         23    2    1    2    0    0 -0.12469351360E+03 -0.14343024049E+03 -0.23102468675E+03  0.31430060991E+03  0.96393782404E+02 0.  0.
        254    2    1    2    0    0  0.12469351360E+03  0.14343024049E+03 -0.18715256166E+04  0.20837414680E+04  0.89624196814E+03 0.  0.
        -24    2    4    4    0    0  0.34876396650E+03 -0.20513621070E+03 -0.13582412092E+04  0.14192363286E+04  0.75467905275E+02 0.  0.
         24    2    4    4    0    0 -0.22407045291E+03  0.34856645118E+03 -0.51328440739E+03  0.66450513936E+03  0.80000366301E+02 0.  0.
         13    1    3    3    0    0  0.52562196630E+01  0.72635916581E+01 -0.30544182132E+02  0.31832918041E+02  0.00000000000E+00 0.  1.
        -13    1    3    3    0    0 -0.12994973326E+03 -0.15069383215E+03 -0.20048050462E+03  0.28246769187E+03  0.00000000000E+00 0. -1.
          4    1    6    6  502    0 -0.43474191609E+01 -0.40902235763E+01 -0.12021419213E+02  0.13421792062E+02  0.00000000000E+00 0. -1.
          1    1    5    5  503    0  0.93045863871E+01 -0.46132728700E+01 -0.10328694235E+03  0.10380775537E+03  0.00000000000E+00 0. -1.
         -2    1    5    5    0  503  0.33945938011E+03 -0.20052293783E+03 -0.12549542669E+04  0.13154285733E+04  0.00000000000E+00 0.  1.
         -3    1    6    6    0  502 -0.21972303375E+03  0.35265667476E+03 -0.50126298818E+03  0.65108334730E+03  0.00000000000E+00 0.  1.
<mgrwt>
<rscale>  0 0.11532077E+04</rscale>
<asrwt>0</asrwt>
<pdfrwt beam="1">  1        2 0.34619941E+00 0.11532077E+04</pdfrwt>
<pdfrwt beam="2">  1       -2 0.22730137E-01 0.11532077E+04</pdfrwt>
<totfact> 0.81876798E+01</totfact>
</mgrwt>
</event>
<event>
12    1  0.1472088E-007  0.2004662E+04  0.7818608E-02  0.8604444E-01
          2   -1    0    0  501    0  0.00000000000E+00  0.00000000000E+00  0.19565655575E+04  0.19565655575E+04  0.00000000000E+00 0. -1.
         -2   -1    0    0    0  501 -0.00000000000E+00 -0.00000000000E+00 -0.51348499628E+03  0.51348499628E+03  0.00000000000E+00 0.  1.
         23    2    1    2    0    0  0.18048171578E+03 -0.16167188749E+03  0.15255924986E+04  0.15474122917E+04  0.91328417885E+02 0.  0.
        254    2    1    2    0    0 -0.18048171578E+03  0.16167188749E+03 -0.82511937326E+02  0.92263826210E+03  0.88642072062E+03 0.  0.
        -24    2    4    4    0    0  0.18690983637E+03 -0.12993354076E+03  0.24586220047E+03  0.34446551225E+03  0.79939074066E+02 0.  0.
         24    2    4    4    0    0 -0.36739155215E+03  0.29160542825E+03 -0.32837413780E+03  0.57817274984E+03  0.80273756075E+02 0.  0.
         11    1    3    3    0    0 -0.85032069008E+01 -0.83571596254E+01  0.14892857890E+03  0.14940504763E+03  0.00000000000E+00 0.  1.
        -11    1    3    3    0    0  0.18898492268E+03 -0.15331472786E+03  0.13766639197E+04  0.13980072441E+04  0.00000000000E+00 0. -1.
          4    1    6    6  502    0 -0.74679284958E+02  0.10313527117E+03 -0.98541929388E+02  0.16101053260E+03  0.00000000000E+00 0. -1.
          1    1    5    5  503    0  0.18659492889E+03 -0.13111252016E+03  0.25103197083E+03  0.33915366843E+03  0.00000000000E+00 0. -1.
         -2    1    5    5    0  503  0.31490747726E+00  0.11789793992E+01 -0.51697703617E+01  0.53118438169E+01  0.00000000000E+00 0.  1.
         -3    1    6    6    0  502 -0.29271226719E+03  0.18847015708E+03 -0.22983220841E+03  0.41716221724E+03  0.00000000000E+00 0.  1.
<mgrwt>
<rscale>  0 0.20046616E+04</rscale>
<asrwt>0</asrwt>
<pdfrwt beam="1">  1        2 0.30101008E+00 0.20046616E+04</pdfrwt>
<pdfrwt beam="2">  1       -2 0.78997693E-01 0.20046616E+04</pdfrwt>
<totfact> 0.93275630E+00</totfact>
</mgrwt>
</event>
<event>
12    1  0.1472088E-007  0.1763092E+04  0.7818608E-02  0.8726177E-01
          2   -1    0    0  501    0  0.00000000000E+00  0.00000000000E+00  0.12213150260E+04  0.12213150260E+04  0.00000000000E+00 0.  1.
         -2   -1    0    0    0  501 -0.00000000000E+00 -0.00000000000E+00 -0.63630039176E+03  0.63630039176E+03  0.00000000000E+00 0. -1.
         23    2    1    2    0    0  0.16043838697E+02 -0.19005604573E+03  0.86723991602E+03  0.89253859484E+03  0.90229518819E+02 0.  0.
        254    2    1    2    0    0 -0.16043838697E+02  0.19005604573E+03 -0.28222528174E+03  0.96507682295E+03  0.90296370872E+03 0.  0.
        -24    2    4    4    0    0 -0.14679265067E+03 -0.14564603523E+03  0.23880321129E+03  0.32689047008E+03  0.84080650794E+02 0.  0.
         24    2    4    4    0    0  0.13074881197E+03  0.33570208097E+03 -0.52102849303E+03  0.63818635287E+03  0.77588603834E+02 0.  0.
         11    1    3    3    0    0  0.40427737313E+02 -0.15432845927E+03  0.56044730575E+03  0.58271164208E+03  0.00000000000E+00 0. -1.
        -11    1    3    3    0    0 -0.24383898616E+02 -0.35727586458E+02  0.30679261027E+03  0.30982695277E+03  0.00000000000E+00 0.  1.
          4    1    6    6  502    0  0.44476929618E+02  0.54698000907E+02 -0.14194567131E+03  0.15848861844E+03  0.00000000000E+00 0. -1.
          3    1    5    5  503    0 -0.67678164031E+02 -0.29117222880E+02  0.41773010102E+02  0.84694338227E+02  0.00000000000E+00 0. -1.
         -4    1    5    5    0  503 -0.79114486634E+02 -0.11652881235E+03  0.19703020119E+03  0.24219613185E+03  0.00000000000E+00 0.  1.
         -3    1    6    6    0  502  0.86271882350E+02  0.28100408006E+03 -0.37908282172E+03  0.47969773443E+03  0.00000000000E+00 0.  1.
<mgrwt>
<rscale>  0 0.17630919E+04</rscale>
<asrwt>0</asrwt>
<pdfrwt beam="1">  1        2 0.18789462E+00 0.17630919E+04</pdfrwt>
<pdfrwt beam="2">  1       -2 0.97892369E-01 0.17630919E+04</pdfrwt>
<totfact> 0.15131061E+01</totfact>
</mgrwt>
</event>
<event>
12    1  0.1472088E-007  0.1723448E+04  0.7818608E-02  0.8748103E-01
         -2   -1    0    0    0  501 -0.00000000000E+00  0.00000000000E+00  0.10201871371E+04  0.10201871371E+04  0.00000000000E+00 0.  1.
          2   -1    0    0  501    0  0.00000000000E+00 -0.00000000000E+00 -0.72787478553E+03  0.72787478553E+03  0.00000000000E+00 0. -1.
         23    2    1    2    0    0  0.43573776040E+03  0.39814560780E+03  0.31063111680E+03  0.67198110303E+03  0.81728766387E+02 0.  0.
        254    2    1    2    0    0 -0.43573776040E+03 -0.39814560780E+03 -0.18318765205E+02  0.10760808196E+04  0.89957047103E+03 0.  0.
        -24    2    4    4    0    0 -0.36398475127E+03 -0.66913477114E+03 -0.99758350171E+02  0.77311371426E+03  0.86757395294E+02 0.  0.
         24    2    4    4    0    0 -0.71753009129E+02  0.27098916334E+03  0.81439584966E+02  0.30296710536E+03  0.81074286718E+02 0.  0.
         11    1    3    3    0    0  0.13223866907E+03  0.14297814924E+03  0.14236921134E+03  0.24124429339E+03  0.00000000000E+00 0. -1.
        -11    1    3    3    0    0  0.30349909134E+03  0.25516745857E+03  0.16826190546E+03  0.43073680964E+03  0.00000000000E+00 0.  1.
          4    1    6    6  502    0 -0.68515662853E+02  0.11502897349E+03  0.20293768862E+02  0.13541749463E+03  0.00000000000E+00 0. -1.
          1    1    5    5  503    0 -0.19573029302E+03 -0.41709458223E+03 -0.27381480486E+02  0.46154954621E+03  0.00000000000E+00 0. -1.
         -2    1    5    5    0  503 -0.16825445825E+03 -0.25204018891E+03 -0.72376869685E+02  0.31156416805E+03  0.00000000000E+00 0.  1.
         -3    1    6    6    0  502 -0.32373462760E+01  0.15596018985E+03  0.61145816104E+02  0.16754961073E+03  0.00000000000E+00 0.  1.
<mgrwt>
<rscale>  0 0.17234483E+04</rscale>
<asrwt>0</asrwt>
<pdfrwt beam="1">  1        2 0.11198074E+00 0.17234483E+04</pdfrwt>
<pdfrwt beam="2">  1       -2 0.15695187E+00 0.17234483E+04</pdfrwt>
<totfact> 0.98204636E+00</totfact>
</mgrwt>
</event>
<event>
12    1  0.1472088E-007  0.1540925E+04  0.7818608E-02  0.8857685E-01
          2   -1    0    0  501    0  0.00000000000E+00  0.00000000000E+00  0.33925611247E+04  0.33925611247E+04  0.00000000000E+00 0.  1.
         -2   -1    0    0    0  501 -0.00000000000E+00 -0.00000000000E+00 -0.17497473926E+03  0.17497473926E+03  0.00000000000E+00 0. -1.
         23    2    1    2    0    0 -0.25912203547E+03 -0.37528271263E+03  0.57433981839E+03  0.73897102481E+03  0.90722681075E+02 0.  0.
        254    2    1    2    0    0  0.25912203547E+03  0.37528271263E+03  0.26432465670E+04  0.28285648391E+04  0.89780025134E+03 0.  0.
        -24    2    4    4    0    0 -0.19902678507E+03 -0.17293908735E+03  0.54704911988E+03  0.61250899344E+03  0.79905809345E+02 0.  0.
         24    2    4    4    0    0  0.45814882055E+03  0.54822179998E+03  0.20961974472E+04  0.22160558457E+04  0.80076775661E+02 0.  0.
         11    1    3    3    0    0 -0.69283246577E+02 -0.81203331268E+02  0.80656281588E+02  0.13378933076E+03  0.00000000000E+00 0.  1.
        -11    1    3    3    0    0 -0.18983878889E+03 -0.29407938136E+03  0.49368353680E+03  0.60518169405E+03  0.00000000000E+00 0. -1.
          4    1    6    6  502    0  0.16419993675E+03  0.21509596725E+03  0.91030751834E+03  0.94967766758E+03  0.00000000000E+00 0. -1.
          3    1    5    5  503    0 -0.10544545760E+03 -0.61905077279E+02  0.17830086194E+03  0.21619939983E+03  0.00000000000E+00 0. -1.
         -4    1    5    5    0  503 -0.93581327478E+02 -0.11103401007E+03  0.36874825795E+03  0.39630959361E+03  0.00000000000E+00 0.  1.
         -3    1    6    6    0  502  0.29394888379E+03  0.33312583273E+03  0.11858899288E+04  0.12663781781E+04  0.00000000000E+00 0.  1.
<mgrwt>
<rscale>  0 0.15409250E+04</rscale>
<asrwt>0</asrwt>
<pdfrwt beam="1">  1        2 0.52193243E+00 0.15409250E+04</pdfrwt>
<pdfrwt beam="2">  1       -2 0.26919193E-01 0.15409250E+04</pdfrwt>
<totfact> 0.11781539E+01</totfact>
</mgrwt>
</event>
<event>
12    1  0.1472088E-007  0.2911580E+04  0.7818608E-02  0.8269441E-01
         -2   -1    0    0    0  501 -0.00000000000E+00  0.00000000000E+00  0.54270727872E+03  0.54270727872E+03  0.00000000000E+00 0. -1.
          2   -1    0    0  501    0  0.00000000000E+00 -0.00000000000E+00 -0.39050960143E+04  0.39050960143E+04  0.00000000000E+00 0.  1.
         23    2    1    2    0    0 -0.10723388364E+04 -0.68809574855E+03 -0.19320371007E+04  0.23161165106E+04  0.90785422039E+02 0.  0.
        254    2    1    2    0    0  0.10723388364E+04  0.68809574855E+03 -0.14303516348E+04  0.21316867824E+04  0.93530551154E+03 0.  0.
        -24    2    4    4    0    0  0.11390491764E+04  0.75152662190E+03 -0.10254595752E+04  0.17089021678E+04  0.80956711812E+02 0.  0.
         24    2    4    4    0    0 -0.66710340038E+02 -0.63430873346E+02 -0.40489205967E+03  0.42278461460E+03  0.79595886833E+02 0.  0.
         13    1    3    3    0    0 -0.10712342641E+04 -0.68029828659E+03 -0.19244549203E+04  0.23051844498E+04  0.00000000000E+00 0.  1.
        -13    1    3    3    0    0 -0.11045722436E+01 -0.77974619598E+01 -0.75821804594E+01  0.10932060802E+02  0.00000000000E+00 0. -1.
          2    1    6    6  502    0 -0.19535641656E+02 -0.69282601997E+02 -0.20343319240E+03  0.21579338267E+03  0.00000000000E+00 0. -1.
          1    1    5    5  503    0  0.26579865302E+03  0.21700022324E+03 -0.26345823637E+03  0.43260636050E+03  0.00000000000E+00 0. -1.
         -2    1    5    5    0  503  0.87325052338E+03  0.53452639866E+03 -0.76200133881E+03  0.12762958073E+04  0.00000000000E+00 0.  1.
         -3    1    6    6    0  502 -0.47174698382E+02  0.58517286511E+01 -0.20145886727E+03  0.20699123193E+03  0.00000000000E+00 0.  1.
<mgrwt>
<rscale>  0 0.29115797E+04</rscale>
<asrwt>0</asrwt>
<pdfrwt beam="1">  1        2 0.60078398E+00 0.29115797E+04</pdfrwt>
<pdfrwt beam="2">  1       -2 0.83493430E-01 0.29115797E+04</pdfrwt>
<totfact> 0.44065165E-01</totfact>
</mgrwt>
</event>
<event>
12    1  0.1472088E-007  0.1676880E+04  0.7818608E-02  0.8774662E-01
         -2   -1    0    0    0  501 -0.00000000000E+00  0.00000000000E+00  0.71676019102E+03  0.71676019102E+03  0.00000000000E+00 0. -1.
          2   -1    0    0  501    0  0.00000000000E+00 -0.00000000000E+00 -0.98077644757E+03  0.98077644757E+03  0.00000000000E+00 0.  1.
         23    2    1    2    0    0  0.14294483872E+03 -0.18704981396E+03 -0.64336888921E+03  0.69130569035E+03  0.92515782933E+02 0.  0.
        254    2    1    2    0    0 -0.14294483872E+03  0.18704981396E+03  0.37935263265E+03  0.10062309482E+04  0.90176019067E+03 0.  0.
        -24    2    4    4    0    0 -0.31327218719E+03  0.26210771311E+03  0.58496550109E+03  0.71778239461E+03  0.78657561597E+02 0.  0.
         24    2    4    4    0    0  0.17032734847E+03 -0.75057899154E+02 -0.20561286844E+03  0.28844855363E+03  0.79251640745E+02 0.  0.
         13    1    3    3    0    0  0.47223328323E+01 -0.68837053014E+01 -0.12624164208E+03  0.12651734277E+03  0.00000000000E+00 0. -1.
        -13    1    3    3    0    0  0.13822250589E+03 -0.18016610865E+03 -0.51712724712E+03  0.56478834758E+03  0.00000000000E+00 0.  1.
          2    1    6    6  502    0  0.61236482100E+02 -0.16264834312E+01 -0.10983788935E+03  0.12576531368E+03  0.00000000000E+00 0. -1.
          3    1    5    5  503    0 -0.12203204785E+02  0.45260918507E+01  0.52402289730E+02  0.53994478268E+02  0.00000000000E+00 0. -1.
         -4    1    5    5    0  503 -0.30106898241E+03  0.25758162126E+03  0.53256321136E+03  0.66378791634E+03  0.00000000000E+00 0.  1.
         -1    1    6    6    0  502  0.10909086637E+03 -0.73431415723E+02 -0.95774979091E+02  0.16268323995E+03  0.00000000000E+00 0.  1.
<mgrwt>
<rscale>  0 0.16768799E+04</rscale>
<asrwt>0</asrwt>
<pdfrwt beam="1">  1        2 0.15088868E+00 0.16768799E+04</pdfrwt>
<pdfrwt beam="2">  1       -2 0.11027080E+00 0.16768799E+04</pdfrwt>
<totfact> 0.16139428E+01</totfact>
</mgrwt>
</event>
<event>
12    1  0.1472088E-007  0.2247562E+04  0.7818608E-02  0.8498888E-01
         -2   -1    0    0    0  501 -0.00000000000E+00  0.00000000000E+00  0.81857281601E+03  0.81857281601E+03  0.00000000000E+00 0.  1.
          2   -1    0    0  501    0  0.00000000000E+00 -0.00000000000E+00 -0.15427876958E+04  0.15427876958E+04  0.00000000000E+00 0. -1.
         23    2    1    2    0    0  0.34482295441E+03  0.97194939059E+02  0.62335537537E+03  0.72530055784E+03  0.95599420181E+02 0.  0.
        254    2    1    2    0    0 -0.34482295441E+03 -0.97194939059E+02 -0.13475702551E+04  0.16360599539E+04  0.85580187797E+03 0.  0.
        -24    2    4    4    0    0 -0.18549742345E+03  0.78307206678E+02 -0.13697279284E+04  0.13865614472E+04  0.76529316097E+02 0.  0.
         24    2    4    4    0    0 -0.15932553095E+03 -0.17550214574E+03  0.22157673293E+02  0.24949850676E+03  0.74651955207E+02 0.  0.
         13    1    3    3    0    0  0.27585555893E+03  0.35814837309E+02  0.45517453735E+03  0.53344432832E+03  0.00000000000E+00 0. -1.
        -13    1    3    3    0    0  0.68967395477E+02  0.61380101750E+02  0.16818083802E+03  0.19185622952E+03  0.00000000000E+00 0.  1.
          2    1    6    6  502    0 -0.10906249381E+03 -0.16384614579E+03  0.14818557097E+02  0.19738231096E+03  0.00000000000E+00 0. -1.
          1    1    5    5  503    0 -0.48405998839E+02  0.34722695928E+02 -0.64157936482E+03  0.64433910924E+03  0.00000000000E+00 0. -1.
         -2    1    5    5    0  503 -0.13709142461E+03  0.43584510750E+02 -0.72814856357E+03  0.74222233793E+03  0.00000000000E+00 0.  1.
         -1    1    6    6    0  502 -0.50263037144E+02 -0.11655999948E+02  0.73391161955E+01  0.52116195796E+02  0.00000000000E+00 0.  1.
<mgrwt>
<rscale>  0 0.22475623E+04</rscale>
<asrwt>0</asrwt>
<pdfrwt beam="1">  1        2 0.23735195E+00 0.22475623E+04</pdfrwt>
<pdfrwt beam="2">  1       -2 0.12593428E+00 0.22475623E+04</pdfrwt>
<totfact> 0.51457986E+00</totfact>
</mgrwt>
</event>
<event>
12    1  0.1472088E-007  0.1379253E+04  0.7818608E-02  0.8968974E-01
          2   -1    0    0  501    0  0.00000000000E+00  0.00000000000E+00  0.29711003201E+04  0.29711003201E+04  0.00000000000E+00 0.  1.
         -2   -1    0    0    0  501 -0.00000000000E+00 -0.00000000000E+00 -0.16007032981E+03  0.16007032981E+03  0.00000000000E+00 0. -1.
         23    2    1    2    0    0 -0.12232979151E+03  0.32501069111E+03  0.40469647510E+03  0.54127382452E+03  0.92744751447E+02 0.  0.
        254    2    1    2    0    0  0.12232979151E+03 -0.32501069111E+03  0.24063335152E+04  0.25898968254E+04  0.89248420302E+03 0.  0.
        -24    2    4    4    0    0  0.29947846801E+03 -0.54301219497E+03  0.19487332747E+04  0.20465244304E+04  0.78430043324E+02 0.  0.
         24    2    4    4    0    0 -0.17714867650E+03  0.21800150385E+03  0.45760024042E+03  0.54337239491E+03  0.83362283141E+02 0.  0.
         13    1    3    3    0    0 -0.88488604524E+02  0.23292107842E+03  0.34785998379E+03  0.42788903962E+03  0.00000000000E+00 0.  1.
        -13    1    3    3    0    0 -0.33841186982E+02  0.92089612692E+02  0.56836491313E+02  0.11338478490E+03  0.00000000000E+00 0. -1.
          2    1    6    6  502    0 -0.90718821989E+02  0.52550422342E+02  0.19164226891E+03  0.21844498342E+03  0.00000000000E+00 0. -1.
          1    1    5    5  503    0  0.37066028295E+02 -0.11432795434E+03  0.31173285221E+03  0.33409900142E+03  0.00000000000E+00 0. -1.
         -2    1    5    5    0  503  0.26241243971E+03 -0.42868424062E+03  0.16370004225E+04  0.17124254290E+04  0.00000000000E+00 0.  1.
         -1    1    6    6    0  502 -0.86429854511E+02  0.16545108151E+03  0.26595797152E+03  0.32492741149E+03  0.00000000000E+00 0.  1.
<mgrwt>
<rscale>  0 0.13792534E+04</rscale>
<asrwt>0</asrwt>
<pdfrwt beam="1">  1        2 0.45709232E+00 0.13792534E+04</pdfrwt>
<pdfrwt beam="2">  1       -2 0.24626207E-01 0.13792534E+04</pdfrwt>
<totfact> 0.26327027E+01</totfact>
</mgrwt>
</event>
<event>
12    1  0.1472088E-007  0.1276112E+04  0.7818608E-02  0.9048726E-01
         -2   -1    0    0    0  501 -0.00000000000E+00  0.00000000000E+00  0.58828488589E+03  0.58828488589E+03  0.00000000000E+00 0.  1.
          2   -1    0    0  501    0  0.00000000000E+00 -0.00000000000E+00 -0.69203741004E+03  0.69203741004E+03  0.00000000000E+00 0. -1.
         23    2    1    2    0    0  0.28843533423E+03  0.11276842822E+03 -0.34721481463E+02  0.32506002245E+03  0.92448777624E+02 0.  0.
        254    2    1    2    0    0 -0.28843533423E+03 -0.11276842822E+03 -0.69031042688E+02  0.95526227348E+03  0.90102667322E+03 0.  0.
        -24    2    4    4    0    0 -0.53152330804E+03  0.14780764892E+03  0.77851660293E+02  0.56278100916E+03  0.79356506931E+02 0.  0.
         24    2    4    4    0    0  0.24308797381E+03 -0.26057607714E+03 -0.14688270298E+03  0.39248126432E+03  0.73995671658E+02 0.  0.
         13    1    3    3    0    0  0.14126610741E+02  0.30539939825E+02 -0.18103984568E+02  0.38209989699E+02  0.00000000000E+00 0. -1.
        -13    1    3    3    0    0  0.27430872349E+03  0.82228488390E+02 -0.16617496894E+02  0.28685003275E+03  0.00000000000E+00 0.  1.
          2    1    6    6  502    0  0.21384699922E+03 -0.22630941912E+03 -0.98959907951E+02  0.32671020131E+03  0.00000000000E+00 0. -1.
          1    1    5    5  503    0 -0.46335162608E+03  0.10399600202E+03  0.80738980524E+02  0.48169355487E+03  0.00000000000E+00 0. -1.
         -2    1    5    5    0  503 -0.68171681960E+02  0.43811646897E+02 -0.28873202316E+01  0.81087454290E+02  0.00000000000E+00 0.  1.
         -1    1    6    6    0  502  0.29240974588E+02 -0.34266658012E+02 -0.47922795029E+02  0.65771063011E+02  0.00000000000E+00 0.  1.
<mgrwt>
<rscale>  0 0.12761115E+04</rscale>
<asrwt>0</asrwt>
<pdfrwt beam="1">  1        2 0.10646729E+00 0.12761115E+04</pdfrwt>
<pdfrwt beam="2">  1       -2 0.90505367E-01 0.12761115E+04</pdfrwt>
<totfact> 0.42593876E+01</totfact>
</mgrwt>
</event>
<event>
12    1  0.1472088E-007  0.2572563E+04  0.7818608E-02  0.8377581E-01
          2   -1    0    0  501    0  0.00000000000E+00  0.00000000000E+00  0.34782463960E+04  0.34782463960E+04  0.00000000000E+00 0. -1.
         -2   -1    0    0    0  501 -0.00000000000E+00 -0.00000000000E+00 -0.47567652724E+03  0.47567652724E+03  0.00000000000E+00 0.  1.
         23    2    1    2    0    0  0.50281244626E+03 -0.30665009010E+03 -0.15694936415E+03  0.61620767404E+03  0.90687158774E+02 0.  0.
        254    2    1    2    0    0 -0.50281244626E+03  0.30665009010E+03  0.31595192329E+04  0.33377152492E+04  0.90051466829E+03 0.  0.
        -24    2    4    4    0    0  0.21150375010E+03  0.15786317049E+03  0.14667648342E+04  0.14926159724E+04  0.82757146426E+02 0.  0.
         24    2    4    4    0    0 -0.71431619636E+03  0.14878691961E+03  0.16927543987E+04  0.18450992768E+04  0.81170876204E+02 0.  0.
         11    1    3    3    0    0  0.48466366720E+03 -0.30853889042E+03 -0.16260243418E+03  0.59710524098E+03  0.00000000000E+00 0.  1.
        -11    1    3    3    0    0  0.18148779066E+02  0.18888003227E+01  0.56530700261E+01  0.19102433064E+02  0.00000000000E+00 0. -1.
          4    1    6    6  502    0 -0.10007471080E+02 -0.65167540338E+01  0.42036331845E+02  0.43699779811E+02  0.00000000000E+00 0. -1.
          3    1    5    5  503    0  0.41885373596E+02  0.56143272365E+02  0.24010177575E+03  0.25011060408E+03  0.00000000000E+00 0. -1.
         -4    1    5    5    0  503  0.16961837650E+03  0.10171989812E+03  0.12266630584E+04  0.12425053683E+04  0.00000000000E+00 0.  1.
         -3    1    6    6    0  502 -0.70430872528E+03  0.15530367364E+03  0.16507180669E+04  0.18013994970E+04  0.00000000000E+00 0.  1.
<mgrwt>
<rscale>  0 0.25725631E+04</rscale>
<asrwt>0</asrwt>
<pdfrwt beam="1">  1        2 0.53511481E+00 0.25725631E+04</pdfrwt>
<pdfrwt beam="2">  1       -2 0.73181006E-01 0.25725631E+04</pdfrwt>
<totfact> 0.12595015E+00</totfact>
</mgrwt>
</event>
<event>
12    1  0.1472088E-007  0.1385586E+04  0.7818608E-02  0.8964319E-01
         -2   -1    0    0    0  501 -0.00000000000E+00  0.00000000000E+00  0.35428320424E+03  0.35428320424E+03  0.00000000000E+00 0. -1.
          2   -1    0    0  501    0  0.00000000000E+00 -0.00000000000E+00 -0.13547406780E+04  0.13547406780E+04  0.00000000000E+00 0.  1.
         23    2    1    2    0    0 -0.30300771531E+03 -0.10636344841E+03 -0.38389076562E+02  0.33562596055E+03  0.89689494909E+02 0.  0.
        254    2    1    2    0    0  0.30300771531E+03  0.10636344841E+03 -0.96206839718E+03  0.13733979217E+04  0.92602342936E+03 0.  0.
        -24    2    4    4    0    0  0.47034565945E+03  0.40682107626E+03 -0.60984703348E+03  0.87476386067E+03  0.81055414696E+02 0.  0.
         24    2    4    4    0    0 -0.16733794413E+03 -0.30045762785E+03 -0.35222136371E+03  0.49863406101E+03  0.79367903258E+02 0.  0.
         11    1    3    3    0    0 -0.17500754991E+03 -0.10047952372E+03  0.21581510039E+00  0.20180144645E+03  0.00000000000E+00 0. -1.
        -11    1    3    3    0    0 -0.12800016540E+03 -0.58839246839E+01 -0.38604891662E+02  0.13382451409E+03  0.00000000000E+00 0.  1.
          4    1    6    6  502    0 -0.12152860110E+03 -0.17949206529E+03 -0.26620694359E+03  0.34329686746E+03  0.00000000000E+00 0. -1.
          3    1    5    5  503    0  0.43473364103E+03  0.39506517261E+03 -0.58898620902E+03  0.83185009687E+03  0.00000000000E+00 0. -1.
         -4    1    5    5    0  503  0.35612018420E+02  0.11755903645E+02 -0.20860824455E+02  0.42913763799E+02  0.00000000000E+00 0.  1.
         -3    1    6    6    0  502 -0.45809343030E+02 -0.12096556255E+03 -0.86014420118E+02  0.15533719355E+03  0.00000000000E+00 0.  1.
<mgrwt>
<rscale>  0 0.13855856E+04</rscale>
<asrwt>0</asrwt>
<pdfrwt beam="1">  1        2 0.20842164E+00 0.13855856E+04</pdfrwt>
<pdfrwt beam="2">  1       -2 0.54505109E-01 0.13855856E+04</pdfrwt>
<totfact> 0.47416783E+01</totfact>
</mgrwt>
</event>
<event>
12    1  0.1472088E-007  0.1691512E+04  0.7818608E-02  0.8766220E-01
         -2   -1    0    0    0  501 -0.00000000000E+00  0.00000000000E+00  0.10715975231E+04  0.10715975231E+04  0.00000000000E+00 0.  1.
          2   -1    0    0  501    0  0.00000000000E+00 -0.00000000000E+00 -0.66751072596E+03  0.66751072596E+03  0.00000000000E+00 0. -1.
         23    2    1    2    0    0 -0.30365818560E+03 -0.48922527649E+03 -0.16685121175E+02  0.58311252748E+03  0.90510560752E+02 0.  0.
        254    2    1    2    0    0  0.30365818560E+03  0.48922527649E+03  0.42077191833E+03  0.11559957216E+04  0.90979527163E+03 0.  0.
        -24    2    4    4    0    0  0.12681652404E+03  0.71729162882E+03  0.44284891520E+03  0.85639771881E+03  0.81927892364E+02 0.  0.
         24    2    4    4    0    0  0.17684166155E+03 -0.22806635234E+03 -0.22076996862E+02  0.29959800279E+03  0.77358484708E+02 0.  0.
         11    1    3    3    0    0 -0.75626944354E+02 -0.61030560444E+02  0.67823560258E+01  0.97417474684E+02  0.00000000000E+00 0.  1.
        -11    1    3    3    0    0 -0.22803124124E+03 -0.42819471604E+03 -0.23467477201E+02  0.48569505280E+03  0.00000000000E+00 0. -1.
          2    1    6    6  502    0  0.91454076627E+02 -0.15614106454E+03 -0.43046089876E+02  0.18600227423E+03  0.00000000000E+00 0. -1.
          3    1    5    5  503    0 -0.17502073752E+01  0.40477853378E+02  0.46217575361E+02  0.61462054247E+02  0.00000000000E+00 0. -1.
         -4    1    5    5    0  503  0.12856673142E+03  0.67681377545E+03  0.39663133984E+03  0.79493566457E+03  0.00000000000E+00 0.  1.
         -1    1    6    6    0  502  0.85387584926E+02 -0.71925287803E+02  0.20969093014E+02  0.11359572856E+03  0.00000000000E+00 0.  1.
<mgrwt>
<rscale>  0 0.16915116E+04</rscale>
<asrwt>0</asrwt>
<pdfrwt beam="1">  1        2 0.10269396E+00 0.16915116E+04</pdfrwt>
<pdfrwt beam="2">  1       -2 0.16486116E+00 0.16915116E+04</pdfrwt>
<totfact> 0.96044944E+00</totfact>
</mgrwt>
</event>
<event>
12    1  0.1472088E-007  0.2449774E+04  0.7818608E-02  0.8421101E-01
         -2   -1    0    0    0  501 -0.00000000000E+00  0.00000000000E+00  0.16027622625E+04  0.16027622625E+04  0.00000000000E+00 0.  1.
          2   -1    0    0  501    0  0.00000000000E+00 -0.00000000000E+00 -0.93610147110E+03  0.93610147110E+03  0.00000000000E+00 0. -1.
         23    2    1    2    0    0 -0.51265873155E+03 -0.85518565197E+03  0.25109234095E+03  0.10325949415E+04  0.95097188053E+02 0.  0.
        254    2    1    2    0    0  0.51265873155E+03  0.85518565197E+03  0.41556845049E+03  0.15062687921E+04  0.10497557157E+04 0.  0.
        -24    2    4    4    0    0  0.77367997827E+03  0.76603582770E+03  0.12811663585E+03  0.10990057521E+04  0.77512403277E+02 0.  0.
         24    2    4    4    0    0 -0.26102124672E+03  0.89149824277E+02  0.28745181464E+03  0.40726304004E+03  0.84586379706E+02 0.  0.
         11    1    3    3    0    0 -0.25178571256E+03 -0.40881077453E+03  0.72317523928E+02  0.48554311723E+03  0.00000000000E+00 0.  1.
        -11    1    3    3    0    0 -0.26087301899E+03 -0.44637487744E+03  0.17877481702E+03  0.54705182428E+03  0.00000000000E+00 0. -1.
          4    1    6    6  502    0 -0.38315098145E+02  0.32475874172E+02  0.18550493239E+02  0.53542972915E+02  0.00000000000E+00 0. -1.
          3    1    5    5  503    0  0.26889953852E+03  0.22658745602E+03  0.64285103062E+02  0.35746525918E+03  0.00000000000E+00 0. -1.
         -4    1    5    5    0  503  0.50478043975E+03  0.53944837167E+03  0.63831532788E+02  0.74154049292E+03  0.00000000000E+00 0.  1.
         -3    1    6    6    0  502 -0.22270614858E+03  0.56673950104E+02  0.26890132140E+03  0.35372006712E+03  0.00000000000E+00 0.  1.
<mgrwt>
<rscale>  0 0.24497740E+04</rscale>
<asrwt>0</asrwt>
<pdfrwt beam="1">  1        2 0.14401561E+00 0.24497740E+04</pdfrwt>
<pdfrwt beam="2">  1       -2 0.24657881E+00 0.24497740E+04</pdfrwt>
<totfact> 0.16750729E+00</totfact>
</mgrwt>
</event>
<event>
12    1  0.1472088E-007  0.1686562E+04  0.7818608E-02  0.8769066E-01
         -1   -1    0    0    0  501 -0.00000000000E+00  0.00000000000E+00  0.10285319847E+04  0.10285319847E+04  0.00000000000E+00 0.  1.
          1   -1    0    0  501    0  0.00000000000E+00 -0.00000000000E+00 -0.69139556680E+03  0.69139556680E+03  0.00000000000E+00 0. -1.
         23    2    1    2    0    0 -0.16223662654E+03  0.27384615242E+03 -0.39801651597E+03  0.51912580947E+03  0.98802939666E+02 0.  0.
        254    2    1    2    0    0  0.16223662654E+03 -0.27384615242E+03  0.73515293388E+03  0.12008017420E+04  0.89451805420E+03 0.  0.
        -24    2    4    4    0    0  0.28848785450E+03 -0.53202115598E+03  0.64934728221E+03  0.89099266162E+03  0.77099141017E+02 0.  0.
         24    2    4    4    0    0 -0.12625122796E+03  0.25817500357E+03  0.85805651674E+02  0.30980908041E+03  0.77623137126E+02 0.  0.
         13    1    3    3    0    0 -0.80091075896E+02  0.14180501566E+03 -0.12645045778E+03  0.20618671436E+03  0.00000000000E+00 0.  1.
        -13    1    3    3    0    0 -0.82145550646E+02  0.13204113675E+03 -0.27156605820E+03  0.31293909511E+03  0.00000000000E+00 0. -1.
          4    1    6    6  502    0 -0.13655827454E+03  0.23681858873E+03  0.84190358222E+02  0.28604059630E+03  0.00000000000E+00 0. -1.
          3    1    5    5  503    0  0.19581325956E+03 -0.39379485540E+03  0.42435749236E+03  0.61114360185E+03  0.00000000000E+00 0. -1.
         -4    1    5    5    0  503  0.92674594938E+02 -0.13822630058E+03  0.22498978984E+03  0.27984905977E+03  0.00000000000E+00 0.  1.
         -3    1    6    6    0  502  0.10307046583E+02  0.21356414836E+02  0.16152934518E+01  0.23768484109E+02  0.00000000000E+00 0.  1.
<mgrwt>
<rscale>  0 0.16865615E+04</rscale>
<asrwt>0</asrwt>
<pdfrwt beam="1">  1        1 0.10636855E+00 0.16865615E+04</pdfrwt>
<pdfrwt beam="2">  1       -1 0.15823569E+00 0.16865615E+04</pdfrwt>
<totfact> 0.79717103E+00</totfact>
</mgrwt>
</event>
<event>
12    1  0.1472088E-007  0.1809622E+04  0.7818608E-02  0.8701199E-01
          2   -1    0    0  501    0  0.00000000000E+00  0.00000000000E+00  0.17106363095E+04  0.17106363095E+04  0.00000000000E+00 0. -1.
         -2   -1    0    0    0  501 -0.00000000000E+00 -0.00000000000E+00 -0.47858375378E+03  0.47858375378E+03  0.00000000000E+00 0.  1.
         23    2    1    2    0    0 -0.30522382305E+03 -0.18584499908E+03 -0.23300151023E+03  0.43589187174E+03  0.89510190709E+02 0.  0.
        254    2    1    2    0    0  0.30522382305E+03  0.18584499908E+03  0.14650540660E+04  0.17533281916E+04  0.89446989064E+03 0.  0.
        -24    2    4    4    0    0  0.63731061620E+02  0.51352470348E+03  0.62178320962E+03  0.81282924251E+03  0.79421334751E+02 0.  0.
         24    2    4    4    0    0  0.24149276143E+03 -0.32767970440E+03  0.84327085636E+03  0.94049894906E+03  0.87976096203E+02 0.  0.
         11    1    3    3    0    0 -0.18758005740E+03 -0.12035070373E+03 -0.19461463528E+03  0.29588076330E+03  0.00000000000E+00 0.  1.
        -11    1    3    3    0    0 -0.11764376565E+03 -0.65494295355E+02 -0.38386874942E+02  0.14001110844E+03  0.00000000000E+00 0. -1.
          4    1    6    6  502    0  0.20312843430E+03 -0.21622537007E+03  0.64243385054E+03  0.70762689591E+03  0.00000000000E+00 0. -1.
          3    1    5    5  503    0  0.31658980331E+02  0.43967552055E+03  0.55094046674E+03  0.70558645984E+03  0.00000000000E+00 0. -1.
         -4    1    5    5    0  503  0.32072081290E+02  0.73849182922E+02  0.70842742878E+02  0.10724278267E+03  0.00000000000E+00 0.  1.
         -3    1    6    6    0  502  0.38364327126E+02 -0.11145433432E+03  0.20083700582E+03  0.23287205316E+03  0.00000000000E+00 0.  1.
<mgrwt>
<rscale>  0 0.18096218E+04</rscale>
<asrwt>0</asrwt>
<pdfrwt beam="1">  1        2 0.26317481E+00 0.18096218E+04</pdfrwt>
<pdfrwt beam="2">  1       -2 0.73628271E-01 0.18096218E+04</pdfrwt>
<totfact> 0.15179243E+01</totfact>
</mgrwt>
</event>
<event>
12    1  0.1472088E-007  0.1702138E+04  0.7818608E-02  0.8760146E-01
          2   -1    0    0  501    0  0.00000000000E+00  0.00000000000E+00  0.25135194992E+04  0.25135194992E+04  0.00000000000E+00 0. -1.
         -2   -1    0    0    0  501 -0.00000000000E+00 -0.00000000000E+00 -0.28816915456E+03  0.28816915456E+03  0.00000000000E+00 0.  1.
         23    2    1    2    0    0  0.33992964936E+03 -0.15620296603E+03  0.72270172845E+01  0.38517934327E+03  0.91429555321E+02 0.  0.
        254    2    1    2    0    0 -0.33992964936E+03  0.15620296603E+03  0.22181233274E+04  0.24165093105E+04  0.88288992474E+03 0.  0.
        -24    2    4    4    0    0 -0.33124596182E+03 -0.75323362677E+02  0.24060525692E+03  0.42387267483E+03  0.79872765239E+02 0.  0.
         24    2    4    4    0    0 -0.86836875485E+01  0.23152632871E+03  0.19775180705E+04  0.19926366357E+04  0.79644180876E+02 0.  0.
         11    1    3    3    0    0  0.27401694685E+02 -0.15680067041E+02  0.27562956387E+02  0.41909831052E+02  0.00000000000E+00 0. -1.
        -11    1    3    3    0    0  0.31252795468E+03 -0.14052289899E+03 -0.20335939102E+02  0.34326951221E+03  0.00000000000E+00 0.  1.
          2    1    6    6  502    0 -0.62539094137E+01  0.19411653576E+03  0.18357645956E+04  0.18460097484E+04  0.00000000000E+00 0. -1.
          3    1    5    5  503    0 -0.24053339671E+03 -0.24461809893E+02  0.14108263689E+03  0.27992678598E+03  0.00000000000E+00 0. -1.
         -4    1    5    5    0  503 -0.90712565102E+02 -0.50861552783E+02  0.99522620037E+02  0.14394588885E+03  0.00000000000E+00 0.  1.
         -1    1    6    6    0  502 -0.24297781348E+01  0.37409792951E+02  0.14175347488E+03  0.14662688727E+03  0.00000000000E+00 0.  1.
<mgrwt>
<rscale>  0 0.17021384E+04</rscale>
<asrwt>0</asrwt>
<pdfrwt beam="1">  1        2 0.38669529E+00 0.17021384E+04</pdfrwt>
<pdfrwt beam="2">  1       -2 0.44333718E-01 0.17021384E+04</pdfrwt>
<totfact> 0.15720273E+01</totfact>
</mgrwt>
</event>
<event>
12    1  0.1472088E-007  0.2118209E+04  0.7818608E-02  0.8553264E-01
         -1   -1    0    0    0  501 -0.00000000000E+00  0.00000000000E+00  0.64617132822E+03  0.64617132822E+03  0.00000000000E+00 0.  1.
          1   -1    0    0  501    0  0.00000000000E+00 -0.00000000000E+00 -0.17359207536E+04  0.17359207536E+04  0.00000000000E+00 0. -1.
         23    2    1    2    0    0 -0.63461307964E+03  0.48902032914E+03 -0.80753181799E+03  0.11410785062E+04  0.89877010701E+02 0.  0.
        254    2    1    2    0    0  0.63461307964E+03 -0.48902032914E+03 -0.28221760735E+03  0.12410135756E+04  0.90476144576E+03 0.  0.
        -24    2    4    4    0    0  0.29947028819E+03  0.24084707524E+03 -0.16224164595E+03  0.42507657365E+03  0.81718875562E+02 0.  0.
         24    2    4    4    0    0  0.33514279146E+03 -0.72986740438E+03 -0.11997596140E+03  0.81593700195E+03  0.79572867139E+02 0.  0.
         11    1    3    3    0    0 -0.15196854375E+02 -0.23911191414E+01 -0.12623029713E+02  0.19899816903E+02  0.00000000000E+00 0.  1.
        -11    1    3    3    0    0 -0.61941622527E+03  0.49141144828E+03 -0.79490878827E+03  0.11211786893E+04  0.00000000000E+00 0. -1.
          4    1    6    6  502    0  0.20017194155E+03 -0.51289492424E+03 -0.10048850433E+03  0.55966771302E+03  0.00000000000E+00 0. -1.
          1    1    5    5  503    0  0.26888352363E+03  0.18707756705E+03 -0.15627201730E+03  0.36292879297E+03  0.00000000000E+00 0. -1.
         -2    1    5    5    0  503  0.30586764560E+02  0.53769508190E+02 -0.59696286456E+01  0.62147780680E+02  0.00000000000E+00 0.  1.
         -3    1    6    6    0  502  0.13497084990E+03 -0.21697248014E+03 -0.19487457074E+02  0.25626928892E+03  0.00000000000E+00 0.  1.
<mgrwt>
<rscale>  0 0.21182089E+04</rscale>
<asrwt>0</asrwt>
<pdfrwt beam="1">  1        1 0.26706473E+00 0.21182089E+04</pdfrwt>
<pdfrwt beam="2">  1       -1 0.99410975E-01 0.21182089E+04</pdfrwt>
<totfact> 0.39954786E+00</totfact>
</mgrwt>
</event>
<event>
12    1  0.1472088E-007  0.1650190E+04  0.7818608E-02  0.8790294E-01
          2   -1    0    0  501    0  0.00000000000E+00  0.00000000000E+00  0.21928363905E+04  0.21928363905E+04  0.00000000000E+00 0.  1.
         -2   -1    0    0    0  501 -0.00000000000E+00 -0.00000000000E+00 -0.31045731254E+03  0.31045731254E+03  0.00000000000E+00 0. -1.
         23    2    1    2    0    0 -0.23084817352E+00  0.25669503765E+03  0.14428688735E+04  0.14700109105E+04  0.11475667890E+03 0.  0.
        254    2    1    2    0    0  0.23084817352E+00 -0.25669503765E+03  0.43951020453E+03  0.10332827926E+04  0.89922839919E+03 0.  0.
        -24    2    4    4    0    0  0.33315822487E+03 -0.26179231106E+03  0.52552183141E+03  0.67973780214E+03  0.79628308055E+02 0.  0.
         24    2    4    4    0    0 -0.33292737670E+03  0.50972734122E+01 -0.86011626879E+02  0.35354499043E+03  0.82033163742E+02 0.  0.
         11    1    3    3    0    0  0.29188586015E+02  0.24780166939E+03  0.12434008335E+04  0.12681889739E+04  0.00000000000E+00 0.  1.
        -11    1    3    3    0    0 -0.29419434189E+02  0.88933682565E+01  0.19946803999E+03  0.20182193658E+03  0.00000000000E+00 0. -1.
          2    1    6    6  502    0 -0.10672665336E+03 -0.23015670634E+02 -0.58739339106E+02  0.12397826257E+03  0.00000000000E+00 0. -1.
          1    1    5    5  503    0  0.13865050151E+03 -0.60705887706E+02  0.18328200349E+03  0.23770035586E+03  0.00000000000E+00 0. -1.
         -2    1    5    5    0  503  0.19450772336E+03 -0.20108642335E+03  0.34223982792E+03  0.44203744629E+03  0.00000000000E+00 0.  1.
         -1    1    6    6    0  502 -0.22620072334E+03  0.28112944047E+02 -0.27272287773E+02  0.22956672786E+03  0.00000000000E+00 0.  1.
<mgrwt>
<rscale>  0 0.16501904E+04</rscale>
<asrwt>0</asrwt>
<pdfrwt beam="1">  1        2 0.33735943E+00 0.16501904E+04</pdfrwt>
<pdfrwt beam="2">  1       -2 0.47762665E-01 0.16501904E+04</pdfrwt>
<totfact> 0.20692258E+01</totfact>
</mgrwt>
</event>
<event>
12    1  0.1472088E-007  0.1561870E+04  0.7818608E-02  0.8844321E-01
         -1   -1    0    0    0  501 -0.00000000000E+00  0.00000000000E+00  0.91723457142E+03  0.91723457142E+03  0.00000000000E+00 0.  1.
          1   -1    0    0  501    0  0.00000000000E+00 -0.00000000000E+00 -0.66488950224E+03  0.66488950224E+03  0.00000000000E+00 0. -1.
         23    2    1    2    0    0 -0.10305597331E+03 -0.42208578437E+03  0.36799535369E+03  0.57679145184E+03  0.92145838602E+02 0.  0.
        254    2    1    2    0    0  0.10305597331E+03  0.42208578437E+03 -0.11565028451E+03  0.10053326218E+04  0.89918949570E+03 0.  0.
        -24    2    4    4    0    0 -0.32365009091E+03  0.27259035807E+02 -0.23289770794E+03  0.40711370743E+03  0.77509947958E+02 0.  0.
         24    2    4    4    0    0  0.42670606422E+03  0.39482674857E+03  0.11724742343E+03  0.59821891439E+03  0.78439050277E+02 0.  0.
         13    1    3    3    0    0 -0.72863149307E+02 -0.39945603092E+03  0.32988176510E+03  0.52315976346E+03  0.00000000000E+00 0.  1.
        -13    1    3    3    0    0 -0.30192823999E+02 -0.22629753457E+02  0.38113588594E+02  0.53631688376E+02  0.00000000000E+00 0. -1.
          4    1    6    6  502    0  0.25415511298E+03  0.23628027595E+03  0.30542855400E+02  0.34836196158E+03  0.00000000000E+00 0. -1.
          3    1    5    5  503    0 -0.26793772285E+03  0.40253858791E+02 -0.16076697607E+03  0.31505081665E+03  0.00000000000E+00 0. -1.
         -4    1    5    5    0  503 -0.55712368060E+02 -0.12994822984E+02 -0.72130731869E+02  0.92062890782E+02  0.00000000000E+00 0.  1.
         -3    1    6    6    0  502  0.17255095124E+03  0.15854647261E+03  0.86704568028E+02  0.24985695281E+03  0.00000000000E+00 0.  1.
<mgrwt>
<rscale>  0 0.15618702E+04</rscale>
<asrwt>0</asrwt>
<pdfrwt beam="1">  1        1 0.10229069E+00 0.15618702E+04</pdfrwt>
<pdfrwt beam="2">  1       -1 0.14111301E+00 0.15618702E+04</pdfrwt>
<totfact> 0.11637127E+01</totfact>
</mgrwt>
</event>
<event>
12    1  0.1472088E-007  0.1492136E+04  0.7818608E-02  0.8889699E-01
         -1   -1    0    0    0  501 -0.00000000000E+00  0.00000000000E+00  0.33589968448E+03  0.33589968448E+03  0.00000000000E+00 0.  1.
          1   -1    0    0  501    0  0.00000000000E+00 -0.00000000000E+00 -0.16570953243E+04  0.16570953243E+04  0.00000000000E+00 0. -1.
         23    2    1    2    0    0 -0.39148280197E+03  0.18720007741E+03 -0.99423643300E+02  0.45449715970E+03  0.91542089256E+02 0.  0.
        254    2    1    2    0    0  0.39148280197E+03 -0.18720007741E+03 -0.12217719965E+04  0.15384978491E+04  0.82821867098E+03 0.  0.
        -24    2    4    4    0    0  0.84047316934E+02 -0.29543110720E+03 -0.51777784206E+02  0.32139486645E+03  0.79184788047E+02 0.  0.
         24    2    4    4    0    0  0.30743548504E+03  0.10823102979E+03 -0.11699942123E+04  0.12171029827E+04  0.78883966860E+02 0.  0.
         11    1    3    3    0    0 -0.22219034770E+03  0.11032621183E+03 -0.10281961414E+03  0.26853732828E+03  0.00000000000E+00 0. -1.
        -11    1    3    3    0    0 -0.16929245428E+03  0.76873865575E+02  0.33959708449E+01  0.18595983142E+03  0.00000000000E+00 0.  1.
          4    1    6    6  502    0  0.75869394865E+02  0.34236330140E-02 -0.19730975118E+03  0.21139371561E+03  0.00000000000E+00 0. -1.
          1    1    5    5  503    0  0.81420649394E+01 -0.14942897141E+03 -0.46677193707E+02  0.15676119141E+03  0.00000000000E+00 0. -1.
         -2    1    5    5    0  503  0.75905251995E+02 -0.14600213579E+03 -0.51005904992E+01  0.16463367504E+03  0.00000000000E+00 0.  1.
         -3    1    6    6    0  502  0.23156609017E+03  0.10822760616E+03 -0.97268446116E+03  0.10057092671E+04  0.00000000000E+00 0.  1.
<mgrwt>
<rscale>  0 0.14921365E+04</rscale>
<asrwt>0</asrwt>
<pdfrwt beam="1">  1        1 0.25493774E+00 0.14921365E+04</pdfrwt>
<pdfrwt beam="2">  1       -1 0.51676874E-01 0.14921365E+04</pdfrwt>
<totfact> 0.18600065E+01</totfact>
</mgrwt>
</event>
<event>
12    1  0.1472088E-007  0.2109797E+04  0.7818608E-02  0.8556940E-01
         -2   -1    0    0    0  501 -0.00000000000E+00  0.00000000000E+00  0.47083320951E+03  0.47083320951E+03  0.00000000000E+00 0.  1.
          2   -1    0    0  501    0  0.00000000000E+00 -0.00000000000E+00 -0.23634925161E+04  0.23634925161E+04  0.00000000000E+00 0. -1.
         23    2    1    2    0    0  0.44251249604E+03  0.52407706924E+03 -0.76969276114E+02  0.69507909273E+03  0.82076744785E+02 0.  0.
        254    2    1    2    0    0 -0.44251249604E+03 -0.52407706924E+03 -0.18156900304E+04  0.21392466329E+04  0.89953976336E+03 0.  0.
        -24    2    4    4    0    0 -0.12774304191E+03 -0.60229759598E+03 -0.54858295760E+03  0.82854502130E+03  0.80392238853E+02 0.  0.
         24    2    4    4    0    0 -0.31476945413E+03  0.78220526743E+02 -0.12671070728E+04  0.13107016116E+04  0.84735591218E+02 0.  0.
         13    1    3    3    0    0  0.21436412460E+03  0.27576512732E+03 -0.38914579296E+00  0.34928288649E+03  0.00000000000E+00 0. -1.
        -13    1    3    3    0    0  0.22814837145E+03  0.24831194191E+03 -0.76580130321E+02  0.34579620624E+03  0.00000000000E+00 0.  1.
          2    1    6    6  502    0 -0.18234167025E+03  0.39072196536E+01 -0.74123849820E+03  0.76334675102E+03  0.00000000000E+00 0. -1.
          3    1    5    5  503    0 -0.43058541498E+02 -0.97166705312E+02 -0.67809647728E+02  0.12606964322E+03  0.00000000000E+00 0. -1.
         -4    1    5    5    0  503 -0.84684500417E+02 -0.50513089067E+03 -0.48077330987E+03  0.70247537808E+03  0.00000000000E+00 0.  1.
         -1    1    6    6    0  502 -0.13242778387E+03  0.74313307089E+02 -0.52586857465E+03  0.54735486054E+03  0.00000000000E+00 0.  1.
<mgrwt>
<rscale>  0 0.21097969E+04</rscale>
<asrwt>0</asrwt>
<pdfrwt beam="1">  1        2 0.36361423E+00 0.21097969E+04</pdfrwt>
<pdfrwt beam="2">  1       -2 0.72435879E-01 0.21097969E+04</pdfrwt>
<totfact> 0.66244448E+00</totfact>
</mgrwt>
</event>
<event>
12    1  0.1472088E-007  0.2082308E+04  0.7818608E-02  0.8569077E-01
         -1   -1    0    0    0  501 -0.00000000000E+00  0.00000000000E+00  0.44508392919E+03  0.44508392919E+03  0.00000000000E+00 0.  1.
          1   -1    0    0  501    0  0.00000000000E+00 -0.00000000000E+00 -0.24354995195E+04  0.24354995195E+04  0.00000000000E+00 0. -1.
         23    2    1    2    0    0  0.83515205214E+03 -0.39386128072E+02 -0.68564512708E+03  0.10852351948E+04  0.92714456639E+02 0.  0.
        254    2    1    2    0    0 -0.83515205214E+03  0.39386128072E+02 -0.13047704633E+04  0.17953482539E+04  0.90654242800E+03 0.  0.
        -24    2    4    4    0    0 -0.69786730215E+02  0.21841232860E+03 -0.85072136149E+03  0.88426264979E+03  0.74963097096E+02 0.  0.
         24    2    4    4    0    0 -0.76536532193E+03 -0.17902620053E+03 -0.45404910177E+03  0.91108560412E+03  0.77986760045E+02 0.  0.
         11    1    3    3    0    0  0.25795941984E+03 -0.20522540371E+02 -0.15940479200E+03  0.30393111829E+03  0.00000000000E+00 0.  1.
        -11    1    3    3    0    0  0.57719263230E+03 -0.18863587701E+02 -0.52624033507E+03  0.78130407651E+03  0.00000000000E+00 0. -1.
          2    1    6    6  502    0 -0.42557163028E+03 -0.69252107766E+02 -0.27738420099E+03  0.51268807465E+03  0.00000000000E+00 0. -1.
          3    1    5    5  503    0 -0.60665950459E+01  0.12568975459E+03 -0.51672068510E+03  0.53182232409E+03  0.00000000000E+00 0. -1.
         -4    1    5    5    0  503 -0.63720135170E+02  0.92722574011E+02 -0.33400067639E+03  0.35244032571E+03  0.00000000000E+00 0.  1.
         -1    1    6    6    0  502 -0.33979369164E+03 -0.10977409276E+03 -0.17666490078E+03  0.39839752947E+03  0.00000000000E+00 0.  1.
<mgrwt>
<rscale>  0 0.20823080E+04</rscale>
<asrwt>0</asrwt>
<pdfrwt beam="1">  1        1 0.37469224E+00 0.20823080E+04</pdfrwt>
<pdfrwt beam="2">  1       -1 0.68474449E-01 0.20823080E+04</pdfrwt>
<totfact> 0.29860817E+00</totfact>
</mgrwt>
</event>
<event>
12    1  0.1472088E-007  0.1718330E+04  0.7818608E-02  0.8750978E-01
         -4   -1    0    0    0  501 -0.00000000000E+00  0.00000000000E+00  0.90348847537E+03  0.90348847537E+03  0.00000000000E+00 0.  1.
          4   -1    0    0  501    0  0.00000000000E+00 -0.00000000000E+00 -0.81701637071E+03  0.81701637071E+03  0.00000000000E+00 0. -1.
         23    2    1    2    0    0 -0.24726988854E+02  0.60700544470E+03  0.92164238162E+02  0.62119545656E+03  0.91227816892E+02 0.  0.
        254    2    1    2    0    0  0.24726988854E+02 -0.60700544470E+03 -0.56921335012E+01  0.10993093895E+04  0.91617776640E+03 0.  0.
        -24    2    4    4    0    0 -0.29325459612E+03 -0.54715573011E+03 -0.26188165060E+03  0.67872122788E+03  0.81870966239E+02 0.  0.
         24    2    4    4    0    0  0.31798158497E+03 -0.59849714592E+02  0.25618951710E+03  0.42058816165E+03  0.81037376098E+02 0.  0.
         13    1    3    3    0    0  0.14207359671E+02  0.26167285176E+03  0.77862291347E+02  0.27338080918E+03  0.00000000000E+00 0.  1.
        -13    1    3    3    0    0 -0.38934348525E+02  0.34533259295E+03  0.14301946815E+02  0.34781464738E+03  0.00000000000E+00 0. -1.
          2    1    6    6  502    0  0.27618345729E+03 -0.25107456359E+02  0.19663489898E+03  0.33996024759E+03  0.00000000000E+00 0. -1.
          3    1    5    5  503    0 -0.24532677933E+03 -0.38116327585E+03 -0.19505207165E+03  0.49347338547E+03  0.00000000000E+00 0. -1.
         -4    1    5    5    0  503 -0.47927816788E+02 -0.16599245426E+03 -0.66829578955E+02  0.18524784241E+03  0.00000000000E+00 0.  1.
         -1    1    6    6    0  502  0.41798127681E+02 -0.34742258233E+02  0.59554618123E+02  0.80627914053E+02  0.00000000000E+00 0.  1.
<mgrwt>
<rscale>  0 0.17183304E+04</rscale>
<asrwt>0</asrwt>
<pdfrwt beam="1">  1        4 0.12569483E+00 0.17183304E+04</pdfrwt>
<pdfrwt beam="2">  1       -4 0.13899823E+00 0.17183304E+04</pdfrwt>
<totfact> 0.32619189E-01</totfact>
</mgrwt>
</event>
<event>
12    1  0.1472088E-007  0.1635841E+04  0.7818608E-02  0.8798827E-01
         -1   -1    0    0    0  501 -0.00000000000E+00  0.00000000000E+00  0.71972255795E+03  0.71972255795E+03  0.00000000000E+00 0.  1.
          1   -1    0    0  501    0  0.00000000000E+00 -0.00000000000E+00 -0.92951685043E+03  0.92951685043E+03  0.00000000000E+00 0. -1.
         23    2    1    2    0    0 -0.49699022881E+03 -0.24647888988E+03 -0.15647625106E+03  0.58366952941E+03  0.91837746731E+02 0.  0.
        254    2    1    2    0    0  0.49699022881E+03  0.24647888988E+03 -0.53318041423E+02  0.10655698790E+04  0.90820990016E+03 0.  0.
        -24    2    4    4    0    0 -0.63204041868E+02 -0.24797282036E+03 -0.15103629656E+03  0.30779029781E+03  0.80234867769E+02 0.  0.
         24    2    4    4    0    0  0.56019427068E+03  0.49445171023E+03  0.97718255133E+02  0.75777958116E+03  0.79880670924E+02 0.  0.
         13    1    3    3    0    0 -0.42941949727E+03 -0.19096150124E+03 -0.10286196993E+03  0.48109041193E+03  0.00000000000E+00 0. -1.
        -13    1    3    3    0    0 -0.67570731542E+02 -0.55517388634E+02 -0.53614281128E+02  0.10257911748E+03  0.00000000000E+00 0.  1.
          2    1    6    6  502    0  0.44234054131E+03  0.42787602049E+03  0.67706508210E+02  0.61913424607E+03  0.00000000000E+00 0. -1.
          3    1    5    5  503    0 -0.51544261634E+02 -0.12696414747E+03 -0.12042838599E+03  0.18242725071E+03  0.00000000000E+00 0. -1.
         -4    1    5    5    0  503 -0.11659780234E+02 -0.12100867289E+03 -0.30607910567E+02  0.12536304710E+03  0.00000000000E+00 0.  1.
         -1    1    6    6    0  502  0.11785372936E+03  0.66575689739E+02  0.30011746923E+02  0.13864533509E+03  0.00000000000E+00 0.  1.
<mgrwt>
<rscale>  0 0.16358414E+04</rscale>
<asrwt>0</asrwt>
<pdfrwt beam="1">  1        1 0.14300259E+00 0.16358414E+04</pdfrwt>
<pdfrwt beam="2">  1       -1 0.11072655E+00 0.16358414E+04</pdfrwt>
<totfact> 0.12378502E+01</totfact>
</mgrwt>
</event>
<event>
12    1  0.1472088E-007  0.2016070E+04  0.7818608E-02  0.8599144E-01
          2   -1    0    0  501    0  0.00000000000E+00  0.00000000000E+00  0.17382484733E+04  0.17382484733E+04  0.00000000000E+00 0.  1.
         -2   -1    0    0    0  501 -0.00000000000E+00 -0.00000000000E+00 -0.58457359815E+03  0.58457359815E+03  0.00000000000E+00 0. -1.
         23    2    1    2    0    0 -0.28214407751E+03  0.62491115413E+02  0.13074351277E+04  0.13421590701E+04  0.92162553454E+02 0.  0.
        254    2    1    2    0    0  0.28214407751E+03 -0.62491115413E+02 -0.15376025261E+03  0.98066300131E+03  0.92441726881E+03 0.  0.
        -24    2    4    4    0    0 -0.28594616586E+03 -0.13787793230E+03 -0.22547269096E+03  0.39739058650E+03  0.79409129740E+02 0.  0.
         24    2    4    4    0    0  0.56809024338E+03  0.75386816887E+02  0.71712438349E+02  0.58327241481E+03  0.81574133655E+02 0.  0.
         13    1    3    3    0    0 -0.27516941721E+03  0.74556425226E+02  0.12802664785E+04  0.13116246127E+04  0.00000000000E+00 0.  1.
        -13    1    3    3    0    0 -0.69746603016E+01 -0.12065309812E+02  0.27168649262E+02  0.30534457420E+02  0.00000000000E+00 0. -1.
          4    1    6    6  502    0  0.18637666812E+03  0.11637371653E+02  0.59828692819E+02  0.19608968184E+03  0.00000000000E+00 0. -1.
          3    1    5    5  503    0 -0.23721495392E+03 -0.13542881366E+03 -0.21468071703E+03  0.34741863537E+03  0.00000000000E+00 0. -1.
         -4    1    5    5    0  503 -0.48731211940E+02 -0.24491186408E+01 -0.10791973926E+02  0.49971951137E+02  0.00000000000E+00 0.  1.
         -3    1    6    6    0  502  0.38171357526E+03  0.63749445234E+02  0.11883745530E+02  0.38718273297E+03  0.00000000000E+00 0.  1.
<mgrwt>
<rscale>  0 0.20160696E+04</rscale>
<asrwt>0</asrwt>
<pdfrwt beam="1">  1        2 0.26742284E+00 0.20160696E+04</pdfrwt>
<pdfrwt beam="2">  1       -2 0.89934400E-01 0.20160696E+04</pdfrwt>
<totfact> 0.91717881E+00</totfact>
</mgrwt>
</event>
<event>
12    1  0.1472088E-007  0.1537339E+04  0.7818608E-02  0.8859996E-01
         -1   -1    0    0    0  501 -0.00000000000E+00  0.00000000000E+00  0.16176065585E+04  0.16176065585E+04  0.00000000000E+00 0.  1.
          1   -1    0    0  501    0  0.00000000000E+00 -0.00000000000E+00 -0.36526360255E+03  0.36526360255E+03  0.00000000000E+00 0. -1.
         23    2    1    2    0    0  0.29388421209E+03 -0.37729379743E+03  0.22978622379E+03  0.53840400514E+03  0.91425512904E+02 0.  0.
        254    2    1    2    0    0 -0.29388421209E+03  0.37729379743E+03  0.10225567321E+04  0.14444661559E+04  0.90118902867E+03 0.  0.
        -24    2    4    4    0    0 -0.13448044171E+03  0.65719837914E+03  0.78950191404E+03  0.10391064713E+04  0.80214012072E+02 0.  0.
         24    2    4    4    0    0 -0.15940377038E+03 -0.27990458172E+03  0.23305481811E+03  0.40535968457E+03  0.79030302778E+02 0.  0.
         11    1    3    3    0    0 -0.48722173049E+01 -0.22567184781E+02  0.12463292092E+02  0.26236424684E+02  0.00000000000E+00 0.  1.
        -11    1    3    3    0    0  0.29875642940E+03 -0.35472661265E+03  0.21732293170E+03  0.51216758046E+03  0.00000000000E+00 0. -1.
          2    1    6    6  502    0 -0.13576007125E+03 -0.17905286523E+03  0.13178672203E+03  0.26049657502E+03  0.00000000000E+00 0. -1.
          1    1    5    5  503    0 -0.10070646879E+01  0.74341356019E+02  0.12273432309E+03  0.14349691794E+03  0.00000000000E+00 0. -1.
         -2    1    5    5    0  503 -0.13347337703E+03  0.58285702312E+03  0.66676759095E+03  0.89560955339E+03  0.00000000000E+00 0.  1.
         -1    1    6    6    0  502 -0.23643699128E+02 -0.10085171649E+03  0.10126809607E+03  0.14486310955E+03  0.00000000000E+00 0.  1.
<mgrwt>
<rscale>  0 0.15373390E+04</rscale>
<asrwt>0</asrwt>
<pdfrwt beam="1">  1        1 0.56194401E-01 0.15373390E+04</pdfrwt>
<pdfrwt beam="2">  1       -1 0.24886254E+00 0.15373390E+04</pdfrwt>
<totfact> 0.46325833E+00</totfact>
</mgrwt>
</event>
<event>
12    1  0.1472088E-007  0.1160871E+04  0.7818608E-02  0.9147813E-01
         -1   -1    0    0    0  501 -0.00000000000E+00  0.00000000000E+00  0.26855280420E+03  0.26855280420E+03  0.00000000000E+00 0. -1.
          1   -1    0    0  501    0  0.00000000000E+00 -0.00000000000E+00 -0.12545220566E+04  0.12545220566E+04  0.00000000000E+00 0.  1.
         23    2    1    2    0    0  0.96566508055E+02 -0.10940866334E+03 -0.40405520338E+03  0.43900866860E+03  0.90402752363E+02 0.  0.
        254    2    1    2    0    0 -0.96566508055E+02  0.10940866334E+03 -0.58191404902E+03  0.10840661922E+04  0.90292868075E+03 0.  0.
        -24    2    4    4    0    0  0.36460878826E+03  0.10758606269E+03 -0.45764788758E+03  0.59984132334E+03  0.76509442662E+02 0.  0.
         24    2    4    4    0    0 -0.46117529632E+03  0.18226006421E+01 -0.12426616144E+03  0.48422486885E+03  0.79659707050E+02 0.  0.
         11    1    3    3    0    0  0.52402986193E+02 -0.82135402513E+02 -0.35301171396E+03  0.36620973158E+03  0.00000000000E+00 0.  1.
        -11    1    3    3    0    0  0.44163521862E+02 -0.27273260823E+02 -0.51043489414E+02  0.72798937017E+02  0.00000000000E+00 0. -1.
          2    1    6    6  502    0 -0.20197562756E+02 -0.12995364872E+01 -0.25064688581E+02  0.32215973523E+02  0.00000000000E+00 0. -1.
          3    1    5    5  503    0  0.37588755741E+02  0.45690792017E+01 -0.16970319193E+02  0.41494370418E+02  0.00000000000E+00 0. -1.
         -4    1    5    5    0  503  0.32702003252E+03  0.10301698349E+03 -0.44067756839E+03  0.55834695292E+03  0.00000000000E+00 0.  1.
         -1    1    6    6    0  502 -0.44097773356E+03  0.31221371293E+01 -0.99201472856E+02  0.45200889533E+03  0.00000000000E+00 0.  1.
<mgrwt>
<rscale>  0 0.11608711E+04</rscale>
<asrwt>0</asrwt>
<pdfrwt beam="1">  1        1 0.19300340E+00 0.11608711E+04</pdfrwt>
<pdfrwt beam="2">  1       -1 0.41315815E-01 0.11608711E+04</pdfrwt>
<totfact> 0.55521166E+01</totfact>
</mgrwt>
</event>
<event>
12    1  0.1472088E-007  0.1180499E+04  0.7818608E-02  0.9130099E-01
         -2   -1    0    0    0  501 -0.00000000000E+00  0.00000000000E+00  0.44040045766E+03  0.44040045766E+03  0.00000000000E+00 0.  1.
          2   -1    0    0  501    0  0.00000000000E+00 -0.00000000000E+00 -0.79108512312E+03  0.79108512312E+03  0.00000000000E+00 0. -1.
         23    2    1    2    0    0  0.21578527002E+03 -0.31854243130E+01  0.14906899438E+02  0.23439286015E+03  0.90246149803E+02 0.  0.
        254    2    1    2    0    0 -0.21578527002E+03  0.31854243130E+01 -0.36559156490E+03  0.99709272063E+03  0.90219913075E+03 0.  0.
        -24    2    4    4    0    0 -0.79388252866E+02 -0.29416699525E+03 -0.53452724169E+03  0.62028425651E+03  0.78717666304E+02 0.  0.
         24    2    4    4    0    0 -0.13639701715E+03  0.29735241956E+03  0.16893567679E+03  0.37680846412E+03  0.80142049088E+02 0.  0.
         13    1    3    3    0    0  0.48338171956E+02  0.26178032647E+02 -0.24021047460E+02  0.59990657459E+02  0.00000000000E+00 0. -1.
        -13    1    3    3    0    0  0.16744709806E+03 -0.29363456960E+02  0.38927946899E+02  0.17440220269E+03  0.00000000000E+00 0.  1.
          4    1    6    6  502    0 -0.54380445414E+02  0.20681829417E+03  0.94856642509E+02  0.23394192073E+03  0.00000000000E+00 0. -1.
          1    1    5    5  503    0 -0.84243303041E+02 -0.29269453277E+03 -0.50056887460E+03  0.58594899252E+03  0.00000000000E+00 0. -1.
         -2    1    5    5    0  503  0.48550501754E+01 -0.14724624719E+01 -0.33958367088E+02  0.34335263990E+02  0.00000000000E+00 0.  1.
         -3    1    6    6    0  502 -0.82016571737E+02  0.90534125393E+02  0.74079034278E+02  0.14286654339E+03  0.00000000000E+00 0.  1.
<mgrwt>
<rscale>  0 0.11804986E+04</rscale>
<asrwt>0</asrwt>
<pdfrwt beam="1">  1        2 0.12170540E+00 0.11804986E+04</pdfrwt>
<pdfrwt beam="2">  1       -2 0.67753917E-01 0.11804986E+04</pdfrwt>
<totfact> 0.68972562E+01</totfact>
</mgrwt>
</event>
<event>
12    1  0.1472088E-007  0.1498814E+04  0.7818608E-02  0.8885242E-01
          2   -1    0    0  501    0  0.00000000000E+00  0.00000000000E+00  0.69717820427E+03  0.69717820427E+03  0.00000000000E+00 0.  1.
         -2   -1    0    0    0  501 -0.00000000000E+00 -0.00000000000E+00 -0.80554900240E+03  0.80554900240E+03  0.00000000000E+00 0. -1.
         23    2    1    2    0    0  0.43869486528E+03 -0.13303126521E+03 -0.16872818648E+03  0.49496006943E+03  0.79785757352E+02 0.  0.
        254    2    1    2    0    0 -0.43869486528E+03  0.13303126521E+03  0.60357388351E+02  0.10077671372E+04  0.89543346275E+03 0.  0.
        -24    2    4    4    0    0  0.11606231731E+03  0.31954658334E+03  0.19744847387E+03  0.40136436505E+03  0.80789685436E+02 0.  0.
         24    2    4    4    0    0 -0.55475718259E+03 -0.18651531813E+03 -0.13709108552E+03  0.60640277219E+03  0.79917838133E+02 0.  0.
         13    1    3    3    0    0  0.17544529268E+03 -0.37640588359E+02 -0.28082931071E+02  0.18162190296E+03  0.00000000000E+00 0. -1.
        -13    1    3    3    0    0  0.26324957260E+03 -0.95390676848E+02 -0.14064525541E+03  0.31333816648E+03  0.00000000000E+00 0.  1.
          2    1    6    6  502    0 -0.48900736608E+03 -0.18246390818E+03 -0.14024283809E+03  0.54045289851E+03  0.00000000000E+00 0. -1.
          3    1    5    5  503    0  0.12498723479E+03  0.28508821674E+03  0.19094155426E+03  0.36517910308E+03  0.00000000000E+00 0. -1.
         -4    1    5    5    0  503 -0.89249174818E+01  0.34458366601E+02  0.65069196157E+01  0.36185261969E+02  0.00000000000E+00 0.  1.
         -1    1    6    6    0  502 -0.65749816510E+02 -0.40514099471E+01  0.31517525721E+01  0.65949873677E+02  0.00000000000E+00 0.  1.
<mgrwt>
<rscale>  0 0.14988145E+04</rscale>
<asrwt>0</asrwt>
<pdfrwt beam="1">  1        2 0.10725819E+00 0.14988145E+04</pdfrwt>
<pdfrwt beam="2">  1       -2 0.12393062E+00 0.14988145E+04</pdfrwt>
<totfact> 0.19492839E+01</totfact>
</mgrwt>
</event>
<event>
12    1  0.1472088E-007  0.1676496E+04  0.7818608E-02  0.8774884E-01
         -1   -1    0    0    0  501 -0.00000000000E+00  0.00000000000E+00  0.45945944666E+03  0.45945944666E+03  0.00000000000E+00 0.  1.
          1   -1    0    0  501    0  0.00000000000E+00 -0.00000000000E+00 -0.15293186275E+04  0.15293186275E+04  0.00000000000E+00 0. -1.
         23    2    1    2    0    0  0.42373506859E+03 -0.41060680203E+03 -0.31499154332E+03  0.67487194425E+03  0.89906143017E+02 0.  0.
        254    2    1    2    0    0 -0.42373506859E+03  0.41060680203E+03 -0.75486763756E+03  0.13139061300E+04  0.89909666547E+03 0.  0.
        -24    2    4    4    0    0 -0.29456032927E+03  0.22779330877E+03 -0.93881919139E+03  0.10131916155E+04  0.80747733970E+02 0.  0.
         24    2    4    4    0    0 -0.12917473932E+03  0.18281349325E+03  0.18395155383E+03  0.30071451443E+03  0.80524272349E+02 0.  0.
         11    1    3    3    0    0 -0.22268800945E+01 -0.18437201208E+01 -0.99394025800E+01  0.10351329503E+02  0.00000000000E+00 0.  1.
        -11    1    3    3    0    0  0.42596194869E+03 -0.40876308190E+03 -0.30505214074E+03  0.66452061475E+03  0.00000000000E+00 0. -1.
          2    1    6    6  502    0 -0.71308468234E+01 -0.70202781986E+01  0.74889790920E+00  0.10034646505E+02  0.00000000000E+00 0. -1.
          3    1    5    5  503    0 -0.58773529281E+02  0.86434471211E+02 -0.30160385564E+03  0.31920233598E+03  0.00000000000E+00 0. -1.
         -4    1    5    5    0  503 -0.23578679999E+03  0.14135883756E+03 -0.63721533575E+03  0.69398927955E+03  0.00000000000E+00 0.  1.
         -1    1    6    6    0  502 -0.12204389250E+03  0.18983377145E+03  0.18320265592E+03  0.29067986792E+03  0.00000000000E+00 0.  1.
<mgrwt>
<rscale>  0 0.16764962E+04</rscale>
<asrwt>0</asrwt>
<pdfrwt beam="1">  1        1 0.23527979E+00 0.16764962E+04</pdfrwt>
<pdfrwt beam="2">  1       -1 0.70686069E-01 0.16764962E+04</pdfrwt>
<totfact> 0.12036233E+01</totfact>
</mgrwt>
</event>
<event>
12    1  0.1472088E-007  0.1906932E+04  0.7818608E-02  0.8651413E-01
          2   -1    0    0  501    0  0.00000000000E+00  0.00000000000E+00  0.24860138184E+04  0.24860138184E+04  0.00000000000E+00 0. -1.
         -2   -1    0    0    0  501 -0.00000000000E+00 -0.00000000000E+00 -0.36568485281E+03  0.36568485281E+03  0.00000000000E+00 0.  1.
         23    2    1    2    0    0  0.12535478514E+03 -0.48828780530E+03  0.16593166882E+04  0.17365499565E+04  0.90194661478E+02 0.  0.
        254    2    1    2    0    0 -0.12535478514E+03  0.48828780530E+03  0.46101227743E+03  0.11151487147E+04  0.88141110326E+03 0.  0.
        -24    2    4    4    0    0 -0.44360615845E+03  0.33077192472E+03  0.49857302415E+03  0.74915568821E+03  0.80390887292E+02 0.  0.
         24    2    4    4    0    0  0.31825137331E+03  0.15751588057E+03 -0.37560746721E+02  0.36599302647E+03  0.80280112641E+02 0.  0.
         13    1    3    3    0    0  0.99194718693E+02 -0.39502360570E+03  0.14461233719E+04  0.15023834557E+04  0.00000000000E+00 0. -1.
        -13    1    3    3    0    0  0.26160066444E+02 -0.93264199593E+02  0.21319331629E+03  0.23416650083E+03  0.00000000000E+00 0.  1.
          4    1    6    6  502    0  0.78080815542E-01 -0.46422345262E+01  0.44334526793E+01  0.64196526907E+01  0.00000000000E+00 0. -1.
          3    1    5    5  503    0 -0.16627295138E+03  0.17051004727E+03  0.23111448572E+03  0.33186484612E+03  0.00000000000E+00 0. -1.
         -4    1    5    5    0  503 -0.27733320708E+03  0.16026187746E+03  0.26745853843E+03  0.41729084209E+03  0.00000000000E+00 0.  1.
         -3    1    6    6    0  502  0.31817329250E+03  0.16215811510E+03 -0.41994199400E+02  0.35957337378E+03  0.00000000000E+00 0.  1.
<mgrwt>
<rscale>  0 0.19069322E+04</rscale>
<asrwt>0</asrwt>
<pdfrwt beam="1">  1        2 0.38246365E+00 0.19069322E+04</pdfrwt>
<pdfrwt beam="2">  1       -2 0.56259210E-01 0.19069322E+04</pdfrwt>
<totfact> 0.98528589E+00</totfact>
</mgrwt>
</event>
<event>
12    1  0.1472088E-007  0.4144002E+04  0.7818608E-02  0.7976111E-01
          2   -1    0    0  501    0  0.00000000000E+00  0.00000000000E+00  0.24813545491E+04  0.24813545491E+04  0.00000000000E+00 0. -1.
         -2   -1    0    0    0  501 -0.00000000000E+00 -0.00000000000E+00 -0.17301789068E+04  0.17301789068E+04  0.00000000000E+00 0.  1.
         23    2    1    2    0    0  0.18323892938E+04  0.66869018937E+03  0.40523145126E+02  0.19533059096E+04  0.94682406015E+02 0.  0.
        254    2    1    2    0    0 -0.18323892938E+04 -0.66869018937E+03  0.71065249717E+03  0.22582275463E+04  0.88868868903E+03 0.  0.
        -24    2    4    4    0    0 -0.14203434368E+04 -0.57305913052E+03  0.91057926206E+03  0.17835949459E+04  0.79272270930E+02 0.  0.
         24    2    4    4    0    0 -0.41204585699E+03 -0.95631058852E+02 -0.19992676489E+03  0.47463260048E+03  0.79864300125E+02 0.  0.
         13    1    3    3    0    0  0.56514372287E+02  0.12129909048E+02  0.15251023313E+02  0.59779617602E+02  0.00000000000E+00 0. -1.
        -13    1    3    3    0    0  0.17758749215E+04  0.65656028032E+03  0.25272121813E+02  0.18935262920E+04  0.00000000000E+00 0.  1.
          4    1    6    6  502    0 -0.66546800017E+02  0.86642810291E+01 -0.13594745211E+02  0.68471625186E+02  0.00000000000E+00 0. -1.
          3    1    5    5  503    0 -0.91513520326E+03 -0.40417264589E+03  0.57159447332E+03  0.11521927833E+04  0.00000000000E+00 0. -1.
         -4    1    5    5    0  503 -0.50520823353E+03 -0.16888648463E+03  0.33898478874E+03  0.63140216258E+03  0.00000000000E+00 0.  1.
         -3    1    6    6    0  502 -0.34549905698E+03 -0.10429533988E+03 -0.18633201968E+03  0.40616097529E+03  0.00000000000E+00 0.  1.
<mgrwt>
<rscale>  0 0.41440016E+04</rscale>
<asrwt>0</asrwt>
<pdfrwt beam="1">  1        2 0.38174686E+00 0.41440016E+04</pdfrwt>
<pdfrwt beam="2">  1       -2 0.26618137E+00 0.41440016E+04</pdfrwt>
<totfact> 0.14232643E-01</totfact>
</mgrwt>
</event>
<event>
12    1  0.1472088E-007  0.3116008E+04  0.7818608E-02  0.8211358E-01
          1   -1    0    0  501    0  0.00000000000E+00  0.00000000000E+00  0.40800068584E+04  0.40800068584E+04  0.00000000000E+00 0. -1.
         -1   -1    0    0    0  501 -0.00000000000E+00 -0.00000000000E+00 -0.59494421676E+03  0.59494421676E+03  0.00000000000E+00 0.  1.
         23    2    1    2    0    0  0.86762554442E+02  0.12987151754E+04  0.72548380994E+03  0.14930237976E+04  0.92760196989E+02 0.  0.
        254    2    1    2    0    0 -0.86762554442E+02 -0.12987151754E+04  0.27595788317E+04  0.31819272775E+04  0.90288261874E+03 0.  0.
        -24    2    4    4    0    0  0.23565531269E+02 -0.10084130003E+03 -0.37430071855E+02  0.13620058129E+03  0.80157881756E+02 0.  0.
         24    2    4    4    0    0 -0.11032808571E+03 -0.11978738754E+04  0.27970089036E+04  0.30457266962E+04  0.78218882853E+02 0.  0.
         11    1    3    3    0    0  0.23349543873E+02  0.67195433047E+03  0.42149706526E+03  0.79355377855E+03  0.00000000000E+00 0.  1.
        -11    1    3    3    0    0  0.63413010569E+02  0.62676084495E+03  0.30398674468E+03  0.69947001909E+03  0.00000000000E+00 0. -1.
          2    1    6    6  502    0 -0.27773369043E+02 -0.32084764494E+03  0.83896636915E+03  0.89865407130E+03  0.00000000000E+00 0. -1.
          3    1    5    5  503    0  0.24774017663E+02 -0.74482514367E+02  0.12733339483E+02  0.79520656637E+02  0.00000000000E+00 0. -1.
         -4    1    5    5    0  503 -0.12084863939E+01 -0.26358785663E+02 -0.50163411338E+02  0.56679924648E+02  0.00000000000E+00 0.  1.
         -1    1    6    6    0  502 -0.82554716668E+02 -0.87702623045E+03  0.19580425344E+04  0.21470726249E+04  0.00000000000E+00 0.  1.
<mgrwt>
<rscale>  0 0.31160080E+04</rscale>
<asrwt>0</asrwt>
<pdfrwt beam="1">  1        1 0.62769334E+00 0.31160080E+04</pdfrwt>
<pdfrwt beam="2">  1       -1 0.91529882E-01 0.31160080E+04</pdfrwt>
<totfact> 0.79754364E-02</totfact>
</mgrwt>
</event>
<event>
12    1  0.1472088E-007  0.1425984E+04  0.7818608E-02  0.8935222E-01
          2   -1    0    0  501    0  0.00000000000E+00  0.00000000000E+00  0.69932480285E+03  0.69932480285E+03  0.00000000000E+00 0.  1.
         -2   -1    0    0    0  501 -0.00000000000E+00 -0.00000000000E+00 -0.72692588932E+03  0.72692588932E+03  0.00000000000E+00 0. -1.
         23    2    1    2    0    0  0.26536317991E+03 -0.18366218949E+02 -0.33947681254E+03  0.44197230926E+03  0.96644092668E+02 0.  0.
        254    2    1    2    0    0 -0.26536317991E+03  0.18366218949E+02  0.31187572607E+03  0.98427838291E+03  0.89486453238E+03 0.  0.
        -24    2    4    4    0    0 -0.26405533039E+03  0.41140269172E+03  0.35574117725E+02  0.49679032872E+03  0.80979754206E+02 0.  0.
         24    2    4    4    0    0 -0.13078495226E+01 -0.39303647277E+03  0.27630160834E+03  0.48748805420E+03  0.82599302739E+02 0.  0.
         11    1    3    3    0    0  0.22950765719E+03 -0.29087498321E+01 -0.22661400243E+03  0.32254632478E+03  0.00000000000E+00 0. -1.
        -11    1    3    3    0    0  0.35855522717E+02 -0.15457469117E+02 -0.11286281011E+03  0.11942598447E+03  0.00000000000E+00 0.  1.
          2    1    6    6  502    0  0.71834474468E+01 -0.32794603434E+03  0.26316961206E+03  0.42054541737E+03  0.00000000000E+00 0. -1.
          1    1    5    5  503    0 -0.26799787271E+03  0.38771544607E+03  0.36702912909E+02  0.47275070673E+03  0.00000000000E+00 0. -1.
         -2    1    5    5    0  503  0.39425423243E+01  0.23687245653E+02 -0.11287951844E+01  0.24039621984E+02  0.00000000000E+00 0.  1.
         -1    1    6    6    0  502 -0.84912969694E+01 -0.65090438434E+02  0.13131996284E+02  0.66942636833E+02  0.00000000000E+00 0.  1.
<mgrwt>
<rscale>  0 0.14259836E+04</rscale>
<asrwt>0</asrwt>
<pdfrwt beam="1">  1        2 0.10758843E+00 0.14259836E+04</pdfrwt>
<pdfrwt beam="2">  1       -2 0.11183475E+00 0.14259836E+04</pdfrwt>
<totfact> 0.25154368E+01</totfact>
</mgrwt>
</event>
<event>
12    1  0.1472088E-007  0.1597664E+04  0.7818608E-02  0.8821985E-01
          2   -1    0    0  501    0  0.00000000000E+00  0.00000000000E+00  0.31725667353E+03  0.31725667353E+03  0.00000000000E+00 0.  1.
         -2   -1    0    0    0  501 -0.00000000000E+00 -0.00000000000E+00 -0.20114068231E+04  0.20114068231E+04  0.00000000000E+00 0. -1.
         23    2    1    2    0    0 -0.45162067463E+03  0.28684953583E+03 -0.61537519383E+03  0.82064315967E+03  0.92329174030E+02 0.  0.
        254    2    1    2    0    0  0.45162067463E+03 -0.28684953583E+03 -0.10787749558E+04  0.15080203370E+04  0.90781388050E+03 0.  0.
        -24    2    4    4    0    0  0.24073231000E+03  0.26267452004E+03 -0.73792438397E+03  0.82318288516E+03  0.78407381071E+02 0.  0.
         24    2    4    4    0    0  0.21088836463E+03 -0.54952405586E+03 -0.34085057181E+03  0.68483745184E+03  0.79828771917E+02 0.  0.
         11    1    3    3    0    0 -0.41865037102E+03  0.27828051976E+03 -0.53914109106E+03  0.73714401368E+03  0.00000000000E+00 0.  1.
        -11    1    3    3    0    0 -0.32970303613E+02  0.85690160641E+01 -0.76234102765E+02  0.83499145990E+02  0.00000000000E+00 0. -1.
          4    1    6    6  502    0  0.14886226140E+03 -0.47068681670E+03 -0.28484868790E+03  0.56995160082E+03  0.00000000000E+00 0. -1.
          3    1    5    5  503    0  0.79284814242E+02  0.41448872264E+02 -0.21526299786E+03  0.23311424030E+03  0.00000000000E+00 0. -1.
         -4    1    5    5    0  503  0.16144749576E+03  0.22122564777E+03 -0.52266138611E+03  0.59006864486E+03  0.00000000000E+00 0.  1.
         -3    1    6    6    0  502  0.62026103237E+02 -0.78837239162E+02 -0.56001883907E+02  0.11488585101E+03  0.00000000000E+00 0.  1.
<mgrwt>
<rscale>  0 0.15976636E+04</rscale>
<asrwt>0</asrwt>
<pdfrwt beam="1">  1        2 0.48808719E-01 0.15976636E+04</pdfrwt>
<pdfrwt beam="2">  1       -2 0.30944721E+00 0.15976636E+04</pdfrwt>
<totfact> 0.27608876E+00</totfact>
</mgrwt>
</event>
<event>
12    1  0.1472088E-007  0.1862722E+04  0.7818608E-02  0.8673638E-01
         -2   -1    0    0    0  501 -0.00000000000E+00  0.00000000000E+00  0.44304328322E+03  0.44304328322E+03  0.00000000000E+00 0.  1.
          2   -1    0    0  501    0  0.00000000000E+00 -0.00000000000E+00 -0.19578970951E+04  0.19578970951E+04  0.00000000000E+00 0. -1.
         23    2    1    2    0    0  0.52847207752E+03 -0.21894831083E+03 -0.11556641653E+04  0.12925926997E+04  0.89527229942E+02 0.  0.
        254    2    1    2    0    0 -0.52847207752E+03  0.21894831083E+03 -0.35918964658E+03  0.11083476786E+04  0.87874699140E+03 0.  0.
        -24    2    4    4    0    0  0.14862336304E+02 -0.28675537834E+03 -0.60034699970E+02  0.30422855283E+03  0.80630708217E+02 0.  0.
         24    2    4    4    0    0 -0.54333441382E+03  0.50570368917E+03 -0.29915494661E+03  0.80411912577E+03  0.78519932865E+02 0.  0.
         13    1    3    3    0    0  0.96591395704E+02 -0.54161378709E+02 -0.15689219421E+03  0.19203779126E+03  0.00000000000E+00 0.  1.
        -13    1    3    3    0    0  0.43188068181E+03 -0.16478693212E+03 -0.99877197107E+03  0.11005549084E+04  0.00000000000E+00 0. -1.
          2    1    6    6  502    0 -0.38089015763E+03  0.38862899831E+03 -0.24444801733E+03  0.59654391597E+03  0.00000000000E+00 0. -1.
          3    1    5    5  503    0  0.45731986486E+02 -0.15579527180E+03 -0.47083418172E+02  0.16905747416E+03  0.00000000000E+00 0. -1.
         -4    1    5    5    0  503 -0.30869650182E+02 -0.13096010655E+03 -0.12951281798E+02  0.13517107867E+03  0.00000000000E+00 0.  1.
         -1    1    6    6    0  502 -0.16244425619E+03  0.11707469087E+03 -0.54706929285E+02  0.20757520980E+03  0.00000000000E+00 0.  1.
<mgrwt>
<rscale>  0 0.18627218E+04</rscale>
<asrwt>0</asrwt>
<pdfrwt beam="1">  1        2 0.30121494E+00 0.18627218E+04</pdfrwt>
<pdfrwt beam="2">  1       -2 0.68160504E-01 0.18627218E+04</pdfrwt>
<totfact> 0.13048177E+01</totfact>
</mgrwt>
</event>
<event>
12    1  0.1472088E-007  0.1611060E+04  0.7818608E-02  0.8813782E-01
         -2   -1    0    0    0  501 -0.00000000000E+00  0.00000000000E+00  0.27984742454E+03  0.27984742454E+03  0.00000000000E+00 0.  1.
          2   -1    0    0  501    0  0.00000000000E+00 -0.00000000000E+00 -0.23186864621E+04  0.23186864621E+04  0.00000000000E+00 0. -1.
         23    2    1    2    0    0 -0.14783971008E+03  0.52715422933E+03 -0.61748367588E+03  0.83002391856E+03  0.88912620210E+02 0.  0.
        254    2    1    2    0    0  0.14783971008E+03 -0.52715422933E+03 -0.14213553616E+04  0.17685099680E+04  0.89868141274E+03 0.  0.
        -24    2    4    4    0    0 -0.33919511550E+03 -0.95338911533E+02 -0.29947188875E+03  0.46885000674E+03  0.77421458505E+02 0.  0.
         24    2    4    4    0    0  0.48703482558E+03 -0.43181531779E+03 -0.11218834729E+04  0.12996599613E+04  0.82620204829E+02 0.  0.
         11    1    3    3    0    0 -0.40921350695E+02  0.26618404154E+03 -0.25630496354E+03  0.37178049337E+03  0.00000000000E+00 0.  1.
        -11    1    3    3    0    0 -0.10691835938E+03  0.26097018779E+03 -0.36117871234E+03  0.45824342519E+03  0.00000000000E+00 0. -1.
          4    1    6    6  502    0  0.16086098029E+03 -0.15991295085E+03 -0.46670349601E+03  0.51890322799E+03  0.00000000000E+00 0. -1.
          3    1    5    5  503    0 -0.53988715413E+02 -0.45186611366E+02 -0.71026749452E+02  0.10000705163E+03  0.00000000000E+00 0. -1.
         -4    1    5    5    0  503 -0.28520640009E+03 -0.50152300166E+02 -0.22844513929E+03  0.36884295510E+03  0.00000000000E+00 0.  1.
         -3    1    6    6    0  502  0.32617384529E+03 -0.27190236694E+03 -0.65517997688E+03  0.78075673331E+03  0.00000000000E+00 0.  1.
<mgrwt>
<rscale>  0 0.16110598E+04</rscale>
<asrwt>0</asrwt>
<pdfrwt beam="1">  1        2 0.35672100E+00 0.16110598E+04</pdfrwt>
<pdfrwt beam="2">  1       -2 0.43053449E-01 0.16110598E+04</pdfrwt>
<totfact> 0.21707702E+01</totfact>
</mgrwt>
</event>
<event>
12    1  0.1472088E-007  0.2345207E+04  0.7818608E-02  0.8460307E-01
         -1   -1    0    0    0  501 -0.00000000000E+00  0.00000000000E+00  0.73266842547E+03  0.73266842547E+03  0.00000000000E+00 0.  1.
          1   -1    0    0  501    0  0.00000000000E+00 -0.00000000000E+00 -0.18767007589E+04  0.18767007589E+04  0.00000000000E+00 0. -1.
         23    2    1    2    0    0  0.48334396556E+03 -0.72677941537E+03  0.47341583932E+02  0.87866628327E+03  0.89350456850E+02 0.  0.
        254    2    1    2    0    0 -0.48334396556E+03  0.72677941537E+03 -0.11913739173E+04  0.17307029011E+04  0.90229208864E+03 0.  0.
        -24    2    4    4    0    0 -0.13713766426E+03  0.26763963800E+02  0.12116902711E+03  0.20109513145E+03  0.78957393854E+02 0.  0.
         24    2    4    4    0    0 -0.34620630129E+03  0.70001545157E+03 -0.13125429445E+04  0.15296077696E+04  0.83967329095E+02 0.  0.
         13    1    3    3    0    0  0.43393638174E+03 -0.61537827699E+03  0.17461509267E+02  0.75319062096E+03  0.00000000000E+00 0.  1.
        -13    1    3    3    0    0  0.49407583812E+02 -0.11140113838E+03  0.29880074665E+02  0.12547566231E+03  0.00000000000E+00 0. -1.
          4    1    6    6  502    0 -0.11142456231E+03  0.27789138963E+03 -0.56867735814E+03  0.64267643117E+03  0.00000000000E+00 0. -1.
          1    1    5    5  503    0 -0.37296808710E+02  0.34002828131E+02  0.99142638780E+01  0.51434782872E+02  0.00000000000E+00 0. -1.
         -2    1    5    5    0  503 -0.99840855551E+02 -0.72388643313E+01  0.11125476324E+03  0.14966034858E+03  0.00000000000E+00 0.  1.
         -3    1    6    6    0  502 -0.23478173898E+03  0.42212406195E+03 -0.74386558632E+03  0.88693133846E+03  0.00000000000E+00 0.  1.
<mgrwt>
<rscale>  0 0.23452074E+04</rscale>
<asrwt>0</asrwt>
<pdfrwt beam="1">  1        1 0.28872319E+00 0.23452074E+04</pdfrwt>
<pdfrwt beam="2">  1       -1 0.11271822E+00 0.23452074E+04</pdfrwt>
<totfact> 0.23425545E+00</totfact>
</mgrwt>
</event>
<event>
12    1  0.1472088E-007  0.1043780E+04  0.7818608E-02  0.9261790E-01
         -4   -1    0    0    0  501 -0.00000000000E+00  0.00000000000E+00  0.76364973881E+03  0.76364973881E+03  0.00000000000E+00 0.  1.
          4   -1    0    0  501    0  0.00000000000E+00 -0.00000000000E+00 -0.35666753090E+03  0.35666753090E+03  0.00000000000E+00 0. -1.
         23    2    1    2    0    0 -0.23997183284E+01 -0.48721871785E+02  0.15565309373E+03  0.18648135665E+03  0.90376055197E+02 0.  0.
        254    2    1    2    0    0  0.23997183284E+01  0.48721871785E+02  0.25132911418E+03  0.93383591306E+03  0.89805546012E+03 0.  0.
        -24    2    4    4    0    0 -0.53999849792E+02 -0.92343422730E+02  0.56256584079E+03  0.57822700226E+03  0.80142681635E+02 0.  0.
         24    2    4    4    0    0  0.56399568121E+02  0.14106529451E+03 -0.31123672661E+03  0.35560891080E+03  0.80678800479E+02 0.  0.
         13    1    3    3    0    0 -0.33319892796E+01 -0.21529397408E+02  0.15769842474E+03  0.15919613774E+03  0.00000000000E+00 0.  1.
        -13    1    3    3    0    0  0.93227095119E+00 -0.27192474377E+02 -0.20453310178E+01  0.27285218907E+02  0.00000000000E+00 0. -1.
          4    1    6    6  502    0  0.22196359556E+02  0.10910527195E+01 -0.81054565211E+02  0.84045888151E+02  0.00000000000E+00 0. -1.
          3    1    5    5  503    0 -0.28544639366E+02 -0.18455210483E+02  0.35181100853E+03  0.35344925655E+03  0.00000000000E+00 0. -1.
         -4    1    5    5    0  503 -0.25455210427E+02 -0.73888212247E+02  0.21075483226E+03  0.22477774571E+03  0.00000000000E+00 0.  1.
         -3    1    6    6    0  502  0.34203208565E+02  0.13997424180E+03 -0.23018216140E+03  0.27156302265E+03  0.00000000000E+00 0.  1.
<mgrwt>
<rscale>  0 0.10437798E+04</rscale>
<asrwt>0</asrwt>
<pdfrwt beam="1">  1        4 0.54871928E-01 0.10437798E+04</pdfrwt>
<pdfrwt beam="2">  1       -4 0.11748457E+00 0.10437798E+04</pdfrwt>
<totfact> 0.35087328E+00</totfact>
</mgrwt>
</event>
<event>
12    1  0.1472088E-007  0.2504636E+04  0.7818608E-02  0.8401336E-01
          3   -1    0    0  501    0  0.00000000000E+00  0.00000000000E+00  0.17406657558E+04  0.17406657558E+04  0.00000000000E+00 0. -1.
         -3   -1    0    0    0  501 -0.00000000000E+00 -0.00000000000E+00 -0.90097751330E+03  0.90097751330E+03  0.00000000000E+00 0.  1.
         23    2    1    2    0    0 -0.68137551891E+03  0.75067244311E+03 -0.53324533751E+02  0.10192277090E+04  0.90553312008E+02 0.  0.
        254    2    1    2    0    0  0.68137551891E+03 -0.75067244311E+03  0.89301277624E+03  0.16224155601E+04  0.89831994103E+03 0.  0.
        -24    2    4    4    0    0  0.58379174991E+03 -0.18756264141E+03  0.83997498117E+03  0.10430049442E+04  0.79427910024E+02 0.  0.
         24    2    4    4    0    0  0.97583769001E+02 -0.56310980169E+03  0.53037795073E+02  0.57941061590E+03  0.79299516850E+02 0.  0.
         11    1    3    3    0    0 -0.39137642452E+03  0.45312600111E+03 -0.73526017863E+02  0.60324518552E+03  0.00000000000E+00 0. -1.
        -11    1    3    3    0    0 -0.28999909439E+03  0.29754644199E+03  0.20201484112E+02  0.41598252349E+03  0.00000000000E+00 0.  1.
          2    1    6    6  502    0  0.94501606111E+02 -0.54798763807E+03  0.65030020638E+02  0.55986597380E+03  0.00000000000E+00 0. -1.
          1    1    5    5  503    0  0.49662655506E+03 -0.13811315434E+03  0.73637011105E+03  0.89886268086E+03  0.00000000000E+00 0. -1.
         -2    1    5    5    0  503  0.87165194844E+02 -0.49449487073E+02  0.10360487012E+03  0.14414226333E+03  0.00000000000E+00 0.  1.
         -1    1    6    6    0  502  0.30821628892E+01 -0.15122163627E+02 -0.11992225565E+02  0.19544642101E+02  0.00000000000E+00 0.  1.
<mgrwt>
<rscale>  0 0.25046363E+04</rscale>
<asrwt>0</asrwt>
<pdfrwt beam="1">  1        3 0.26779473E+00 0.25046363E+04</pdfrwt>
<pdfrwt beam="2">  1       -3 0.13861193E+00 0.25046363E+04</pdfrwt>
<totfact> 0.53660112E-02</totfact>
</mgrwt>
</event>
<event>
12    1  0.1472088E-007  0.1705540E+04  0.7818608E-02  0.8758211E-01
          2   -1    0    0  501    0  0.00000000000E+00  0.00000000000E+00  0.77026213180E+03  0.77026213180E+03  0.00000000000E+00 0. -1.
         -2   -1    0    0    0  501 -0.00000000000E+00 -0.00000000000E+00 -0.94411634678E+03  0.94411634678E+03  0.00000000000E+00 0.  1.
         23    2    1    2    0    0 -0.34538062219E+03  0.33780905860E+03 -0.44454611019E+03  0.66266764815E+03  0.90024627520E+02 0.  0.
        254    2    1    2    0    0  0.34538062219E+03 -0.33780905860E+03  0.27069189521E+03  0.10517108304E+04  0.89410225056E+03 0.  0.
        -24    2    4    4    0    0 -0.17769018964E+03 -0.26574853143E+03  0.38411476768E+03  0.50645349408E+03  0.82188207551E+02 0.  0.
         24    2    4    4    0    0  0.52307081183E+03 -0.72060527164E+02 -0.11342287248E+03  0.54525733635E+03  0.75133355257E+02 0.  0.
         13    1    3    3    0    0 -0.13526878427E+03  0.89271568969E+02 -0.10961353228E+03  0.19565833354E+03  0.00000000000E+00 0. -1.
        -13    1    3    3    0    0 -0.21011183792E+03  0.24853748963E+03 -0.33493257792E+03  0.46700931462E+03  0.00000000000E+00 0.  1.
          2    1    6    6  502    0  0.86115219277E+02 -0.38681682940E+02 -0.30853115208E+02  0.99317764294E+02  0.00000000000E+00 0. -1.
          1    1    5    5  503    0 -0.47557324295E+02 -0.21049651293E+02  0.75235865341E+02  0.91461589464E+02  0.00000000000E+00 0. -1.
         -2    1    5    5    0  503 -0.13013286534E+03 -0.24469888014E+03  0.30887890234E+03  0.41499190462E+03  0.00000000000E+00 0.  1.
         -1    1    6    6    0  502  0.43695559256E+03 -0.33378844225E+02 -0.82569757268E+02  0.44593957205E+03  0.00000000000E+00 0.  1.
<mgrwt>
<rscale>  0 0.17055405E+04</rscale>
<asrwt>0</asrwt>
<pdfrwt beam="1">  1        2 0.11850187E+00 0.17055405E+04</pdfrwt>
<pdfrwt beam="2">  1       -2 0.14524867E+00 0.17055405E+04</pdfrwt>
<totfact> 0.11232346E+01</totfact>
</mgrwt>
</event>
<event>
12    1  0.1472088E-007  0.1888774E+04  0.7818608E-02  0.8660465E-01
         -1   -1    0    0    0  501 -0.00000000000E+00  0.00000000000E+00  0.77299486377E+03  0.77299486377E+03  0.00000000000E+00 0.  1.
          1   -1    0    0  501    0  0.00000000000E+00 -0.00000000000E+00 -0.11537804392E+04  0.11537804392E+04  0.00000000000E+00 0. -1.
         23    2    1    2    0    0 -0.68993045330E+03 -0.67976674611E+02 -0.26281736468E+03  0.74747002759E+03  0.94940066808E+02 0.  0.
        254    2    1    2    0    0  0.68993045330E+03  0.67976674611E+02 -0.11796821080E+03  0.11793052754E+04  0.94668874251E+03 0.  0.
        -24    2    4    4    0    0  0.83786390204E+03 -0.17861957613E+03 -0.17343812593E+03  0.87735396512E+03  0.75817710790E+02 0.  0.
         24    2    4    4    0    0 -0.14793344874E+03  0.24659625074E+03  0.55469915136E+02  0.30195131030E+03  0.73509633207E+02 0.  0.
         13    1    3    3    0    0 -0.40962568975E+03 -0.19184401179E+02 -0.11030004119E+03  0.42464967448E+03  0.00000000000E+00 0.  1.
        -13    1    3    3    0    0 -0.28030476355E+03 -0.48792273432E+02 -0.15251732349E+03  0.32282035311E+03  0.00000000000E+00 0. -1.
          2    1    6    6  502    0 -0.37079175760E+02  0.64659634710E+02  0.48230191467E+02  0.88779980879E+02  0.00000000000E+00 0. -1.
          3    1    5    5  503    0  0.15259642671E+03 -0.30688954052E+01 -0.32866327509E+02  0.15612585643E+03  0.00000000000E+00 0. -1.
         -2    1    5    5    0  503  0.68526747533E+03 -0.17555068072E+03 -0.14057179842E+03  0.72122810869E+03  0.00000000000E+00 0.  1.
         -1    1    6    6    0  502 -0.11085427298E+03  0.18193661603E+03  0.72397236687E+01  0.21317132942E+03  0.00000000000E+00 0.  1.
<mgrwt>
<rscale>  0 0.18887735E+04</rscale>
<asrwt>0</asrwt>
<pdfrwt beam="1">  1        1 0.17750468E+00 0.18887735E+04</pdfrwt>
<pdfrwt beam="2">  1       -1 0.11892229E+00 0.18887735E+04</pdfrwt>
<totfact> 0.68512881E+00</totfact>
</mgrwt>
</event>
<event>
12    1  0.1472088E-007  0.2369554E+04  0.7818608E-02  0.8450991E-01
         -2   -1    0    0    0  501 -0.00000000000E+00  0.00000000000E+00  0.10814378241E+04  0.10814378241E+04  0.00000000000E+00 0.  1.
          2   -1    0    0  501    0  0.00000000000E+00 -0.00000000000E+00 -0.12979915144E+04  0.12979915144E+04  0.00000000000E+00 0. -1.
         23    2    1    2    0    0 -0.10669859084E+03 -0.95103746271E+03  0.23641389983E+03  0.98917237747E+03  0.81936655603E+02 0.  0.
        254    2    1    2    0    0  0.10669859084E+03  0.95103746271E+03 -0.45296759008E+03  0.13902569610E+04  0.90098720040E+03 0.  0.
        -24    2    4    4    0    0 -0.10737464025E+03 -0.11434890880E+03 -0.21006198115E+03  0.27395498544E+03  0.79500388735E+02 0.  0.
         24    2    4    4    0    0  0.21407323110E+03  0.10653863715E+04 -0.24290560893E+03  0.11163019756E+04  0.79066408708E+02 0.  0.
         13    1    3    3    0    0 -0.10760228967E+03 -0.84463662284E+03  0.23276392516E+03  0.88270511624E+03  0.00000000000E+00 0.  1.
        -13    1    3    3    0    0  0.90369882257E+00 -0.10640083987E+03  0.36499746789E+01  0.10646726122E+03  0.00000000000E+00 0. -1.
          4    1    6    6  502    0  0.18683340747E+03  0.94596429083E+03 -0.24054785632E+03  0.99378993397E+03  0.00000000000E+00 0. -1.
          3    1    5    5  503    0 -0.78240905785E+02 -0.34358115155E+02 -0.13850675745E+03  0.16274594088E+03  0.00000000000E+00 0. -1.
         -4    1    5    5    0  503 -0.29133734469E+02 -0.79990793650E+02 -0.71555223709E+02  0.11120904456E+03  0.00000000000E+00 0.  1.
         -3    1    6    6    0  502  0.27239823628E+02  0.11942208068E+03 -0.23577526025E+01  0.12251204163E+03  0.00000000000E+00 0.  1.
<mgrwt>
<rscale>  0 0.23695545E+04</rscale>
<asrwt>0</asrwt>
<pdfrwt beam="1">  1        2 0.19969100E+00 0.23695545E+04</pdfrwt>
<pdfrwt beam="2">  1       -2 0.16637505E+00 0.23695545E+04</pdfrwt>
<totfact> 0.33815292E+00</totfact>
</mgrwt>
</event>
<event>
12    1  0.1472088E-007  0.1121002E+04  0.7818608E-02  0.9184960E-01
         -2   -1    0    0    0  501 -0.00000000000E+00  0.00000000000E+00  0.21006243776E+03  0.21006243776E+03  0.00000000000E+00 0.  1.
          2   -1    0    0  501    0  0.00000000000E+00 -0.00000000000E+00 -0.14955617393E+04  0.14955617393E+04  0.00000000000E+00 0. -1.
         23    2    1    2    0    0 -0.15526043127E+03  0.29135913815E+02 -0.36863735292E+03  0.41174731699E+03  0.93207575291E+02 0.  0.
        254    2    1    2    0    0  0.15526043127E+03 -0.29135913815E+02 -0.91686194861E+03  0.12938768600E+04  0.89918117928E+03 0.  0.
        -24    2    4    4    0    0  0.45453499330E+03  0.64816199580E+02 -0.20152979436E+03  0.50864798806E+03  0.85471152338E+02 0.  0.
         24    2    4    4    0    0 -0.29927456204E+03 -0.93952113394E+02 -0.71533215425E+03  0.78522887199E+03  0.80573118368E+02 0.  0.
         11    1    3    3    0    0 -0.92859743592E+01 -0.24342618903E+02 -0.34663910425E+02  0.43363338211E+02  0.00000000000E+00 0. -1.
        -11    1    3    3    0    0 -0.14597445691E+03  0.53478532717E+02 -0.33397344249E+03  0.36838397878E+03  0.00000000000E+00 0.  1.
          2    1    6    6  502    0 -0.15162562899E+03 -0.18869051525E+02 -0.27224200853E+03  0.31218917931E+03  0.00000000000E+00 0. -1.
          1    1    5    5  503    0  0.43603567733E+03  0.58796193140E+02 -0.20988069493E+03  0.48747718955E+03  0.00000000000E+00 0. -1.
         -2    1    5    5    0  503  0.18499315974E+02  0.60200064403E+01  0.83509005749E+01  0.21170798508E+02  0.00000000000E+00 0.  1.
         -1    1    6    6    0  502 -0.14764893305E+03 -0.75083061869E+02 -0.44309014572E+03  0.47303969267E+03  0.00000000000E+00 0.  1.
<mgrwt>
<rscale>  0 0.11210020E+04</rscale>
<asrwt>0</asrwt>
<pdfrwt beam="1">  1        2 0.23008642E+00 0.11210020E+04</pdfrwt>
<pdfrwt beam="2">  1       -2 0.32317298E-01 0.11210020E+04</pdfrwt>
<totfact> 0.11280117E+02</totfact>
</mgrwt>
</event>
<event>
12    1  0.1472088E-007  0.2167757E+04  0.7818608E-02  0.8531969E-01
         -1   -1    0    0    0  501 -0.00000000000E+00  0.00000000000E+00  0.68641097733E+03  0.68641097733E+03  0.00000000000E+00 0.  1.
          1   -1    0    0  501    0  0.00000000000E+00 -0.00000000000E+00 -0.17115003828E+04  0.17115003828E+04  0.00000000000E+00 0. -1.
         23    2    1    2    0    0  0.30596186739E+03  0.84745552565E+03 -0.43273212776E+03  0.10037432916E+04  0.91923712007E+02 0.  0.
        254    2    1    2    0    0 -0.30596186739E+03 -0.84745552565E+03 -0.59235727774E+03  0.13941680685E+04  0.88375558080E+03 0.  0.
        -24    2    4    4    0    0 -0.70288885241E+01 -0.73044826531E+03 -0.22317016042E+02  0.73500894127E+03  0.78332757948E+02 0.  0.
         24    2    4    4    0    0 -0.29893297887E+03 -0.11700726034E+03 -0.57004026169E+03  0.65915912727E+03  0.80580582522E+02 0.  0.
         11    1    3    3    0    0  0.11409194484E+02  0.57925008849E+02 -0.64987835210E+01  0.59394533049E+02  0.00000000000E+00 0. -1.
        -11    1    3    3    0    0  0.29455267291E+03  0.78953051680E+03 -0.42623334424E+03  0.94434875857E+03  0.00000000000E+00 0.  1.
          2    1    6    6  502    0  0.27774453270E+01 -0.43987120161E+01 -0.29525067545E+02  0.29979867970E+02  0.00000000000E+00 0. -1.
          1    1    5    5  503    0 -0.35580027496E+01 -0.16529543534E+03  0.27693770443E+02  0.16763706407E+03  0.00000000000E+00 0. -1.
         -2    1    5    5    0  503 -0.34708857744E+01 -0.56515282997E+03 -0.50010786484E+02  0.56737187720E+03  0.00000000000E+00 0.  1.
         -1    1    6    6    0  502 -0.30171042420E+03 -0.11260854832E+03 -0.54051519415E+03  0.62917925930E+03  0.00000000000E+00 0.  1.
<mgrwt>
<rscale>  0 0.21677570E+04</rscale>
<asrwt>0</asrwt>
<pdfrwt beam="1">  1        1 0.26330775E+00 0.21677570E+04</pdfrwt>
<pdfrwt beam="2">  1       -1 0.10560169E+00 0.21677570E+04</pdfrwt>
<totfact> 0.35946697E+00</totfact>
</mgrwt>
</event>
<event>
12    1  0.1472088E-007  0.1827117E+04  0.7818608E-02  0.8692010E-01
         -2   -1    0    0    0  501 -0.00000000000E+00  0.00000000000E+00  0.84591284794E+03  0.84591284794E+03  0.00000000000E+00 0.  1.
          2   -1    0    0  501    0  0.00000000000E+00 -0.00000000000E+00 -0.98661413772E+03  0.98661413772E+03  0.00000000000E+00 0. -1.
         23    2    1    2    0    0  0.34262218934E+03  0.57470798399E+03 -0.22103174389E+03  0.71020397008E+03  0.88630783667E+02 0.  0.
        254    2    1    2    0    0 -0.34262218934E+03 -0.57470798399E+03  0.80330454109E+02  0.11223230156E+04  0.89748355860E+03 0.  0.
        -24    2    4    4    0    0  0.18670201531E+03  0.12441638306E+03  0.28261387253E+02  0.24024232060E+03  0.81120821658E+02 0.  0.
         24    2    4    4    0    0 -0.52932420465E+03 -0.69912436705E+03  0.52069066856E+02  0.88208069498E+03  0.79976062152E+02 0.  0.
         13    1    3    3    0    0  0.26677306579E+03  0.48957781022E+03 -0.15605721359E+03  0.57897163558E+03  0.00000000000E+00 0.  1.
        -13    1    3    3    0    0  0.75849123556E+02  0.85130173766E+02 -0.64974530299E+02  0.13123233450E+03  0.00000000000E+00 0. -1.
          4    1    6    6  502    0 -0.44194849064E+03 -0.62677408952E+03  0.39342836791E+02  0.76792713618E+03  0.00000000000E+00 0. -1.
          1    1    5    5  503    0  0.12717173115E+03  0.12381400779E+03  0.91841571918E+01  0.17772705611E+03  0.00000000000E+00 0. -1.
         -2    1    5    5    0  503  0.59530284160E+02  0.60237526172E+00  0.19077230061E+02  0.62515264496E+02  0.00000000000E+00 0.  1.
         -3    1    6    6    0  502 -0.87375714004E+02 -0.72350277524E+02  0.12726230065E+02  0.11415355880E+03  0.00000000000E+00 0.  1.
<mgrwt>
<rscale>  0 0.18271175E+04</rscale>
<asrwt>0</asrwt>
<pdfrwt beam="1">  1        2 0.15178679E+00 0.18271175E+04</pdfrwt>
<pdfrwt beam="2">  1       -2 0.13014044E+00 0.18271175E+04</pdfrwt>
<totfact> 0.10483528E+01</totfact>
</mgrwt>
</event>
<event>
12    1  0.1472088E-007  0.1952476E+04  0.7818608E-02  0.8629168E-01
          1   -1    0    0  501    0  0.00000000000E+00  0.00000000000E+00  0.11383041725E+04  0.11383041725E+04  0.00000000000E+00 0. -1.
         -1   -1    0    0    0  501 -0.00000000000E+00 -0.00000000000E+00 -0.83724626901E+03  0.83724626901E+03  0.00000000000E+00 0.  1.
         23    2    1    2    0    0 -0.10307610471E+03  0.15900183845E+03  0.86676113989E+03  0.89200187059E+03  0.92120548863E+02 0.  0.
        254    2    1    2    0    0  0.10307610471E+03 -0.15900183845E+03 -0.56570323636E+03  0.10835485710E+04  0.90451704574E+03 0.  0.
        -24    2    4    4    0    0 -0.16518315453E+03 -0.34272229069E+03 -0.63175624108E+03  0.74194560082E+03  0.81383557027E+02 0.  0.
         24    2    4    4    0    0  0.26825925924E+03  0.18372045224E+03  0.66053004726E+02  0.34160297015E+03  0.81322537103E+02 0.  0.
         11    1    3    3    0    0 -0.70016620003E+02  0.89887286336E+02  0.69010499189E+03  0.69944760429E+03  0.00000000000E+00 0. -1.
        -11    1    3    3    0    0 -0.33059484706E+02  0.69114552116E+02  0.17665614800E+03  0.19255426630E+03  0.00000000000E+00 0.  1.
          2    1    6    6  502    0  0.54205312388E+02  0.17949886041E+01  0.10354272885E+02  0.55214570923E+02  0.00000000000E+00 0. -1.
          3    1    5    5  503    0 -0.17035753397E+03 -0.32105998277E+03 -0.61379375226E+03  0.71333300234E+03  0.00000000000E+00 0. -1.
         -4    1    5    5    0  503  0.51743794391E+01 -0.21662307920E+02 -0.17962488821E+02  0.28612598478E+02  0.00000000000E+00 0.  1.
         -1    1    6    6    0  502  0.21405394686E+03  0.18192546363E+03  0.55698731841E+02  0.28638839923E+03  0.00000000000E+00 0.  1.
<mgrwt>
<rscale>  0 0.19524763E+04</rscale>
<asrwt>0</asrwt>
<pdfrwt beam="1">  1        1 0.17512372E+00 0.19524763E+04</pdfrwt>
<pdfrwt beam="2">  1       -1 0.12880712E+00 0.19524763E+04</pdfrwt>
<totfact> 0.57386243E+00</totfact>
</mgrwt>
</event>
<event>
12    1  0.1472088E-007  0.2054896E+04  0.7818608E-02  0.8581376E-01
          2   -1    0    0  501    0  0.00000000000E+00  0.00000000000E+00  0.12605812409E+04  0.12605812409E+04  0.00000000000E+00 0.  1.
         -2   -1    0    0    0  501 -0.00000000000E+00 -0.00000000000E+00 -0.83743086884E+03  0.83743086884E+03  0.00000000000E+00 0. -1.
         23    2    1    2    0    0  0.68131790832E+03  0.15435232198E+03 -0.28209402697E+03  0.75898960744E+03  0.92029629160E+02 0.  0.
        254    2    1    2    0    0 -0.68131790832E+03 -0.15435232198E+03  0.70524439904E+03  0.13390225023E+04  0.89866170936E+03 0.  0.
        -24    2    4    4    0    0 -0.25480004423E+03  0.15810612707E+03 -0.13883408186E+03  0.33974315213E+03  0.78929697690E+02 0.  0.
         24    2    4    4    0    0 -0.42651786409E+03 -0.31245844905E+03  0.84407848090E+03  0.99927935020E+03  0.80888608876E+02 0.  0.
         11    1    3    3    0    0  0.57191360090E+03  0.13944337539E+03 -0.20116236148E+03  0.62208995934E+03  0.00000000000E+00 0. -1.
        -11    1    3    3    0    0  0.10940430743E+03  0.14908946592E+02 -0.80931665482E+02  0.13689964810E+03  0.00000000000E+00 0.  1.
          4    1    6    6  502    0 -0.37634780370E+03 -0.29965637392E+03  0.78539035925E+03  0.92101554177E+03  0.00000000000E+00 0. -1.
          3    1    5    5  503    0 -0.16919335875E+03  0.11514505822E+03 -0.13238843477E+03  0.24374469171E+03  0.00000000000E+00 0. -1.
         -4    1    5    5    0  503 -0.85606685484E+02  0.42961068855E+02 -0.64456470834E+01  0.95998460420E+02  0.00000000000E+00 0.  1.
         -3    1    6    6    0  502 -0.50170060384E+02 -0.12802075131E+02  0.58688121650E+02  0.78263808426E+02  0.00000000000E+00 0.  1.
<mgrwt>
<rscale>  0 0.20548962E+04</rscale>
<asrwt>0</asrwt>
<pdfrwt beam="1">  1        2 0.19393557E+00 0.20548962E+04</pdfrwt>
<pdfrwt beam="2">  1       -2 0.12883552E+00 0.20548962E+04</pdfrwt>
<totfact> 0.71663405E+00</totfact>
</mgrwt>
</event>
<event>
12    1  0.1472088E-007  0.1226851E+04  0.7818608E-02  0.9089673E-01
          2   -1    0    0  501    0  0.00000000000E+00  0.00000000000E+00  0.11674658885E+04  0.11674658885E+04  0.00000000000E+00 0. -1.
         -2   -1    0    0    0  501 -0.00000000000E+00 -0.00000000000E+00 -0.32231422042E+03  0.32231422042E+03  0.00000000000E+00 0.  1.
         23    2    1    2    0    0 -0.27243901595E+03  0.34144875971E+02  0.17359803741E+03  0.33721254993E+03  0.90482789932E+02 0.  0.
        254    2    1    2    0    0  0.27243901595E+03 -0.34144875971E+02  0.67155363064E+03  0.11525675590E+04  0.89556619474E+03 0.  0.
        -24    2    4    4    0    0  0.45198260049E+03 -0.34093323721E+03  0.40045537440E+03  0.69793633964E+03  0.78910607157E+02 0.  0.
         24    2    4    4    0    0 -0.17954358455E+03  0.30678836124E+03  0.27109825625E+03  0.45463121932E+03  0.82706007646E+02 0.  0.
         13    1    3    3    0    0 -0.68074130816E+02  0.31409296338E+02  0.10444847231E+02  0.75694953705E+02  0.00000000000E+00 0.  1.
        -13    1    3    3    0    0 -0.20436488513E+03  0.27355796338E+01  0.16315319018E+03  0.26151759623E+03  0.00000000000E+00 0. -1.
          4    1    6    6  502    0 -0.16453774217E+03  0.24956707040E+03  0.18980950217E+03  0.35409608631E+03  0.00000000000E+00 0. -1.
          1    1    5    5  503    0  0.27381579586E+03 -0.24265623718E+03  0.22701636435E+03  0.43057353517E+03  0.00000000000E+00 0. -1.
         -2    1    5    5    0  503  0.17816680463E+03 -0.98277000027E+02  0.17343901005E+03  0.26736280447E+03  0.00000000000E+00 0.  1.
         -3    1    6    6    0  502 -0.15005842375E+02  0.57221290839E+02  0.81288754076E+02  0.10053513301E+03  0.00000000000E+00 0.  1.
<mgrwt>
<rscale>  0 0.12268510E+04</rscale>
<asrwt>0</asrwt>
<pdfrwt beam="1">  1        2 0.17961014E+00 0.12268510E+04</pdfrwt>
<pdfrwt beam="2">  1       -2 0.49586804E-01 0.12268510E+04</pdfrwt>
<totfact> 0.75097706E+01</totfact>
</mgrwt>
</event>
<event>
12    1  0.1472088E-007  0.2463590E+04  0.7818608E-02  0.8416073E-01
         -1   -1    0    0    0  501 -0.00000000000E+00  0.00000000000E+00  0.23133719249E+04  0.23133719249E+04  0.00000000000E+00 0.  1.
          1   -1    0    0  501    0  0.00000000000E+00 -0.00000000000E+00 -0.65589041625E+03  0.65589041625E+03  0.00000000000E+00 0. -1.
         23    2    1    2    0    0  0.64329384081E+03 -0.23399056894E+03  0.18210328758E+04  0.19474581502E+04  0.88622572165E+02 0.  0.
        254    2    1    2    0    0 -0.64329384081E+03  0.23399056894E+03 -0.16355136715E+03  0.10218041909E+04  0.74078080621E+03 0.  0.
        -24    2    4    4    0    0 -0.19733968125E+03  0.18233953762E+03 -0.41541671273E+03  0.50083662882E+03  0.77946306987E+02 0.  0.
         24    2    4    4    0    0 -0.44595415956E+03  0.51651031319E+02  0.25186534559E+03  0.52096756207E+03  0.80175476056E+02 0.  0.
         11    1    3    3    0    0  0.64093654539E+03 -0.22981451631E+03  0.17740037613E+04  0.19001851784E+04  0.00000000000E+00 0.  1.
        -11    1    3    3    0    0  0.23572954129E+01 -0.41760526303E+01  0.47029114500E+02  0.47272971854E+02  0.00000000000E+00 0. -1.
          2    1    6    6  502    0 -0.60332540293E+02 -0.13222292280E+02  0.14226372227E+02  0.63381654271E+02  0.00000000000E+00 0. -1.
          3    1    5    5  503    0 -0.48351184694E+02  0.19117365282E+02 -0.12891349169E+03  0.13900359368E+03  0.00000000000E+00 0. -1.
         -4    1    5    5    0  503 -0.14898849655E+03  0.16322217234E+03 -0.28650322104E+03  0.36183303514E+03  0.00000000000E+00 0.  1.
         -1    1    6    6    0  502 -0.38562161926E+03  0.64873323600E+02  0.23763897336E+03  0.45758590780E+03  0.00000000000E+00 0.  1.
<mgrwt>
<rscale>  0 0.24635896E+04</rscale>
<asrwt>0</asrwt>
<pdfrwt beam="1">  1        1 0.10090622E+00 0.24635896E+04</pdfrwt>
<pdfrwt beam="2">  1       -1 0.35590337E+00 0.24635896E+04</pdfrwt>
<totfact> 0.38032453E-01</totfact>
</mgrwt>
</event>
<event>
12    1  0.1472088E-007  0.2472374E+04  0.7818608E-02  0.8412894E-01
         -2   -1    0    0    0  501 -0.00000000000E+00  0.00000000000E+00  0.69832033689E+03  0.69832033689E+03  0.00000000000E+00 0.  1.
          2   -1    0    0  501    0  0.00000000000E+00 -0.00000000000E+00 -0.21883336383E+04  0.21883336383E+04  0.00000000000E+00 0. -1.
         23    2    1    2    0    0 -0.74718770771E+03  0.64617808651E+03 -0.16930065643E+03  0.10064130539E+04  0.91481871038E+02 0.  0.
        254    2    1    2    0    0  0.74718770771E+03 -0.64617808651E+03 -0.13207126450E+04  0.18802409213E+04  0.90287786635E+03 0.  0.
        -24    2    4    4    0    0  0.24045185387E+03 -0.75706477889E+03 -0.65724643181E+03  0.10342107916E+04  0.81577667984E+02 0.  0.
         24    2    4    4    0    0  0.50673585384E+03  0.11088669238E+03 -0.66346621319E+03  0.84603012971E+03  0.80637957664E+02 0.  0.
         13    1    3    3    0    0 -0.71005193085E+03  0.63133978781E+03 -0.17467952533E+03  0.96606242487E+03  0.00000000000E+00 0.  1.
        -13    1    3    3    0    0 -0.37135776861E+02  0.14838298693E+02  0.53788689000E+01  0.40350629014E+02  0.00000000000E+00 0. -1.
          2    1    6    6  502    0  0.43868513325E+03  0.12055196433E+03 -0.55523934995E+03  0.71782181491E+03  0.00000000000E+00 0. -1.
          1    1    5    5  503    0  0.12885537754E+03 -0.27499843716E+03 -0.24813538427E+03  0.39217217863E+03  0.00000000000E+00 0. -1.
         -2    1    5    5    0  503  0.11159647633E+03 -0.48206634173E+03 -0.40911104754E+03  0.64203861300E+03  0.00000000000E+00 0.  1.
         -1    1    6    6    0  502  0.68050720593E+02 -0.96652719521E+01 -0.10822686324E+03  0.12820831480E+03  0.00000000000E+00 0.  1.
<mgrwt>
<rscale>  0 0.24723737E+04</rscale>
<asrwt>0</asrwt>
<pdfrwt beam="1">  1        2 0.33666671E+00 0.24723737E+04</pdfrwt>
<pdfrwt beam="2">  1       -2 0.10743390E+00 0.24723737E+04</pdfrwt>
<totfact> 0.32594803E+00</totfact>
</mgrwt>
</event>
<event>
12    1  0.1472088E-007  0.2078652E+04  0.7818608E-02  0.8570706E-01
         -1   -1    0    0    0  501 -0.00000000000E+00  0.00000000000E+00  0.62512407099E+03  0.62512407099E+03  0.00000000000E+00 0.  1.
          1   -1    0    0  501    0  0.00000000000E+00 -0.00000000000E+00 -0.17279753382E+04  0.17279753382E+04  0.00000000000E+00 0. -1.
         23    2    1    2    0    0 -0.57760395025E+03 -0.40573350532E+03 -0.96472987911E+03  0.11987998388E+04  0.90395315706E+02 0.  0.
        254    2    1    2    0    0  0.57760395025E+03  0.40573350532E+03 -0.13812138806E+03  0.11542995704E+04  0.90282001509E+03 0.  0.
        -24    2    4    4    0    0  0.44161344120E+03  0.51490329532E+03 -0.42866664047E+03  0.80639272668E+03  0.79789134695E+02 0.  0.
         24    2    4    4    0    0  0.13599050905E+03 -0.10916978999E+03  0.29054525241E+03  0.34790684370E+03  0.78810954796E+02 0.  0.
         11    1    3    3    0    0 -0.45172465664E+03 -0.28434494620E+03 -0.77200476563E+03  0.93856197025E+03  0.00000000000E+00 0. -1.
        -11    1    3    3    0    0 -0.12587929361E+03 -0.12138855912E+03 -0.19272511348E+03  0.26023786852E+03  0.00000000000E+00 0.  1.
          4    1    6    6  502    0  0.13594575804E+03 -0.11133459686E+03  0.29476373117E+03  0.34316511886E+03  0.00000000000E+00 0. -1.
          1    1    5    5  503    0  0.22335471689E+03  0.22576007587E+03 -0.23909180738E+03  0.39751708614E+03  0.00000000000E+00 0. -1.
         -2    1    5    5    0  503  0.21825872431E+03  0.28914321945E+03 -0.18957483309E+03  0.40887564055E+03  0.00000000000E+00 0.  1.
         -3    1    6    6    0  502  0.44751014295E-01  0.21648068696E+01 -0.42184787599E+01  0.47417248427E+01  0.00000000000E+00 0.  1.
<mgrwt>
<rscale>  0 0.20786524E+04</rscale>
<asrwt>0</asrwt>
<pdfrwt beam="1">  1        1 0.26584236E+00 0.20786524E+04</pdfrwt>
<pdfrwt beam="2">  1       -1 0.96172934E-01 0.20786524E+04</pdfrwt>
<totfact> 0.43765963E+00</totfact>
</mgrwt>
</event>
<event>
12    1  0.1472088E-007  0.1464681E+04  0.7818608E-02  0.8908285E-01
         -1   -1    0    0    0  501 -0.00000000000E+00  0.00000000000E+00  0.28804678017E+03  0.28804678017E+03  0.00000000000E+00 0.  1.
          1   -1    0    0  501    0  0.00000000000E+00 -0.00000000000E+00 -0.18619296612E+04  0.18619296612E+04  0.00000000000E+00 0. -1.
         23    2    1    2    0    0 -0.14674003944E+03  0.25679004063E+03  0.76200325352E+01  0.30949230695E+03  0.90849650628E+02 0.  0.
        254    2    1    2    0    0  0.14674003944E+03 -0.25679004063E+03 -0.15815029135E+04  0.18404841344E+04  0.89373184978E+03 0.  0.
        -24    2    4    4    0    0  0.32791397833E+03  0.22401406435E+03 -0.52391403092E+03  0.66192972930E+03  0.77169790287E+02 0.  0.
         24    2    4    4    0    0 -0.18117393889E+03 -0.48080410499E+03 -0.10575888826E+04  0.11785544051E+04  0.80620454141E+02 0.  0.
         11    1    3    3    0    0 -0.87740701735E+02  0.16801443792E+03 -0.38389734821E+02  0.19339352065E+03  0.00000000000E+00 0. -1.
        -11    1    3    3    0    0 -0.58999337704E+02  0.88775602714E+02  0.46009767356E+02  0.11609878629E+03  0.00000000000E+00 0.  1.
          4    1    6    6  502    0  0.65647194660E+01 -0.46300374557E+02 -0.94373572428E+02  0.10532422038E+03  0.00000000000E+00 0. -1.
          3    1    5    5  503    0  0.55429099574E+02  0.44991491501E+02 -0.51899960236E+02  0.88262252745E+02  0.00000000000E+00 0. -1.
         -4    1    5    5    0  503  0.27248487876E+03  0.17902257285E+03 -0.47201407068E+03  0.57366747656E+03  0.00000000000E+00 0.  1.
         -3    1    6    6    0  502 -0.18773865836E+03 -0.43450373043E+03 -0.96321531020E+03  0.10732301847E+04  0.00000000000E+00 0.  1.
<mgrwt>
<rscale>  0 0.14646813E+04</rscale>
<asrwt>0</asrwt>
<pdfrwt beam="1">  1        1 0.28645072E+00 0.14646813E+04</pdfrwt>
<pdfrwt beam="2">  1       -1 0.44314889E-01 0.14646813E+04</pdfrwt>
<totfact> 0.18085457E+01</totfact>
</mgrwt>
</event>
<event>
12    1  0.1472088E-007  0.1455774E+04  0.7818608E-02  0.8914407E-01
          1   -1    0    0  501    0  0.00000000000E+00  0.00000000000E+00  0.18381560594E+04  0.18381560594E+04  0.00000000000E+00 0. -1.
         -1   -1    0    0    0  501 -0.00000000000E+00 -0.00000000000E+00 -0.28823438634E+03  0.28823438634E+03  0.00000000000E+00 0.  1.
         23    2    1    2    0    0 -0.10677279807E+03 -0.80385658636E+02  0.11018942998E+04  0.11132234015E+04  0.85047099128E+02 0.  0.
        254    2    1    2    0    0  0.10677279807E+03  0.80385658636E+02  0.44802737320E+03  0.10131670442E+04  0.89884183695E+03 0.  0.
        -24    2    4    4    0    0 -0.19643995691E+03  0.37684625105E+03  0.38109312024E+03  0.57665158241E+03  0.81812759432E+02 0.  0.
         24    2    4    4    0    0  0.30321275497E+03 -0.29646059241E+03  0.66934252965E+02  0.43651546182E+03  0.78985419899E+02 0.  0.
         13    1    3    3    0    0 -0.64734229745E+02 -0.59359136323E+02  0.38948064966E+03  0.39926082206E+03  0.00000000000E+00 0. -1.
        -13    1    3    3    0    0 -0.42038568322E+02 -0.21026522313E+02  0.71241365016E+03  0.71396257942E+03  0.00000000000E+00 0.  1.
          4    1    6    6  502    0  0.81691277245E+01 -0.37665481685E+02  0.99800716595E+00  0.38554107131E+02  0.00000000000E+00 0. -1.
          3    1    5    5  503    0 -0.18097598228E+02  0.50755038863E+01  0.74822558826E+01  0.20230372078E+02  0.00000000000E+00 0. -1.
         -4    1    5    5    0  503 -0.17834235868E+03  0.37177074716E+03  0.37361086436E+03  0.55642121033E+03  0.00000000000E+00 0.  1.
         -3    1    6    6    0  502  0.29504362725E+03 -0.25879511072E+03  0.65936245799E+02  0.39796135469E+03  0.00000000000E+00 0.  1.
<mgrwt>
<rscale>  0 0.14557744E+04</rscale>
<asrwt>0</asrwt>
<pdfrwt beam="1">  1        1 0.28279323E+00 0.14557744E+04</pdfrwt>
<pdfrwt beam="2">  1       -1 0.44343753E-01 0.14557744E+04</pdfrwt>
<totfact> 0.18760445E+01</totfact>
</mgrwt>
</event>
<event>
12    1  0.1472088E-007  0.2645429E+04  0.7818608E-02  0.8352932E-01
         -2   -1    0    0    0  501 -0.00000000000E+00  0.00000000000E+00  0.71710603376E+03  0.71710603376E+03  0.00000000000E+00 0.  1.
          2   -1    0    0  501    0  0.00000000000E+00 -0.00000000000E+00 -0.24397689640E+04  0.24397689640E+04  0.00000000000E+00 0. -1.
         23    2    1    2    0    0 -0.13160724178E+03 -0.52180705692E+03 -0.19999633682E+04  0.20730886419E+04  0.90774293114E+02 0.  0.
        254    2    1    2    0    0  0.13160724178E+03  0.52180705692E+03  0.27730043795E+03  0.10837863559E+04  0.89894063294E+03 0.  0.
        -24    2    4    4    0    0 -0.18579783530E+03  0.21893418385E+03 -0.25306810714E+03  0.39178172081E+03  0.83644709669E+02 0.  0.
         24    2    4    4    0    0  0.31740507708E+03  0.30287287308E+03  0.53036854508E+03  0.69200463506E+03  0.71425913524E+02 0.  0.
         11    1    3    3    0    0 -0.12849318356E+03 -0.40889687826E+03 -0.16784568398E+04  0.17323176724E+04  0.00000000000E+00 0. -1.
        -11    1    3    3    0    0 -0.31140582168E+01 -0.11291017867E+03 -0.32150652841E+03  0.34077096945E+03  0.00000000000E+00 0.  1.
          4    1    6    6  502    0  0.28182455362E+03  0.29153498296E+03  0.50078785900E+03  0.64436496260E+03  0.00000000000E+00 0. -1.
          1    1    5    5  503    0 -0.12134446514E+03  0.10754497370E+03 -0.18568899320E+03  0.24651734784E+03  0.00000000000E+00 0. -1.
         -2    1    5    5    0  503 -0.64453370163E+02  0.11138921014E+03 -0.67379113934E+02  0.14526437298E+03  0.00000000000E+00 0.  1.
         -3    1    6    6    0  502  0.35580523462E+02  0.11337890118E+02  0.29580686089E+02  0.47639672456E+02  0.00000000000E+00 0.  1.
<mgrwt>
<rscale>  0 0.26454285E+04</rscale>
<asrwt>0</asrwt>
<pdfrwt beam="1">  1        2 0.37534906E+00 0.26454285E+04</pdfrwt>
<pdfrwt beam="2">  1       -2 0.11032401E+00 0.26454285E+04</pdfrwt>
<totfact> 0.21678077E+00</totfact>
</mgrwt>
</event>
<event>
12    1  0.1472088E-007  0.2616603E+04  0.7818608E-02  0.8362583E-01
         -1   -1    0    0    0  501 -0.00000000000E+00  0.00000000000E+00  0.98195039702E+03  0.98195039702E+03  0.00000000000E+00 0.  1.
          1   -1    0    0  501    0  0.00000000000E+00 -0.00000000000E+00 -0.17431151170E+04  0.17431151170E+04  0.00000000000E+00 0. -1.
         23    2    1    2    0    0  0.76410173501E+03 -0.53100363073E+03  0.38260643242E+03  0.10090932043E+04  0.77878722704E+02 0.  0.
        254    2    1    2    0    0 -0.76410173501E+03  0.53100363073E+03 -0.11437711524E+04  0.17159723098E+04  0.87779963631E+03 0.  0.
        -24    2    4    4    0    0 -0.46285003352E+03 -0.14317707483E+03 -0.24080383749E+03  0.54685734986E+03  0.79603044260E+02 0.  0.
         24    2    4    4    0    0 -0.30125170149E+03  0.67418070556E+03 -0.90296731493E+03  0.11691149599E+04  0.78788363850E+02 0.  0.
         11    1    3    3    0    0  0.45599028752E+03 -0.31046808228E+03  0.26753486826E+03  0.61310070801E+03  0.00000000000E+00 0.  1.
        -11    1    3    3    0    0  0.30811144749E+03 -0.22053554846E+03  0.11507156417E+03  0.39599249625E+03  0.00000000000E+00 0. -1.
          4    1    6    6  502    0 -0.16383492332E+03  0.29535801334E+03 -0.37046104778E+03  0.50131788924E+03  0.00000000000E+00 0. -1.
          3    1    5    5  503    0 -0.46567004258E+03 -0.13987774254E+03 -0.23630310948E+03  0.54060478260E+03  0.00000000000E+00 0. -1.
         -4    1    5    5    0  503  0.28200090655E+01 -0.32993322854E+01 -0.45007280116E+01  0.62525672562E+01  0.00000000000E+00 0.  1.
         -3    1    6    6    0  502 -0.13741677817E+03  0.37882269222E+03 -0.53250626715E+03  0.66779707068E+03  0.00000000000E+00 0.  1.
<mgrwt>
<rscale>  0 0.26166028E+04</rscale>
<asrwt>0</asrwt>
<pdfrwt beam="1">  1        1 0.26817155E+00 0.26166028E+04</pdfrwt>
<pdfrwt beam="2">  1       -1 0.15106929E+00 0.26166028E+04</pdfrwt>
<totfact> 0.13406659E+00</totfact>
</mgrwt>
</event>
<event>
12    1  0.1472088E-007  0.1371063E+04  0.7818608E-02  0.8975035E-01
         -2   -1    0    0    0  501 -0.00000000000E+00  0.00000000000E+00  0.83616421258E+03  0.83616421258E+03  0.00000000000E+00 0.  1.
          2   -1    0    0  501    0  0.00000000000E+00 -0.00000000000E+00 -0.56203449147E+03  0.56203449147E+03  0.00000000000E+00 0. -1.
         23    2    1    2    0    0 -0.31829154622E+03  0.22163322567E+03  0.87808558424E+02  0.40742311058E+03  0.88614067618E+02 0.  0.
        254    2    1    2    0    0  0.31829154622E+03 -0.22163322567E+03  0.18632116269E+03  0.99077559348E+03  0.89246283163E+03 0.  0.
        -24    2    4    4    0    0  0.16912926591E+03 -0.55808301352E+03  0.52235401136E+02  0.59105075814E+03  0.80938884357E+02 0.  0.
         24    2    4    4    0    0  0.14916228031E+03  0.33644978785E+03  0.13408576155E+03  0.39972483534E+03  0.79706379440E+02 0.  0.
         11    1    3    3    0    0 -0.43297989277E+02  0.32778534570E+01 -0.63313004575E+01  0.43881038778E+02  0.00000000000E+00 0. -1.
        -11    1    3    3    0    0 -0.27499355695E+03  0.21835537222E+03  0.94139858881E+02  0.36354207180E+03  0.00000000000E+00 0.  1.
          2    1    6    6  502    0  0.90050369159E+02  0.13744785436E+03  0.28331599203E+02  0.16674429876E+03  0.00000000000E+00 0. -1.
          1    1    5    5  503    0  0.29973137758E+01 -0.37470678973E+02  0.22403534072E+02  0.43760187517E+02  0.00000000000E+00 0. -1.
         -2    1    5    5    0  503  0.16613195213E+03 -0.52061233455E+03  0.29831867064E+02  0.54729057062E+03  0.00000000000E+00 0.  1.
         -1    1    6    6    0  502  0.59111911155E+02  0.19900193349E+03  0.10575416235E+03  0.23298053658E+03  0.00000000000E+00 0.  1.
<mgrwt>
<rscale>  0 0.13710625E+04</rscale>
<asrwt>0</asrwt>
<pdfrwt beam="1">  1        2 0.86466845E-01 0.13710625E+04</pdfrwt>
<pdfrwt beam="2">  1       -2 0.12864065E+00 0.13710625E+04</pdfrwt>
<totfact> 0.23328917E+01</totfact>
</mgrwt>
</event>
<event>
12    1  0.1472088E-007  0.1051031E+04  0.7818608E-02  0.9254281E-01
         -1   -1    0    0    0  501 -0.00000000000E+00  0.00000000000E+00  0.12390086295E+03  0.12390086295E+03  0.00000000000E+00 0.  1.
          1   -1    0    0  501    0  0.00000000000E+00 -0.00000000000E+00 -0.22289295966E+04  0.22289295966E+04  0.00000000000E+00 0. -1.
         23    2    1    2    0    0 -0.12228825121E+02  0.10619530522E+03 -0.33518786359E+03  0.36338821355E+03  0.90956598644E+02 0.  0.
        254    2    1    2    0    0  0.12228825121E+02 -0.10619530522E+03 -0.17698408701E+04  0.19894422460E+04  0.90228418906E+03 0.  0.
        -24    2    4    4    0    0 -0.79281370520E+02 -0.19166596186E+03 -0.85953987453E+01  0.22197095981E+03  0.78586573121E+02 0.  0.
         24    2    4    4    0    0  0.91510195641E+02  0.85470656640E+02 -0.17612454713E+04  0.17674712862E+04  0.79308185025E+02 0.  0.
         13    1    3    3    0    0 -0.46676708568E+00  0.10877772255E+03 -0.33402357107E+03  0.35128984731E+03  0.00000000000E+00 0. -1.
        -13    1    3    3    0    0 -0.11762058035E+02 -0.25824173327E+01 -0.11642925153E+01  0.12098366235E+02  0.00000000000E+00 0.  1.
          4    1    6    6  502    0  0.74097052751E+02  0.73131938666E+02 -0.16872708698E+04  0.16904797075E+04  0.00000000000E+00 0. -1.
          3    1    5    5  503    0 -0.95030579627E+02 -0.15867499304E+03 -0.11397050590E+02  0.18530638748E+03  0.00000000000E+00 0. -1.
         -4    1    5    5    0  503  0.15749209107E+02 -0.32990968820E+02  0.28016518444E+01  0.36664572331E+02  0.00000000000E+00 0.  1.
         -3    1    6    6    0  502  0.17413142890E+02  0.12338717974E+02 -0.73974601563E+02  0.76991578650E+02  0.00000000000E+00 0.  1.
<mgrwt>
<rscale>  0 0.10510305E+04</rscale>
<asrwt>0</asrwt>
<pdfrwt beam="1">  1        1 0.34291224E+00 0.10510305E+04</pdfrwt>
<pdfrwt beam="2">  1       -1 0.19061671E-01 0.10510305E+04</pdfrwt>
<totfact> 0.46422865E+01</totfact>
</mgrwt>
</event>
<event>
12    1  0.1472088E-007  0.2176770E+04  0.7818608E-02  0.8528160E-01
          1   -1    0    0  501    0  0.00000000000E+00  0.00000000000E+00  0.45561215887E+03  0.45561215887E+03  0.00000000000E+00 0. -1.
         -1   -1    0    0    0  501 -0.00000000000E+00 -0.00000000000E+00 -0.25999778355E+04  0.25999778355E+04  0.00000000000E+00 0.  1.
         23    2    1    2    0    0  0.40060079921E+03  0.75202461854E+03 -0.49025576902E+03  0.98729510214E+03  0.91536180931E+02 0.  0.
        254    2    1    2    0    0 -0.40060079921E+03 -0.75202461854E+03 -0.16541099076E+04  0.20682948923E+04  0.90318444828E+03 0.  0.
        -24    2    4    4    0    0 -0.13612768473E+03 -0.62843621957E+03 -0.36381618001E+03  0.74303713744E+03  0.79241063580E+02 0.  0.
         24    2    4    4    0    0 -0.26447311448E+03 -0.12358839897E+03 -0.12902937276E+04  0.13252577548E+04  0.78930935216E+02 0.  0.
         13    1    3    3    0    0  0.39391178385E+03  0.71855146633E+03 -0.48644320471E+03  0.95294789712E+03  0.00000000000E+00 0. -1.
        -13    1    3    3    0    0  0.66890153612E+01  0.33473152214E+02 -0.38125643098E+01  0.34347205013E+02  0.00000000000E+00 0.  1.
          2    1    6    6  502    0 -0.24043261670E+03 -0.13470104507E+03 -0.11935165137E+04  0.12249219906E+04  0.00000000000E+00 0. -1.
          3    1    5    5  503    0 -0.11648953262E+03 -0.40598483004E+03 -0.26666527551E+03  0.49950361620E+03  0.00000000000E+00 0. -1.
         -4    1    5    5    0  503 -0.19638152115E+02 -0.22245138953E+03 -0.97150904502E+02  0.24353352124E+03  0.00000000000E+00 0.  1.
         -1    1    6    6    0  502 -0.24040497777E+02  0.11112646094E+02 -0.96777213943E+02  0.10033576419E+03  0.00000000000E+00 0.  1.
<mgrwt>
<rscale>  0 0.21767696E+04</rscale>
<asrwt>0</asrwt>
<pdfrwt beam="1">  1        1 0.70094179E-01 0.21767696E+04</pdfrwt>
<pdfrwt beam="2">  1       -1 0.39999659E+00 0.21767696E+04</pdfrwt>
<totfact> 0.32939689E-01</totfact>
</mgrwt>
</event>
<event>
12    1  0.1472088E-007  0.1951860E+04  0.7818608E-02  0.8629464E-01
          1   -1    0    0  501    0  0.00000000000E+00  0.00000000000E+00  0.18103564159E+04  0.18103564159E+04  0.00000000000E+00 0. -1.
         -1   -1    0    0    0  501 -0.00000000000E+00 -0.00000000000E+00 -0.52610594647E+03  0.52610594647E+03  0.00000000000E+00 0.  1.
         23    2    1    2    0    0 -0.44230098354E+02  0.13160892108E+03 -0.38979170820E+03  0.42414788800E+03  0.93202174886E+02 0.  0.
        254    2    1    2    0    0  0.44230098354E+02 -0.13160892108E+03  0.16740421776E+04  0.19123144744E+04  0.91392134603E+03 0.  0.
        -24    2    4    4    0    0  0.27550843695E+03 -0.13653473627E+03  0.16335537768E+04  0.16641457998E+04  0.79603192154E+02 0.  0.
         24    2    4    4    0    0 -0.23127833860E+03  0.49258151871E+01  0.40488400835E+02  0.24816867460E+03  0.80215004147E+02 0.  0.
         11    1    3    3    0    0 -0.74048790682E+01  0.77354930819E+02 -0.97953716676E+02  0.12503418799E+03  0.00000000000E+00 0.  1.
        -11    1    3    3    0    0 -0.36825219286E+02  0.54253990261E+02 -0.29183799153E+03  0.29911370001E+03  0.00000000000E+00 0. -1.
          4    1    6    6  502    0 -0.11301659206E+03  0.40448042577E+02  0.32853644573E+02  0.12445142101E+03  0.00000000000E+00 0. -1.
          1    1    5    5  503    0  0.25067278205E+03 -0.10275406339E+03  0.12971316714E+04  0.13251210564E+04  0.00000000000E+00 0. -1.
         -2    1    5    5    0  503  0.24835654897E+02 -0.33780672875E+02  0.33642210541E+03  0.33902474338E+03  0.00000000000E+00 0.  1.
         -3    1    6    6    0  502 -0.11826174654E+03 -0.35522227390E+02  0.76347562615E+01  0.12371725359E+03  0.00000000000E+00 0.  1.
<mgrwt>
<rscale>  0 0.19518599E+04</rscale>
<asrwt>0</asrwt>
<pdfrwt beam="1">  1        1 0.27851637E+00 0.19518599E+04</pdfrwt>
<pdfrwt beam="2">  1       -1 0.80939377E-01 0.19518599E+04</pdfrwt>
<totfact> 0.56804029E+00</totfact>
</mgrwt>
</event>
<event>
12    1  0.1472088E-007  0.2282973E+04  0.7818608E-02  0.8484665E-01
         -1   -1    0    0    0  501 -0.00000000000E+00  0.00000000000E+00  0.12980651773E+04  0.12980651773E+04  0.00000000000E+00 0.  1.
          1   -1    0    0  501    0  0.00000000000E+00 -0.00000000000E+00 -0.10037952565E+04  0.10037952565E+04  0.00000000000E+00 0. -1.
         23    2    1    2    0    0 -0.19761224020E+03 -0.28138821820E+03 -0.78488821376E+03  0.86162155093E+03  0.90068097065E+02 0.  0.
        254    2    1    2    0    0  0.19761224020E+03  0.28138821820E+03  0.10791581345E+04  0.14402388829E+04  0.88964927567E+03 0.  0.
        -24    2    4    4    0    0  0.28125649873E+03  0.15909852679E+03  0.11914337151E+04  0.12372155238E+04  0.82282412786E+02 0.  0.
         24    2    4    4    0    0 -0.83644258524E+02  0.12228969141E+03 -0.11227558065E+03  0.20302335908E+03  0.81618305006E+02 0.  0.
         13    1    3    3    0    0 -0.14198747123E+03 -0.16436811195E+03 -0.39516072814E+03  0.45092052435E+03  0.00000000000E+00 0. -1.
        -13    1    3    3    0    0 -0.55624768972E+02 -0.11702010625E+03 -0.38972748562E+03  0.41070102659E+03  0.00000000000E+00 0.  1.
          2    1    6    6  502    0 -0.71696680969E+02  0.11708830407E+03 -0.12436538048E+03  0.18524803069E+03  0.00000000000E+00 0. -1.
          3    1    5    5  503    0  0.20998181006E+03  0.12031043378E+03  0.10078436832E+04  0.10364920891E+04  0.00000000000E+00 0. -1.
         -4    1    5    5    0  503  0.71274688667E+02  0.38788093003E+02  0.18359003195E+03  0.20072343469E+03  0.00000000000E+00 0.  1.
         -1    1    6    6    0  502 -0.11947577555E+02  0.52013873470E+01  0.12089799827E+02  0.17775328397E+02  0.00000000000E+00 0.  1.
<mgrwt>
<rscale>  0 0.22829732E+04</rscale>
<asrwt>0</asrwt>
<pdfrwt beam="1">  1        1 0.15443004E+00 0.22829732E+04</pdfrwt>
<pdfrwt beam="2">  1       -1 0.19970234E+00 0.22829732E+04</pdfrwt>
<totfact> 0.20570458E+00</totfact>
</mgrwt>
</event>
<event>
12    1  0.1472088E-007  0.3376102E+04  0.7818608E-02  0.8143797E-01
          2   -1    0    0  501    0  0.00000000000E+00  0.00000000000E+00  0.30548658140E+04  0.30548658140E+04  0.00000000000E+00 0. -1.
         -2   -1    0    0    0  501 -0.00000000000E+00 -0.00000000000E+00 -0.93277941127E+03  0.93277941127E+03  0.00000000000E+00 0.  1.
         23    2    1    2    0    0 -0.12494308227E+04  0.92512423516E+03  0.11922881320E+04  0.19613407587E+04  0.91511480591E+02 0.  0.
        254    2    1    2    0    0  0.12494308227E+04 -0.92512423516E+03  0.92979827078E+03  0.20263044666E+04  0.90799379724E+03 0.  0.
        -24    2    4    4    0    0  0.74594135521E+03 -0.37208658250E+02  0.56325717550E+03  0.93885080304E+03  0.79807236220E+02 0.  0.
         24    2    4    4    0    0  0.50348946745E+03 -0.88791557691E+03  0.36654109528E+03  0.10874536635E+04  0.79419016990E+02 0.  0.
         13    1    3    3    0    0 -0.75778256340E+03  0.53336065116E+03  0.75918055741E+03  0.11979411990E+04  0.00000000000E+00 0. -1.
        -13    1    3    3    0    0 -0.49164825925E+03  0.39176358400E+03  0.43310757456E+03  0.76339955967E+03  0.00000000000E+00 0.  1.
          2    1    6    6  502    0  0.21599888410E+03 -0.36086415722E+03  0.11100668475E+03  0.43497234620E+03  0.00000000000E+00 0. -1.
          1    1    5    5  503    0  0.32267930040E+03 -0.80841812538E+01  0.29218157922E+03  0.43538185553E+03  0.00000000000E+00 0. -1.
         -2    1    5    5    0  503  0.42326205481E+03 -0.29124476996E+02  0.27107559628E+03  0.50346894751E+03  0.00000000000E+00 0.  1.
         -1    1    6    6    0  502  0.28749058335E+03 -0.52705141969E+03  0.25553441052E+03  0.65248131734E+03  0.00000000000E+00 0.  1.
<mgrwt>
<rscale>  0 0.33761019E+04</rscale>
<asrwt>0</asrwt>
<pdfrwt beam="1">  1        2 0.46997935E+00 0.33761019E+04</pdfrwt>
<pdfrwt beam="2">  1       -2 0.14350453E+00 0.33761019E+04</pdfrwt>
<totfact> 0.44900400E-01</totfact>
</mgrwt>
</event>
<event>
12    1  0.1472088E-007  0.1296448E+04  0.7818608E-02  0.9032387E-01
         -1   -1    0    0    0  501 -0.00000000000E+00  0.00000000000E+00  0.10220883369E+04  0.10220883369E+04  0.00000000000E+00 0.  1.
          1   -1    0    0  501    0  0.00000000000E+00 -0.00000000000E+00 -0.41111336141E+03  0.41111336141E+03  0.00000000000E+00 0. -1.
         23    2    1    2    0    0  0.19254102929E+03 -0.10097367483E+03 -0.10748785301E+03  0.25962400485E+03  0.92645854629E+02 0.  0.
        254    2    1    2    0    0 -0.19254102929E+03  0.10097367483E+03  0.71846282846E+03  0.11735776934E+04  0.90212417974E+03 0.  0.
        -24    2    4    4    0    0 -0.25624543723E+03 -0.33692796738E+03  0.53748909261E+03  0.68886770402E+03  0.80386626115E+02 0.  0.
         24    2    4    4    0    0  0.63704407931E+02  0.43790164221E+03  0.18097373585E+03  0.48470998941E+03  0.79850992021E+02 0.  0.
         13    1    3    3    0    0  0.73842658593E-01  0.61848348399E+01 -0.22790785226E+02  0.23615196928E+02  0.00000000000E+00 0.  1.
        -13    1    3    3    0    0  0.19246718664E+03 -0.10715850967E+03 -0.84697067781E+02  0.23600880792E+03  0.00000000000E+00 0. -1.
          2    1    6    6  502    0  0.80666813329E+02  0.38344979109E+03  0.16728416501E+03  0.42605735403E+03  0.00000000000E+00 0. -1.
          1    1    5    5  503    0 -0.17510164007E+03 -0.26513032049E+03  0.44262571296E+03  0.54485979203E+03  0.00000000000E+00 0. -1.
         -2    1    5    5    0  503 -0.81143797152E+02 -0.71797646894E+02  0.94863379652E+02  0.14400791199E+03  0.00000000000E+00 0.  1.
         -1    1    6    6    0  502 -0.16962405398E+02  0.54451851119E+02  0.13689570836E+02  0.58652635379E+02  0.00000000000E+00 0.  1.
<mgrwt>
<rscale>  0 0.12964477E+04</rscale>
<asrwt>0</asrwt>
<pdfrwt beam="1">  1        1 0.63248209E-01 0.12964477E+04</pdfrwt>
<pdfrwt beam="2">  1       -1 0.15724436E+00 0.12964477E+04</pdfrwt>
<totfact> 0.17434294E+01</totfact>
</mgrwt>
</event>
<event>
12    1  0.1472088E-007  0.1725374E+04  0.7818608E-02  0.8747024E-01
         -2   -1    0    0    0  501 -0.00000000000E+00  0.00000000000E+00  0.44603620689E+03  0.44603620689E+03  0.00000000000E+00 0. -1.
          2   -1    0    0  501    0  0.00000000000E+00 -0.00000000000E+00 -0.16685384456E+04  0.16685384456E+04  0.00000000000E+00 0.  1.
         23    2    1    2    0    0  0.61053522606E+02  0.11983109864E+03 -0.12002887225E+04  0.12112245508E+04  0.91021263428E+02 0.  0.
        254    2    1    2    0    0 -0.61053522606E+02 -0.11983109864E+03 -0.22213516213E+02  0.90335010165E+03  0.89300668587E+03 0.  0.
        -24    2    4    4    0    0 -0.23458019543E+03  0.14258151092E+03  0.32201619193E+03  0.43032068114E+03  0.78256663694E+02 0.  0.
         24    2    4    4    0    0  0.17352667282E+03 -0.26241260955E+03 -0.34422970814E+03  0.47302942050E+03  0.79314922052E+02 0.  0.
         11    1    3    3    0    0  0.68191059121E+02  0.48812180661E+02 -0.82152571566E+03  0.82579486013E+03  0.00000000000E+00 0.  1.
        -11    1    3    3    0    0 -0.71375365145E+01  0.71018917978E+02 -0.37876300683E+03  0.38542969071E+03  0.00000000000E+00 0. -1.
          2    1    6    6  502    0  0.17292437256E+03 -0.22159367418E+03 -0.27873247612E+03  0.39585147253E+03  0.00000000000E+00 0. -1.
          1    1    5    5  503    0 -0.18497121427E+03  0.14490388011E+03  0.25287431529E+03  0.34519111216E+03  0.00000000000E+00 0. -1.
         -2    1    5    5    0  503 -0.49608981158E+02 -0.23223691966E+01  0.69141876637E+02  0.85129568982E+02  0.00000000000E+00 0.  1.
         -1    1    6    6    0  502  0.60230026414E+00 -0.40818935375E+02 -0.65497232018E+02  0.77177947970E+02  0.00000000000E+00 0.  1.
<mgrwt>
<rscale>  0 0.17253737E+04</rscale>
<asrwt>0</asrwt>
<pdfrwt beam="1">  1        2 0.25669823E+00 0.17253737E+04</pdfrwt>
<pdfrwt beam="2">  1       -2 0.68620954E-01 0.17253737E+04</pdfrwt>
<totfact> 0.18823404E+01</totfact>
</mgrwt>
</event>
<event>
12    1  0.1472088E-007  0.1460547E+04  0.7818608E-02  0.8911121E-01
         -2   -1    0    0    0  501 -0.00000000000E+00  0.00000000000E+00  0.53408971949E+03  0.53408971949E+03  0.00000000000E+00 0.  1.
          2   -1    0    0  501    0  0.00000000000E+00 -0.00000000000E+00 -0.99852009782E+03  0.99852009782E+03  0.00000000000E+00 0. -1.
         23    2    1    2    0    0 -0.31997921083E+03  0.30081974303E+03 -0.17242161566E+03  0.48069049144E+03  0.91950648988E+02 0.  0.
        254    2    1    2    0    0  0.31997921083E+03 -0.30081974303E+03 -0.29200876267E+03  0.10519193259E+04  0.91015709497E+03 0.  0.
        -24    2    4    4    0    0  0.33106618255E+03 -0.29065197409E+03 -0.59150421063E+03  0.74199906315E+03  0.81252638429E+02 0.  0.
         24    2    4    4    0    0 -0.11086971723E+02 -0.10167768937E+02  0.29949544795E+03  0.30992026273E+03  0.78273504068E+02 0.  0.
         11    1    3    3    0    0 -0.17815310306E+03  0.13012739164E+03 -0.46269465406E+02  0.22541634727E+03  0.00000000000E+00 0.  1.
        -11    1    3    3    0    0 -0.14182610777E+03  0.17069235139E+03 -0.12615215025E+03  0.25527414417E+03  0.00000000000E+00 0. -1.
          4    1    6    6  502    0  0.14249479108E+02  0.26734748204E+02  0.72875163193E+02  0.78921377502E+02  0.00000000000E+00 0. -1.
          3    1    5    5  503    0  0.96274788980E+02 -0.46577543608E+02 -0.17609831849E+03  0.20603135766E+03  0.00000000000E+00 0. -1.
         -4    1    5    5    0  503  0.23479139357E+03 -0.24407443048E+03 -0.41540589213E+03  0.53596770549E+03  0.00000000000E+00 0.  1.
         -3    1    6    6    0  502 -0.25336450831E+02 -0.36902517141E+02  0.22662028476E+03  0.23099888523E+03  0.00000000000E+00 0.  1.
<mgrwt>
<rscale>  0 0.14605469E+04</rscale>
<asrwt>0</asrwt>
<pdfrwt beam="1">  1        2 0.15361848E+00 0.14605469E+04</pdfrwt>
<pdfrwt beam="2">  1       -2 0.82167649E-01 0.14605469E+04</pdfrwt>
<totfact> 0.31840999E+01</totfact>
</mgrwt>
</event>
<event>
12    1  0.1472088E-007  0.1650989E+04  0.7818608E-02  0.8789822E-01
          1   -1    0    0  501    0  0.00000000000E+00  0.00000000000E+00  0.33749361210E+03  0.33749361210E+03  0.00000000000E+00 0. -1.
         -1   -1    0    0    0  501 -0.00000000000E+00 -0.00000000000E+00 -0.20191220795E+04  0.20191220795E+04  0.00000000000E+00 0.  1.
         23    2    1    2    0    0  0.56088952871E+03  0.13057895720E+03 -0.57591872012E+03  0.81995371924E+03  0.94835657973E+02 0.  0.
        254    2    1    2    0    0 -0.56088952871E+03 -0.13057895720E+03 -0.11057097473E+04  0.15366619724E+04  0.89838079041E+03 0.  0.
        -24    2    4    4    0    0 -0.48295051261E+03 -0.45482390956E+03 -0.47890749866E+03  0.82209907416E+03  0.79928149880E+02 0.  0.
         24    2    4    4    0    0 -0.77939016104E+02  0.32424495235E+03 -0.62680224862E+03  0.71456289819E+03  0.80683314453E+02 0.  0.
         11    1    3    3    0    0  0.40257783880E+03  0.48995422568E+02 -0.39999369466E+03  0.56961778720E+03  0.00000000000E+00 0. -1.
        -11    1    3    3    0    0  0.15831168991E+03  0.81583534635E+02 -0.17592502546E+03  0.25033593204E+03  0.00000000000E+00 0.  1.
          4    1    6    6  502    0 -0.54043531330E+02  0.30674618102E+03 -0.54730185856E+03  0.62972473926E+03  0.00000000000E+00 0. -1.
          3    1    5    5  503    0 -0.38348322578E+03 -0.40114672883E+03 -0.40564961158E+03  0.68740795011E+03  0.00000000000E+00 0. -1.
         -4    1    5    5    0  503 -0.99467286827E+02 -0.53677180732E+02 -0.73257887074E+02  0.13469112405E+03  0.00000000000E+00 0.  1.
         -3    1    6    6    0  502 -0.23895484774E+02  0.17498771332E+02 -0.79500390058E+02  0.84838158927E+02  0.00000000000E+00 0.  1.
<mgrwt>
<rscale>  0 0.16509886E+04</rscale>
<asrwt>0</asrwt>
<pdfrwt beam="1">  1        1 0.51922095E-01 0.16509886E+04</pdfrwt>
<pdfrwt beam="2">  1       -1 0.31063416E+00 0.16509886E+04</pdfrwt>
<totfact> 0.20264972E+00</totfact>
</mgrwt>
</event>
<event>
12    1  0.1472088E-007  0.1641471E+04  0.7818608E-02  0.8795468E-01
         -2   -1    0    0    0  501 -0.00000000000E+00  0.00000000000E+00  0.20946469100E+04  0.20946469100E+04  0.00000000000E+00 0.  1.
          2   -1    0    0  501    0  0.00000000000E+00 -0.00000000000E+00 -0.32158480131E+03  0.32158480131E+03  0.00000000000E+00 0. -1.
         23    2    1    2    0    0  0.22319798190E+01 -0.35485672188E+03 -0.22553591449E+02  0.36683772446E+03  0.90183018368E+02 0.  0.
        254    2    1    2    0    0 -0.22319798190E+01  0.35485672188E+03  0.17956157001E+04  0.20493939869E+04  0.92187401306E+03 0.  0.
        -24    2    4    4    0    0  0.29880051137E+03  0.88044704888E+02  0.15239458942E+04  0.15575698054E+04  0.81111001625E+02 0.  0.
         24    2    4    4    0    0 -0.30103249119E+03  0.26681201700E+03  0.27166980590E+03  0.49182418141E+03  0.79229595621E+02 0.  0.
         11    1    3    3    0    0 -0.16728330834E+02 -0.76702122562E+01 -0.22747927538E+01  0.18543028087E+02  0.00000000000E+00 0.  1.
        -11    1    3    3    0    0  0.18960310653E+02 -0.34718650963E+03 -0.20278798695E+02  0.34829469638E+03  0.00000000000E+00 0. -1.
          4    1    6    6  502    0 -0.28112598113E+03  0.24370143397E+03  0.22116550715E+03  0.43282373749E+03  0.00000000000E+00 0. -1.
          3    1    5    5  503    0  0.23400181044E+03  0.33471650516E+02  0.10720854794E+04  0.10978362691E+04  0.00000000000E+00 0. -1.
         -4    1    5    5    0  503  0.64798700931E+02  0.54573054372E+02  0.45186041489E+03  0.45973353636E+03  0.00000000000E+00 0.  1.
         -3    1    6    6    0  502 -0.19906510059E+02  0.23110583023E+02  0.50504298753E+02  0.59000443921E+02  0.00000000000E+00 0.  1.
<mgrwt>
<rscale>  0 0.16414708E+04</rscale>
<asrwt>0</asrwt>
<pdfrwt beam="1">  1        2 0.49474586E-01 0.16414708E+04</pdfrwt>
<pdfrwt beam="2">  1       -2 0.32225336E+00 0.16414708E+04</pdfrwt>
<totfact> 0.22604843E+00</totfact>
</mgrwt>
</event>
<event>
12    1  0.1472088E-007  0.2526990E+04  0.7818608E-02  0.8393433E-01
         -1   -1    0    0    0  501 -0.00000000000E+00  0.00000000000E+00  0.16720452896E+04  0.16720452896E+04  0.00000000000E+00 0.  1.
          1   -1    0    0  501    0  0.00000000000E+00 -0.00000000000E+00 -0.95477022852E+03  0.95477022852E+03  0.00000000000E+00 0. -1.
         23    2    1    2    0    0 -0.72699445971E+03  0.38038478785E+02  0.11675051953E+04  0.13788397991E+04  0.90348992057E+02 0.  0.
        254    2    1    2    0    0  0.72699445971E+03 -0.38038478785E+02 -0.45023013420E+03  0.12479757190E+04  0.90816757875E+03 0.  0.
        -24    2    4    4    0    0  0.10253799183E+03  0.34626619754E+03 -0.34093695556E+03  0.50285408875E+03  0.78802966831E+02 0.  0.
         24    2    4    4    0    0  0.62445646788E+03 -0.38430467632E+03 -0.10929317864E+03  0.74512163022E+03  0.75001869374E+02 0.  0.
         11    1    3    3    0    0 -0.15704489663E+03 -0.25731752455E+02  0.22580970263E+03  0.27625213925E+03  0.00000000000E+00 0. -1.
        -11    1    3    3    0    0 -0.56994956308E+03  0.63770231240E+02  0.94169549267E+03  0.11025876599E+04  0.00000000000E+00 0.  1.
          2    1    6    6  502    0  0.25546600730E+03 -0.17311320292E+03 -0.11201091848E+02  0.30879852067E+03  0.00000000000E+00 0. -1.
          1    1    5    5  503    0  0.43274300014E+02  0.24854994488E+03 -0.26351529707E+03  0.36481509280E+03  0.00000000000E+00 0. -1.
         -2    1    5    5    0  503  0.59263691814E+02  0.97716252653E+02 -0.77421658489E+02  0.13803899595E+03  0.00000000000E+00 0.  1.
         -1    1    6    6    0  502  0.36899046058E+03 -0.21119147340E+03 -0.98092086795E+02  0.43632310955E+03  0.00000000000E+00 0.  1.
<mgrwt>
<rscale>  0 0.25269896E+04</rscale>
<asrwt>0</asrwt>
<pdfrwt beam="1">  1        1 0.14688773E+00 0.25269896E+04</pdfrwt>
<pdfrwt beam="2">  1       -1 0.25723774E+00 0.25269896E+04</pdfrwt>
<totfact> 0.91063158E-01</totfact>
</mgrwt>
</event>
<event>
12    1  0.1472088E-007  0.1033421E+04  0.7818608E-02  0.9272630E-01
          2   -1    0    0  501    0  0.00000000000E+00  0.00000000000E+00  0.10769833065E+04  0.10769833065E+04  0.00000000000E+00 0. -1.
         -2   -1    0    0    0  501 -0.00000000000E+00 -0.00000000000E+00 -0.24790529622E+03  0.24790529622E+03  0.00000000000E+00 0.  1.
         23    2    1    2    0    0  0.82744979231E+02 -0.12398626953E+02  0.15966038800E+03  0.20135643314E+03  0.89735812986E+02 0.  0.
        254    2    1    2    0    0 -0.82744979231E+02  0.12398626953E+02  0.66941762224E+03  0.11235321695E+04  0.89844539372E+03 0.  0.
        -24    2    4    4    0    0 -0.20547678763E+03  0.48262609290E+02 -0.16359218714E+03  0.27688297005E+03  0.73155899977E+02 0.  0.
         24    2    4    4    0    0  0.12273180840E+03 -0.35863982337E+02  0.83300980938E+03  0.84664919949E+03  0.80995076743E+02 0.  0.
         11    1    3    3    0    0  0.19893232272E+02  0.27920156857E+02  0.10019984621E+03  0.10590224280E+03  0.00000000000E+00 0. -1.
        -11    1    3    3    0    0  0.62851746959E+02 -0.40318783810E+02  0.59460541787E+02  0.95454190339E+02  0.00000000000E+00 0.  1.
          4    1    6    6  502    0  0.90094752038E+02 -0.55407843077E+02  0.71164543204E+03  0.71946251769E+03  0.00000000000E+00 0. -1.
          3    1    5    5  503    0 -0.97419213834E+02  0.52712707991E+02 -0.11029504227E+03  0.15631420011E+03  0.00000000000E+00 0. -1.
         -4    1    5    5    0  503 -0.10805757380E+03 -0.44500987016E+01 -0.53297144870E+02  0.12056876994E+03  0.00000000000E+00 0.  1.
         -3    1    6    6    0  502  0.32637056362E+02  0.19543860740E+02  0.12136437734E+03  0.12718668180E+03  0.00000000000E+00 0.  1.
<mgrwt>
<rscale>  0 0.10334212E+04</rscale>
<asrwt>0</asrwt>
<pdfrwt beam="1">  1        2 0.16568974E+00 0.10334212E+04</pdfrwt>
<pdfrwt beam="2">  1       -2 0.38139277E-01 0.10334212E+04</pdfrwt>
<totfact> 0.14549521E+02</totfact>
</mgrwt>
</event>
<event>
12    1  0.1472088E-007  0.3567095E+04  0.7818608E-02  0.8098071E-01
          2   -1    0    0  501    0  0.00000000000E+00  0.00000000000E+00  0.10125893868E+04  0.10125893868E+04  0.00000000000E+00 0. -1.
         -2   -1    0    0    0  501 -0.00000000000E+00 -0.00000000000E+00 -0.31414928153E+04  0.31414928153E+04  0.00000000000E+00 0.  1.
         23    2    1    2    0    0 -0.96594276045E+03  0.13625605865E+04 -0.93115153341E+03  0.19143267588E+04  0.89369977621E+02 0.  0.
        254    2    1    2    0    0  0.96594276045E+03 -0.13625605865E+04 -0.11977518951E+04  0.22397554433E+04  0.89010003651E+03 0.  0.
        -24    2    4    4    0    0  0.42282378610E+03 -0.55341937722E+02 -0.49150069449E+03  0.65579651234E+03  0.81568675075E+02 0.  0.
         24    2    4    4    0    0  0.54311897436E+03 -0.13072186488E+04 -0.70625120063E+03  0.15839589309E+04  0.79601007638E+02 0.  0.
         13    1    3    3    0    0 -0.52045370057E+02  0.70610079163E+02 -0.27213932814E+02  0.91842811166E+02  0.00000000000E+00 0.  1.
        -13    1    3    3    0    0 -0.91389739040E+03  0.12919505074E+04 -0.90393760060E+03  0.18224839476E+04  0.00000000000E+00 0. -1.
          4    1    6    6  502    0  0.45278730591E+03 -0.10138881080E+04 -0.53639376566E+03  0.12331681604E+04  0.00000000000E+00 0. -1.
          3    1    5    5  503    0  0.39198920775E+03 -0.28414316034E+02 -0.43903067380E+03  0.58924599692E+03  0.00000000000E+00 0. -1.
         -4    1    5    5    0  503  0.30834578346E+02 -0.26927621688E+02 -0.52470020685E+02  0.66550515417E+02  0.00000000000E+00 0.  1.
         -3    1    6    6    0  502  0.90331668444E+02 -0.29333054082E+03 -0.16985743498E+03  0.35079077057E+03  0.00000000000E+00 0.  1.
<mgrwt>
<rscale>  0 0.35670953E+04</rscale>
<asrwt>0</asrwt>
<pdfrwt beam="1">  1        2 0.15578299E+00 0.35670953E+04</pdfrwt>
<pdfrwt beam="2">  1       -2 0.48330658E+00 0.35670953E+04</pdfrwt>
<totfact> 0.42447672E-02</totfact>
</mgrwt>
</event>
<event>
12    1  0.1472088E-007  0.3165345E+04  0.7818608E-02  0.8198030E-01
          1   -1    0    0  501    0  0.00000000000E+00  0.00000000000E+00  0.11569699372E+04  0.11569699372E+04  0.00000000000E+00 0. -1.
         -1   -1    0    0    0  501 -0.00000000000E+00 -0.00000000000E+00 -0.21650108594E+04  0.21650108594E+04  0.00000000000E+00 0.  1.
         23    2    1    2    0    0  0.12593953500E+03 -0.27135832627E+03 -0.19544207044E+04  0.19795613414E+04  0.96988179148E+02 0.  0.
        254    2    1    2    0    0 -0.12593953500E+03  0.27135832627E+03  0.94637978223E+03  0.13424194552E+04  0.90385795003E+03 0.  0.
        -24    2    4    4    0    0  0.10123362443E+03  0.85256376741E-01  0.96985186583E+03  0.97838445733E+03  0.79845167188E+02 0.  0.
         24    2    4    4    0    0 -0.22717315943E+03  0.27127306989E+03 -0.23472083601E+02  0.36403499789E+03  0.82303208704E+02 0.  0.
         13    1    3    3    0    0  0.63898710910E+02 -0.19831161055E+03 -0.15499678246E+04  0.15639088201E+04  0.00000000000E+00 0.  1.
        -13    1    3    3    0    0  0.62040824093E+02 -0.73046715713E+02 -0.40445287973E+03  0.41565252129E+03  0.00000000000E+00 0. -1.
          2    1    6    6  502    0 -0.46966951587E+02  0.10692076391E+03  0.12698811228E+02  0.11747001363E+03  0.00000000000E+00 0. -1.
          1    1    5    5  503    0  0.78994338814E+02 -0.35588409905E+02  0.68110667163E+03  0.68659517813E+03  0.00000000000E+00 0. -1.
         -2    1    5    5    0  503  0.22239285614E+02  0.35673666282E+02  0.28874519419E+03  0.29178927921E+03  0.00000000000E+00 0.  1.
         -1    1    6    6    0  502 -0.18020620784E+03  0.16435230598E+03 -0.36170894830E+02  0.24656498426E+03  0.00000000000E+00 0.  1.
<mgrwt>
<rscale>  0 0.31653451E+04</rscale>
<asrwt>0</asrwt>
<pdfrwt beam="1">  1        1 0.17799538E+00 0.31653451E+04</pdfrwt>
<pdfrwt beam="2">  1       -1 0.33307859E+00 0.31653451E+04</pdfrwt>
<totfact> 0.19376498E-01</totfact>
</mgrwt>
</event>
<event>
12    1  0.1472088E-007  0.2155191E+04  0.7818608E-02  0.8537314E-01
          2   -1    0    0  501    0  0.00000000000E+00  0.00000000000E+00  0.68951564087E+03  0.68951564087E+03  0.00000000000E+00 0. -1.
         -2   -1    0    0    0  501 -0.00000000000E+00 -0.00000000000E+00 -0.16840978576E+04  0.16840978576E+04  0.00000000000E+00 0.  1.
         23    2    1    2    0    0 -0.49481244308E+03 -0.69703313413E+03 -0.66633750268E+03  0.10877311525E+04  0.91972000111E+02 0.  0.
        254    2    1    2    0    0  0.49481244308E+03  0.69703313413E+03 -0.32824471409E+03  0.12858823460E+04  0.90280356194E+03 0.  0.
        -24    2    4    4    0    0  0.54230694108E+03  0.17260419726E+02 -0.22209871380E+03  0.59159130922E+03  0.79105613252E+02 0.  0.
         24    2    4    4    0    0 -0.47494498000E+02  0.67977271441E+03 -0.10614600029E+03  0.69429103675E+03  0.80164828603E+02 0.  0.
         13    1    3    3    0    0 -0.41569523591E+03 -0.57579679151E+03 -0.59428635682E+03  0.92602416177E+03  0.00000000000E+00 0.  1.
        -13    1    3    3    0    0 -0.79117207163E+02 -0.12123634262E+03 -0.72051145859E+02  0.16170699076E+03  0.00000000000E+00 0. -1.
          2    1    6    6  502    0  0.17617036607E+02  0.31964744882E+03 -0.52894071669E+02  0.32447285609E+03  0.00000000000E+00 0. -1.
          1    1    5    5  503    0  0.11083335806E+03 -0.50777454095E+00 -0.81025338222E+02  0.13729310444E+03  0.00000000000E+00 0. -1.
         -2    1    5    5    0  503  0.43147358302E+03  0.17768194267E+02 -0.14107337557E+03  0.45429820478E+03  0.00000000000E+00 0.  1.
         -1    1    6    6    0  502 -0.65111534607E+02  0.36012526558E+03 -0.53251928625E+02  0.36981818067E+03  0.00000000000E+00 0.  1.
<mgrwt>
<rscale>  0 0.21551908E+04</rscale>
<asrwt>0</asrwt>
<pdfrwt beam="1">  1        2 0.10607933E+00 0.21551908E+04</pdfrwt>
<pdfrwt beam="2">  1       -2 0.25909198E+00 0.21551908E+04</pdfrwt>
<totfact> 0.21649708E+00</totfact>
</mgrwt>
</event>
<event>
12    1  0.1472088E-007  0.1160199E+04  0.7818608E-02  0.9148426E-01
          1   -1    0    0  501    0  0.00000000000E+00  0.00000000000E+00  0.12689173007E+04  0.12689173007E+04  0.00000000000E+00 0. -1.
         -1   -1    0    0    0  501 -0.00000000000E+00 -0.00000000000E+00 -0.26519872149E+03  0.26519872149E+03  0.00000000000E+00 0.  1.
         23    2    1    2    0    0  0.37698159065E+02 -0.23250143704E+02 -0.79663312009E+02  0.12584837868E+03  0.86774712657E+02 0.  0.
        254    2    1    2    0    0 -0.37698159065E+02  0.23250143704E+02  0.10833818912E+04  0.14082676435E+04  0.89863213449E+03 0.  0.
        -24    2    4    4    0    0  0.17194448156E+03  0.38825623017E+03  0.74837685288E+03  0.86442534325E+03  0.82797675834E+02 0.  0.
         24    2    4    4    0    0 -0.20964264062E+03 -0.36500608646E+03  0.33500503835E+03  0.54384230026E+03  0.79728237863E+02 0.  0.
         13    1    3    3    0    0 -0.65321323600E+01  0.25363890718E+02 -0.55174983936E+01  0.26766368712E+02  0.00000000000E+00 0.  1.
        -13    1    3    3    0    0  0.44230291425E+02 -0.48614034422E+02 -0.74145813616E+02  0.99082009967E+02  0.00000000000E+00 0. -1.
          4    1    6    6  502    0 -0.13620279805E+03 -0.28222965697E+03  0.21180100239E+03  0.37823860999E+03  0.00000000000E+00 0. -1.
          3    1    5    5  503    0  0.15571862513E+03  0.36474978110E+03  0.64500880963E+03  0.75718363527E+03  0.00000000000E+00 0. -1.
         -4    1    5    5    0  503  0.16225856430E+02  0.23506449069E+02  0.10336804325E+03  0.10724170797E+03  0.00000000000E+00 0.  1.
         -3    1    6    6    0  502 -0.73439842568E+02 -0.82776429491E+02  0.12320403596E+03  0.16560369027E+03  0.00000000000E+00 0.  1.
<mgrwt>
<rscale>  0 0.11601987E+04</rscale>
<asrwt>0</asrwt>
<pdfrwt beam="1">  1        1 0.19521804E+00 0.11601987E+04</pdfrwt>
<pdfrwt beam="2">  1       -1 0.40799804E-01 0.11601987E+04</pdfrwt>
<totfact> 0.55480700E+01</totfact>
</mgrwt>
</event>
<event>
12    1  0.1472088E-007  0.1321737E+04  0.7818608E-02  0.9012503E-01
          1   -1    0    0  501    0  0.00000000000E+00  0.00000000000E+00  0.13604460813E+04  0.13604460813E+04  0.00000000000E+00 0. -1.
         -1   -1    0    0    0  501 -0.00000000000E+00 -0.00000000000E+00 -0.32103253690E+03  0.32103253690E+03  0.00000000000E+00 0.  1.
         23    2    1    2    0    0  0.16023155737E+03  0.17354818842E+03 -0.33119724139E+02  0.25565171981E+03  0.92020432698E+02 0.  0.
        254    2    1    2    0    0 -0.16023155737E+03 -0.17354818842E+03  0.10725332686E+04  0.14258268984E+04  0.90931930938E+03 0.  0.
        -24    2    4    4    0    0  0.19099288040E+03 -0.43098531022E+03  0.69399545434E+03  0.84345571641E+03  0.86955373063E+02 0.  0.
         24    2    4    4    0    0 -0.35122443776E+03  0.25743712180E+03  0.37853781424E+03  0.58237118203E+03  0.78948334301E+02 0.  0.
         13    1    3    3    0    0  0.17387367153E+02  0.28543119121E+02  0.27488406233E+02  0.43274041444E+02  0.00000000000E+00 0. -1.
        -13    1    3    3    0    0  0.14284419021E+03  0.14500506930E+03 -0.60608130372E+02  0.21237767836E+03  0.00000000000E+00 0.  1.
          2    1    6    6  502    0 -0.16594566287E+03  0.78518362153E+02  0.13477681656E+03  0.22774522279E+03  0.00000000000E+00 0. -1.
          3    1    5    5  503    0  0.43010133735E+02 -0.43203334495E+02  0.58959856875E+02  0.84809577514E+02  0.00000000000E+00 0. -1.
         -4    1    5    5    0  503  0.14798274666E+03 -0.38778197572E+03  0.63503559747E+03  0.75864613889E+03  0.00000000000E+00 0.  1.
         -1    1    6    6    0  502 -0.18527877489E+03  0.17891875965E+03  0.24376099768E+03  0.35462595924E+03  0.00000000000E+00 0.  1.
<mgrwt>
<rscale>  0 0.13217374E+04</rscale>
<asrwt>0</asrwt>
<pdfrwt beam="1">  1        1 0.20929939E+00 0.13217374E+04</pdfrwt>
<pdfrwt beam="2">  1       -1 0.49389622E-01 0.13217374E+04</pdfrwt>
<totfact> 0.33014599E+01</totfact>
</mgrwt>
</event>
<event>
12    1  0.1472088E-007  0.2464715E+04  0.7818608E-02  0.8415665E-01
         -2   -1    0    0    0  501 -0.00000000000E+00  0.00000000000E+00  0.62817294130E+03  0.62817294130E+03  0.00000000000E+00 0.  1.
          2   -1    0    0  501    0  0.00000000000E+00 -0.00000000000E+00 -0.24176551753E+04  0.24176551753E+04  0.00000000000E+00 0. -1.
         23    2    1    2    0    0 -0.23426851638E+03 -0.26189498361E+03 -0.20087400212E+04  0.20412004064E+04  0.89397462858E+02 0.  0.
        254    2    1    2    0    0  0.23426851638E+03  0.26189498361E+03  0.21925778716E+03  0.10046277102E+04  0.91527708298E+03 0.  0.
        -24    2    4    4    0    0 -0.22107719090E+03  0.25002817347E+03 -0.18494958620E+03  0.38942129587E+03  0.77803498499E+02 0.  0.
         24    2    4    4    0    0  0.45534570728E+03  0.11866810134E+02  0.40420737335E+03  0.61520641431E+03  0.87262805445E+02 0.  0.
         13    1    3    3    0    0 -0.18812739196E+03 -0.24071340985E+03 -0.15629571589E+04  0.15925356956E+04  0.00000000000E+00 0. -1.
        -13    1    3    3    0    0 -0.46141124422E+02 -0.21181573759E+02 -0.44578286227E+03  0.44866471080E+03  0.00000000000E+00 0.  1.
          2    1    6    6  502    0  0.16178384143E+03  0.21033760983E+02  0.19690662492E+03  0.25571204388E+03  0.00000000000E+00 0. -1.
          3    1    5    5  503    0 -0.13020812865E+03  0.97686732973E+02 -0.64938592537E+02  0.17525374565E+03  0.00000000000E+00 0. -1.
         -4    1    5    5    0  503 -0.90869062255E+02  0.15234144050E+03 -0.12001099366E+03  0.21416755022E+03  0.00000000000E+00 0.  1.
         -1    1    6    6    0  502  0.29356186585E+03 -0.91669508484E+01  0.20730074843E+03  0.35949437043E+03  0.00000000000E+00 0.  1.
<mgrwt>
<rscale>  0 0.24647155E+04</rscale>
<asrwt>0</asrwt>
<pdfrwt beam="1">  1        2 0.37194695E+00 0.24647155E+04</pdfrwt>
<pdfrwt beam="2">  1       -2 0.96641992E-01 0.24647155E+04</pdfrwt>
<totfact> 0.31097600E+00</totfact>
</mgrwt>
</event>
<event>
12    1  0.1472088E-007  0.2092806E+04  0.7818608E-02  0.8564419E-01
          1   -1    0    0  501    0  0.00000000000E+00  0.00000000000E+00  0.18255323243E+04  0.18255323243E+04  0.00000000000E+00 0. -1.
         -1   -1    0    0    0  501 -0.00000000000E+00 -0.00000000000E+00 -0.59980274315E+03  0.59980274315E+03  0.00000000000E+00 0.  1.
         23    2    1    2    0    0 -0.16445472527E+02 -0.63034909291E+03  0.11573883171E+04  0.13211585840E+04  0.91114515304E+02 0.  0.
        254    2    1    2    0    0  0.16445472527E+02  0.63034909291E+03  0.68341264055E+02  0.11041764835E+04  0.90383889374E+03 0.  0.
        -24    2    4    4    0    0 -0.37940214615E+03  0.54343985972E+03 -0.65124096246E+02  0.67025315814E+03  0.75665569828E+02 0.  0.
         24    2    4    4    0    0  0.39584761867E+03  0.86909233196E+02  0.13346536030E+03  0.43392332536E+03  0.78917031511E+02 0.  0.
         13    1    3    3    0    0  0.54762756359E+01 -0.74553257358E+02  0.20544512415E+03  0.21862268138E+03  0.00000000000E+00 0.  1.
        -13    1    3    3    0    0 -0.21921748163E+02 -0.55579583555E+03  0.95194319297E+03  0.11025359026E+04  0.00000000000E+00 0. -1.
          4    1    6    6  502    0  0.17105604704E+03  0.27150692140E+02  0.96918760049E+02  0.19847059571E+03  0.00000000000E+00 0. -1.
          3    1    5    5  503    0 -0.22173472965E+03  0.37745357817E+03 -0.53552015060E+02  0.44102756413E+03  0.00000000000E+00 0. -1.
         -4    1    5    5    0  503 -0.15766741650E+03  0.16598628154E+03 -0.11572081186E+02  0.22922559401E+03  0.00000000000E+00 0.  1.
         -3    1    6    6    0  502  0.22479157163E+03  0.59758541056E+02  0.36546600253E+02  0.23545272964E+03  0.00000000000E+00 0.  1.
<mgrwt>
<rscale>  0 0.20928061E+04</rscale>
<asrwt>0</asrwt>
<pdfrwt beam="1">  1        1 0.28085112E+00 0.20928061E+04</pdfrwt>
<pdfrwt beam="2">  1       -1 0.92277346E-01 0.20928061E+04</pdfrwt>
<totfact> 0.41160344E+00</totfact>
</mgrwt>
</event>
<event>
12    1  0.1472088E-007  0.1713645E+04  0.7818608E-02  0.8753620E-01
          1   -1    0    0  501    0  0.00000000000E+00  0.00000000000E+00  0.29311086248E+04  0.29311086248E+04  0.00000000000E+00 0. -1.
         -1   -1    0    0    0  501 -0.00000000000E+00 -0.00000000000E+00 -0.25046645102E+03  0.25046645102E+03  0.00000000000E+00 0.  1.
         23    2    1    2    0    0  0.55569909818E+03 -0.26147152017E+03  0.10754127895E+04  0.12417615813E+04  0.91051157725E+02 0.  0.
        254    2    1    2    0    0 -0.55569909818E+03  0.26147152017E+03  0.16052293843E+04  0.19398134946E+04  0.89941435052E+03 0.  0.
        -24    2    4    4    0    0 -0.51300391266E+03  0.41903330264E+03  0.16268275158E+04  0.17583375951E+04  0.80133693127E+02 0.  0.
         24    2    4    4    0    0 -0.42695185513E+02 -0.15756178248E+03 -0.21598131545E+02  0.18147589951E+03  0.76278625135E+02 0.  0.
         11    1    3    3    0    0  0.41808240697E+02 -0.49228724671E+02  0.12352391677E+03  0.13938993629E+03  0.00000000000E+00 0.  1.
        -11    1    3    3    0    0  0.51389085748E+03 -0.21224279550E+03  0.95188887273E+03  0.11023716450E+04  0.00000000000E+00 0. -1.
          2    1    6    6  502    0 -0.23368138583E+02 -0.14896173119E+03  0.63797035395E+00  0.15078486087E+03  0.00000000000E+00 0. -1.
          1    1    5    5  503    0 -0.38174579577E+03  0.26658149277E+03  0.11647385360E+04  0.12543569676E+04  0.00000000000E+00 0. -1.
         -2    1    5    5    0  503 -0.13125811689E+03  0.15245180988E+03  0.46208897985E+03  0.50398062749E+03  0.00000000000E+00 0.  1.
         -1    1    6    6    0  502 -0.19327046930E+02 -0.86000512840E+01 -0.22236101899E+02  0.30691038640E+02  0.00000000000E+00 0.  1.
<mgrwt>
<rscale>  0 0.17136445E+04</rscale>
<asrwt>0</asrwt>
<pdfrwt beam="1">  1        1 0.45093976E+00 0.17136445E+04</pdfrwt>
<pdfrwt beam="2">  1       -1 0.38533302E-01 0.17136445E+04</pdfrwt>
<totfact> 0.41726810E+00</totfact>
</mgrwt>
</event>
<event>
12    1  0.1472088E-007  0.1905104E+04  0.7818608E-02  0.8652320E-01
          3   -1    0    0  501    0  0.00000000000E+00  0.00000000000E+00  0.61327127635E+03  0.61327127635E+03  0.00000000000E+00 0. -1.
         -3   -1    0    0    0  501 -0.00000000000E+00 -0.00000000000E+00 -0.14795336329E+04  0.14795336329E+04  0.00000000000E+00 0.  1.
         23    2    1    2    0    0 -0.80371827447E+02  0.28175335204E+03 -0.10819354471E+04  0.11244844570E+04  0.89645972099E+02 0.  0.
        254    2    1    2    0    0  0.80371827447E+02 -0.28175335204E+03  0.21567309056E+03  0.96832045225E+03  0.89737675155E+03 0.  0.
        -24    2    4    4    0    0  0.15872713467E+02  0.28115525965E+03  0.26396440247E+03  0.39392274477E+03  0.78725472433E+02 0.  0.
         24    2    4    4    0    0  0.64499113980E+02 -0.56290861169E+03 -0.48291311916E+02  0.57439770748E+03  0.81082888084E+02 0.  0.
         11    1    3    3    0    0 -0.89652638331E+02  0.28091784285E+03 -0.10659175601E+04  0.11059532878E+04  0.00000000000E+00 0.  1.
        -11    1    3    3    0    0  0.92808108844E+01  0.83550919391E+00 -0.16017887086E+02  0.18531169229E+02  0.00000000000E+00 0. -1.
          4    1    6    6  502    0  0.67422134519E+02 -0.26022056720E+03 -0.38326298679E+02  0.27153156905E+03  0.00000000000E+00 0. -1.
          3    1    5    5  503    0  0.36307264770E+01  0.27551565262E+03  0.23565214771E+03  0.36256584469E+03  0.00000000000E+00 0. -1.
         -4    1    5    5    0  503  0.12241986990E+02  0.56396070309E+01  0.28312254759E+02  0.31356900077E+02  0.00000000000E+00 0.  1.
         -3    1    6    6    0  502 -0.29230205396E+01 -0.30268804449E+03 -0.99650132377E+01  0.30286613844E+03  0.00000000000E+00 0.  1.
<mgrwt>
<rscale>  0 0.19051042E+04</rscale>
<asrwt>0</asrwt>
<pdfrwt beam="1">  1        3 0.94349427E-01 0.19051042E+04</pdfrwt>
<pdfrwt beam="2">  1       -3 0.22762056E+00 0.19051042E+04</pdfrwt>
<totfact> 0.24275657E-01</totfact>
</mgrwt>
</event>
<event>
12    1  0.1472088E-007  0.1518811E+04  0.7818608E-02  0.8872040E-01
          1   -1    0    0  501    0  0.00000000000E+00  0.00000000000E+00  0.28161639834E+04  0.28161639834E+04  0.00000000000E+00 0.  1.
         -1   -1    0    0    0  501 -0.00000000000E+00 -0.00000000000E+00 -0.20478082368E+03  0.20478082368E+03  0.00000000000E+00 0. -1.
         23    2    1    2    0    0 -0.31866427511E+03 -0.99378792895E+02  0.15604473127E+04  0.15983915751E+04  0.91851767100E+02 0.  0.
        254    2    1    2    0    0  0.31866427511E+03  0.99378792895E+02  0.10509358470E+04  0.14225532319E+04  0.89875941072E+03 0.  0.
        -24    2    4    4    0    0  0.17329502470E+03  0.49308001394E+03  0.63102361536E+03  0.82341375906E+03  0.81610965788E+02 0.  0.
         24    2    4    4    0    0  0.14536925040E+03 -0.39370122104E+03  0.41991223165E+03  0.59913947284E+03  0.80678096229E+02 0.  0.
         13    1    3    3    0    0 -0.64642224740E+02  0.65987317180E+00  0.18126625765E+03  0.19244871737E+03  0.00000000000E+00 0. -1.
        -13    1    3    3    0    0 -0.25402205037E+03 -0.10003866607E+03  0.13791810550E+04  0.14059428578E+04  0.00000000000E+00 0.  1.
          4    1    6    6  502    0  0.14711748047E+02 -0.11503745140E+03  0.81767359156E+02  0.14190120429E+03  0.00000000000E+00 0. -1.
          1    1    5    5  503    0  0.14109930534E+03  0.41899129513E+03  0.57403013134E+03  0.72455041995E+03  0.00000000000E+00 0. -1.
         -2    1    5    5    0  503  0.32195719357E+02  0.74088718803E+02  0.56993484020E+02  0.98863339108E+02  0.00000000000E+00 0.  1.
         -3    1    6    6    0  502  0.13065750236E+03 -0.27866376965E+03  0.33814487249E+03  0.45723826855E+03  0.00000000000E+00 0.  1.
<mgrwt>
<rscale>  0 0.15188106E+04</rscale>
<asrwt>0</asrwt>
<pdfrwt beam="1">  1        1 0.43325597E+00 0.15188106E+04</pdfrwt>
<pdfrwt beam="2">  1       -1 0.31504744E-01 0.15188106E+04</pdfrwt>
<totfact> 0.73698439E+00</totfact>
</mgrwt>
</event>
<event>
12    1  0.1472088E-007  0.1262435E+04  0.7818608E-02  0.9059897E-01
         -2   -1    0    0    0  501 -0.00000000000E+00  0.00000000000E+00  0.72706169790E+03  0.72706169790E+03  0.00000000000E+00 0.  1.
          2   -1    0    0  501    0  0.00000000000E+00 -0.00000000000E+00 -0.54800773767E+03  0.54800773767E+03  0.00000000000E+00 0. -1.
         23    2    1    2    0    0  0.10735513036E+03  0.21025151726E+03  0.22054747808E+03  0.34021831883E+03  0.10666062933E+03 0.  0.
        254    2    1    2    0    0 -0.10735513036E+03 -0.21025151726E+03 -0.41493517854E+02  0.93485111675E+03  0.90360061639E+03 0.  0.
        -24    2    4    4    0    0 -0.19364224884E+03  0.47811829546E+02 -0.41512198622E+03  0.46731025952E+03  0.79179060572E+02 0.  0.
         24    2    4    4    0    0  0.86287118476E+02 -0.25806334681E+03  0.37362846836E+03  0.46754085723E+03  0.70385105139E+02 0.  0.
         11    1    3    3    0    0  0.11192780338E+03  0.11558939611E+03  0.16453242609E+03  0.23012966106E+03  0.00000000000E+00 0.  1.
        -11    1    3    3    0    0 -0.45726730205E+01  0.94662121151E+02  0.56015051990E+02  0.11008865777E+03  0.00000000000E+00 0. -1.
          4    1    6    6  502    0  0.20625564118E+02 -0.16969460314E+03  0.23036977164E+03  0.28686565482E+03  0.00000000000E+00 0. -1.
          3    1    5    5  503    0  0.58479313468E+01  0.84928038154E+01 -0.31353330261E+02  0.33005413740E+02  0.00000000000E+00 0. -1.
         -4    1    5    5    0  503 -0.19949018018E+03  0.39319025730E+02 -0.38376865596E+03  0.43430484578E+03  0.00000000000E+00 0.  1.
         -3    1    6    6    0  502  0.65661554358E+02 -0.88368743666E+02  0.14325869673E+03  0.18067520241E+03  0.00000000000E+00 0.  1.
<mgrwt>
<rscale>  0 0.12624348E+04</rscale>
<asrwt>0</asrwt>
<pdfrwt beam="1">  1        2 0.84308882E-01 0.12624348E+04</pdfrwt>
<pdfrwt beam="2">  1       -2 0.11185565E+00 0.12624348E+04</pdfrwt>
<totfact> 0.34274853E+01</totfact>
</mgrwt>
</event>
<event>
12    1  0.1472088E-007  0.1852113E+04  0.7818608E-02  0.8679067E-01
          2   -1    0    0  501    0  0.00000000000E+00  0.00000000000E+00  0.17553541326E+04  0.17553541326E+04  0.00000000000E+00 0. -1.
         -2   -1    0    0    0  501 -0.00000000000E+00 -0.00000000000E+00 -0.48855112209E+03  0.48855112209E+03  0.00000000000E+00 0.  1.
         23    2    1    2    0    0  0.46313406225E+02  0.17708556800E+03 -0.33665614737E+03  0.39327235122E+03  0.88439531188E+02 0.  0.
        254    2    1    2    0    0 -0.46313406225E+02 -0.17708556800E+03  0.16034591579E+04  0.18506329035E+04  0.90568020983E+03 0.  0.
        -24    2    4    4    0    0  0.25121167977E+03 -0.98692082756E+02  0.76598284779E+02  0.29089344533E+03  0.76839209067E+02 0.  0.
         24    2    4    4    0    0 -0.29752508600E+03 -0.78393485247E+02  0.15268608731E+04  0.15597394582E+04  0.82561105746E+02 0.  0.
         13    1    3    3    0    0 -0.65618263338E+01  0.23342842676E+02 -0.62623174695E+01  0.25043212436E+02  0.00000000000E+00 0. -1.
        -13    1    3    3    0    0  0.52875232559E+02  0.15374272533E+03 -0.33039382990E+03  0.36822913878E+03  0.00000000000E+00 0.  1.
          2    1    6    6  502    0 -0.26355336174E+03 -0.47083059529E+02  0.13818705005E+04  0.14075664351E+04  0.00000000000E+00 0. -1.
          3    1    5    5  503    0  0.26864499412E+02 -0.40619768431E+02  0.93190274241E+01  0.49583376127E+02  0.00000000000E+00 0. -1.
         -4    1    5    5    0  503  0.22434718036E+03 -0.58072314325E+02  0.67279257355E+02  0.24131006920E+03  0.00000000000E+00 0.  1.
         -1    1    6    6    0  502 -0.33971724259E+02 -0.31310425718E+02  0.14499037264E+03  0.15217302312E+03  0.00000000000E+00 0.  1.
<mgrwt>
<rscale>  0 0.18521126E+04</rscale>
<asrwt>0</asrwt>
<pdfrwt beam="1">  1        2 0.27005448E+00 0.18521126E+04</pdfrwt>
<pdfrwt beam="2">  1       -2 0.75161712E-01 0.18521126E+04</pdfrwt>
<totfact> 0.13648251E+01</totfact>
</mgrwt>
</event>
<event>
12    1  0.1472088E-007  0.1440918E+04  0.7818608E-02  0.8924721E-01
         -1   -1    0    0    0  501 -0.00000000000E+00  0.00000000000E+00  0.33546051655E+03  0.33546051655E+03  0.00000000000E+00 0.  1.
          1   -1    0    0  501    0  0.00000000000E+00 -0.00000000000E+00 -0.15473092092E+04  0.15473092092E+04  0.00000000000E+00 0. -1.
         23    2    1    2    0    0  0.41461401593E+03  0.13679023753E+03 -0.35802250012E+03  0.57159604427E+03  0.89025703833E+02 0.  0.
        254    2    1    2    0    0 -0.41461401593E+03 -0.13679023753E+03 -0.85382619249E+03  0.13111736814E+04  0.89417051206E+03 0.  0.
        -24    2    4    4    0    0 -0.30957337621E+03  0.35852209195E+03 -0.37702325500E+03  0.61106266679E+03  0.82929381159E+02 0.  0.
         24    2    4    4    0    0 -0.10504063972E+03 -0.49531232948E+03 -0.47680293749E+03  0.70011101465E+03  0.80290422227E+02 0.  0.
         13    1    3    3    0    0  0.13332950833E+02  0.35007295828E+01 -0.40585998598E+02  0.42863107304E+02  0.00000000000E+00 0. -1.
        -13    1    3    3    0    0  0.40128106509E+03  0.13328950795E+03 -0.31743650152E+03  0.52873293696E+03  0.00000000000E+00 0.  1.
          4    1    6    6  502    0 -0.11479029801E+03 -0.38526145057E+03 -0.38140857026E+03  0.55414411057E+03  0.00000000000E+00 0. -1.
          3    1    5    5  503    0 -0.24140402802E+03  0.32411507694E+03 -0.30791308765E+03  0.50807180338E+03  0.00000000000E+00 0. -1.
         -4    1    5    5    0  503 -0.68169348193E+02  0.34407015010E+02 -0.69110167349E+02  0.10299086341E+03  0.00000000000E+00 0.  1.
         -3    1    6    6    0  502  0.97496582947E+01 -0.11005087891E+03 -0.95394367227E+02  0.14596690407E+03  0.00000000000E+00 0.  1.
<mgrwt>
<rscale>  0 0.14409180E+04</rscale>
<asrwt>0</asrwt>
<pdfrwt beam="1">  1        1 0.23804757E+00 0.14409180E+04</pdfrwt>
<pdfrwt beam="2">  1       -1 0.51609309E-01 0.14409180E+04</pdfrwt>
<totfact> 0.22274424E+01</totfact>
</mgrwt>
</event>
<event>
12    1  0.1472088E-007  0.1294590E+04  0.7818608E-02  0.9033866E-01
          2   -1    0    0  501    0  0.00000000000E+00  0.00000000000E+00  0.81661738524E+03  0.81661738524E+03  0.00000000000E+00 0. -1.
         -2   -1    0    0    0  501 -0.00000000000E+00 -0.00000000000E+00 -0.51308100248E+03  0.51308100248E+03  0.00000000000E+00 0.  1.
         23    2    1    2    0    0  0.27641029825E+03  0.22254232857E+03  0.35515988290E+02  0.36900690566E+03  0.94746873401E+02 0.  0.
        254    2    1    2    0    0 -0.27641029825E+03 -0.22254232857E+03  0.26802039447E+03  0.96069148205E+03  0.85156646884E+03 0.  0.
        -24    2    4    4    0    0 -0.24781216685E+03 -0.53284466910E+03  0.23350341454E+03  0.63732502002E+03  0.79530026558E+02 0.  0.
         24    2    4    4    0    0 -0.28598131399E+02  0.31030234053E+03  0.34516979932E+02  0.32336646203E+03  0.79177340209E+02 0.  0.
         13    1    3    3    0    0 -0.20157938979E+01  0.12920925878E+02 -0.11400424829E+02  0.17348874225E+02  0.00000000000E+00 0. -1.
        -13    1    3    3    0    0  0.27842609215E+03  0.20962140269E+03  0.46916413119E+02  0.35165803144E+03  0.00000000000E+00 0.  1.
          4    1    6    6  502    0 -0.45401719531E+02  0.24240095024E+03  0.29750494926E+01  0.24663411713E+03  0.00000000000E+00 0. -1.
          1    1    5    5  503    0 -0.21952936230E+03 -0.47476965280E+03  0.23327855331E+03  0.57272877312E+03  0.00000000000E+00 0. -1.
         -2    1    5    5    0  503 -0.28282804549E+02 -0.58075016297E+02  0.22486123313E+00  0.64596246900E+02  0.00000000000E+00 0.  1.
         -3    1    6    6    0  502  0.16803588131E+02  0.67901390288E+02  0.31541930440E+02  0.76732344894E+02  0.00000000000E+00 0.  1.
<mgrwt>
<rscale>  0 0.12945901E+04</rscale>
<asrwt>0</asrwt>
<pdfrwt beam="1">  1        2 0.12563344E+00 0.12945901E+04</pdfrwt>
<pdfrwt beam="2">  1       -2 0.78935539E-01 0.12945901E+04</pdfrwt>
<totfact> 0.46828302E+01</totfact>
</mgrwt>
</event>
<event>
12    1  0.1472088E-007  0.2149079E+04  0.7818608E-02  0.8539927E-01
          1   -1    0    0  501    0  0.00000000000E+00  0.00000000000E+00  0.94138574659E+03  0.94138574659E+03  0.00000000000E+00 0. -1.
         -1   -1    0    0    0  501 -0.00000000000E+00 -0.00000000000E+00 -0.12265272743E+04  0.12265272743E+04  0.00000000000E+00 0.  1.
         23    2    1    2    0    0 -0.76890911589E+03  0.22485998371E+03 -0.50110965840E+03  0.94941306877E+03  0.92146864488E+02 0.  0.
        254    2    1    2    0    0  0.76890911589E+03 -0.22485998371E+03  0.21596813065E+03  0.12184999522E+04  0.89236576535E+03 0.  0.
        -24    2    4    4    0    0  0.58265177900E+03 -0.42070044640E+03  0.45009828601E+03  0.85176404169E+03  0.80259295255E+02 0.  0.
         24    2    4    4    0    0  0.18625733689E+03  0.19584046269E+03 -0.23413015536E+03  0.36673591047E+03  0.81443330037E+02 0.  0.
         11    1    3    3    0    0 -0.25727025209E+03  0.10964284882E+03 -0.20873505879E+03  0.34896971455E+03  0.00000000000E+00 0.  1.
        -11    1    3    3    0    0 -0.51163886381E+03  0.11521713489E+03 -0.29237459961E+03  0.60044335422E+03  0.00000000000E+00 0. -1.
          2    1    6    6  502    0  0.12230031626E+03  0.69507717021E+02 -0.11608085794E+03  0.18238271756E+03  0.00000000000E+00 0. -1.
          3    1    5    5  503    0  0.51534495740E+03 -0.34661149194E+03  0.36497025111E+03  0.72036326645E+03  0.00000000000E+00 0. -1.
         -4    1    5    5    0  503  0.67306821608E+02 -0.74088954461E+02  0.85128034901E+02  0.13140077524E+03  0.00000000000E+00 0.  1.
         -1    1    6    6    0  502  0.63957020626E+02  0.12633274567E+03 -0.11804929742E+03  0.18435319291E+03  0.00000000000E+00 0.  1.
<mgrwt>
<rscale>  0 0.21490791E+04</rscale>
<asrwt>0</asrwt>
<pdfrwt beam="1">  1        1 0.14482858E+00 0.21490791E+04</pdfrwt>
<pdfrwt beam="2">  1       -1 0.18869650E+00 0.21490791E+04</pdfrwt>
<totfact> 0.27831731E+00</totfact>
</mgrwt>
</event>
<event>
12    1  0.1472088E-007  0.2049130E+04  0.7818608E-02  0.8583989E-01
          2   -1    0    0  501    0  0.00000000000E+00  0.00000000000E+00  0.34417912242E+04  0.34417912242E+04  0.00000000000E+00 0. -1.
         -2   -1    0    0    0  501 -0.00000000000E+00 -0.00000000000E+00 -0.30499631763E+03  0.30499631763E+03  0.00000000000E+00 0.  1.
         23    2    1    2    0    0  0.23810644101E+02  0.57126119215E+03  0.17343605618E+03  0.60460095367E+03  0.92498384670E+02 0.  0.
        254    2    1    2    0    0 -0.23810644101E+02 -0.57126119215E+03  0.29633588504E+04  0.31421865882E+04  0.87460538655E+03 0.  0.
        -24    2    4    4    0    0  0.38649457145E+03 -0.27071719880E+03  0.19215780507E+04  0.19800431429E+04  0.73775247630E+02 0.  0.
         24    2    4    4    0    0 -0.41030521555E+03 -0.30054399335E+03  0.10417807997E+04  0.11621434453E+04  0.81197850919E+02 0.  0.
         13    1    3    3    0    0 -0.32575316322E+02  0.24460943674E+03  0.57029645907E+02  0.25327318905E+03  0.00000000000E+00 0.  1.
        -13    1    3    3    0    0  0.56385960422E+02  0.32665175541E+03  0.11640641027E+03  0.35132776462E+03  0.00000000000E+00 0. -1.
          4    1    6    6  502    0 -0.24256339056E+03 -0.21406436777E+03  0.59797676249E+03  0.67987996033E+03  0.00000000000E+00 0. -1.
          1    1    5    5  503    0  0.32941307746E+03 -0.19556732682E+03  0.15220239902E+04  0.15694956456E+04  0.00000000000E+00 0. -1.
         -2    1    5    5    0  503  0.57081493986E+02 -0.75149871976E+02  0.39955406057E+03  0.41054749729E+03  0.00000000000E+00 0.  1.
         -3    1    6    6    0  502 -0.16774182499E+03 -0.86479625586E+02  0.44380403716E+03  0.48226348493E+03  0.00000000000E+00 0.  1.
<mgrwt>
<rscale>  0 0.20491302E+04</rscale>
<asrwt>0</asrwt>
<pdfrwt beam="1">  1        2 0.52950632E+00 0.20491302E+04</pdfrwt>
<pdfrwt beam="2">  1       -2 0.46922513E-01 0.20491302E+04</pdfrwt>
<totfact> 0.35720293E+00</totfact>
</mgrwt>
</event>
<event>
12    1  0.1472088E-007  0.1220114E+04  0.7818608E-02  0.9095431E-01
         -1   -1    0    0    0  501 -0.00000000000E+00  0.00000000000E+00  0.41601046721E+03  0.41601046721E+03  0.00000000000E+00 0.  1.
          1   -1    0    0  501    0  0.00000000000E+00 -0.00000000000E+00 -0.89461602852E+03  0.89461602852E+03  0.00000000000E+00 0. -1.
         23    2    1    2    0    0 -0.72733825405E+02  0.90871750547E+02 -0.35769586246E+03  0.38724563064E+03  0.92005239094E+02 0.  0.
        254    2    1    2    0    0  0.72733825405E+02 -0.90871750547E+02 -0.12090969884E+03  0.92338086509E+03  0.90800065107E+03 0.  0.
        -24    2    4    4    0    0  0.57397382645E+02  0.28742836195E+03  0.24525223984E+03  0.39062363035E+03  0.80799979297E+02 0.  0.
         24    2    4    4    0    0  0.15336442760E+02 -0.37830011250E+03 -0.36616193868E+03  0.53275723474E+03  0.80059504397E+02 0.  0.
         11    1    3    3    0    0 -0.78335681140E+02  0.55453968825E+02 -0.32444570891E+03  0.33834396645E+03  0.00000000000E+00 0. -1.
        -11    1    3    3    0    0  0.56018557350E+01  0.35417781722E+02 -0.33250153548E+02  0.48901664192E+02  0.00000000000E+00 0.  1.
          4    1    6    6  502    0 -0.21574720896E+02 -0.33406631356E+02 -0.31014106518E+02  0.50431601238E+02  0.00000000000E+00 0. -1.
          3    1    5    5  503    0 -0.20832571288E+02  0.57137611403E+02  0.49865721259E+02  0.78646632604E+02  0.00000000000E+00 0. -1.
         -4    1    5    5    0  503  0.78229953933E+02  0.23029075055E+03  0.19538651858E+03  0.31197699774E+03  0.00000000000E+00 0.  1.
         -3    1    6    6    0  502  0.36911163656E+02 -0.34489348114E+03 -0.33514783216E+03  0.48232563351E+03  0.00000000000E+00 0.  1.
<mgrwt>
<rscale>  0 0.12201141E+04</rscale>
<asrwt>0</asrwt>
<pdfrwt beam="1">  1        1 0.13763324E+00 0.12201141E+04</pdfrwt>
<pdfrwt beam="2">  1       -1 0.64001610E-01 0.12201141E+04</pdfrwt>
<totfact> 0.44985963E+01</totfact>
</mgrwt>
</event>
<event>
12    1  0.1472088E-007  0.1716418E+04  0.7818608E-02  0.8752056E-01
          2   -1    0    0  501    0  0.00000000000E+00  0.00000000000E+00  0.18678303713E+04  0.18678303713E+04  0.00000000000E+00 0. -1.
         -2   -1    0    0    0  501 -0.00000000000E+00 -0.00000000000E+00 -0.39431969455E+03  0.39431969455E+03  0.00000000000E+00 0.  1.
         23    2    1    2    0    0  0.74855796878E+02  0.50426041189E+03  0.98713810522E+03  0.11147992522E+04  0.91944442816E+02 0.  0.
        254    2    1    2    0    0 -0.74855796878E+02 -0.50426041189E+03  0.48637257156E+03  0.11473508137E+04  0.90552396877E+03 0.  0.
        -24    2    4    4    0    0 -0.17118610020E+02 -0.32304722456E+03  0.74527249700E+03  0.81665278951E+03  0.82692972595E+02 0.  0.
         24    2    4    4    0    0 -0.57737186858E+02 -0.18121318733E+03 -0.25889992544E+03  0.33069802419E+03  0.78487004051E+02 0.  0.
         13    1    3    3    0    0  0.21212394760E+02  0.37520614419E+03  0.76558390121E+03  0.85284718803E+03  0.00000000000E+00 0. -1.
        -13    1    3    3    0    0  0.53643402118E+02  0.12905426770E+03  0.22155420401E+03  0.26195206416E+03  0.00000000000E+00 0.  1.
          4    1    6    6  502    0 -0.36634534175E+02 -0.12858980846E+03 -0.23239078468E+03  0.26810987437E+03  0.00000000000E+00 0. -1.
          3    1    5    5  503    0 -0.17460416547E+02 -0.27997712450E+03  0.70023481745E+03  0.75433471083E+03  0.00000000000E+00 0. -1.
         -4    1    5    5    0  503  0.34180652752E+00 -0.43070100060E+02  0.45037679552E+02  0.62318078680E+02  0.00000000000E+00 0.  1.
         -3    1    6    6    0  502 -0.21102652683E+02 -0.52623378873E+02 -0.26509140765E+02  0.62588149823E+02  0.00000000000E+00 0.  1.
<mgrwt>
<rscale>  0 0.17164176E+04</rscale>
<asrwt>0</asrwt>
<pdfrwt beam="1">  1        2 0.28735851E+00 0.17164176E+04</pdfrwt>
<pdfrwt beam="2">  1       -2 0.60664569E-01 0.17164176E+04</pdfrwt>
<totfact> 0.19023860E+01</totfact>
</mgrwt>
</event>
<event>
12    1  0.1472088E-007  0.1297470E+04  0.7818608E-02  0.9031574E-01
         -2   -1    0    0    0  501 -0.00000000000E+00  0.00000000000E+00  0.35850115756E+03  0.35850115756E+03  0.00000000000E+00 0.  1.
          2   -1    0    0  501    0  0.00000000000E+00 -0.00000000000E+00 -0.11739348316E+04  0.11739348316E+04  0.00000000000E+00 0. -1.
         23    2    1    2    0    0  0.20638940475E+03  0.21977477245E+03 -0.33555079254E+03  0.46026271791E+03  0.91377776950E+02 0.  0.
        254    2    1    2    0    0 -0.20638940475E+03 -0.21977477245E+03 -0.47988288153E+03  0.10721732713E+04  0.91014856297E+03 0.  0.
        -24    2    4    4    0    0 -0.43056133179E+03  0.18989712917E+03 -0.18017958595E+03  0.51141074783E+03  0.87362976736E+02 0.  0.
         24    2    4    4    0    0  0.22417192704E+03 -0.40967190162E+03 -0.29970329558E+03  0.56076252346E+03  0.80922323778E+02 0.  0.
         11    1    3    3    0    0  0.62706081180E+02  0.90105642833E+02 -0.64888421959E+02  0.12752092688E+03  0.00000000000E+00 0.  1.
        -11    1    3    3    0    0  0.14368332357E+03  0.12966912962E+03 -0.27066237059E+03  0.33274179103E+03  0.00000000000E+00 0. -1.
          4    1    6    6  502    0  0.16010535530E+03 -0.33348118861E+03 -0.26613013608E+03  0.45570678872E+03  0.00000000000E+00 0. -1.
          1    1    5    5  503    0 -0.31328538935E+03  0.16579340635E+03 -0.10357392966E+03  0.36927326964E+03  0.00000000000E+00 0. -1.
         -2    1    5    5    0  503 -0.11727594244E+03  0.24103722818E+02 -0.76605656294E+02  0.14213747819E+03  0.00000000000E+00 0.  1.
         -3    1    6    6    0  502  0.64066571736E+02 -0.76190713014E+02 -0.33573159494E+02  0.10505573474E+03  0.00000000000E+00 0.  1.
<mgrwt>
<rscale>  0 0.12974698E+04</rscale>
<asrwt>0</asrwt>
<pdfrwt beam="1">  1        2 0.18060536E+00 0.12974698E+04</pdfrwt>
<pdfrwt beam="2">  1       -2 0.55154023E-01 0.12974698E+04</pdfrwt>
<totfact> 0.59495498E+01</totfact>
</mgrwt>
</event>
<event>
12    1  0.1472088E-007  0.1299059E+04  0.7818608E-02  0.9030312E-01
         -2   -1    0    0    0  501 -0.00000000000E+00  0.00000000000E+00  0.17536201685E+03  0.17536201685E+03  0.00000000000E+00 0.  1.
          2   -1    0    0  501    0  0.00000000000E+00 -0.00000000000E+00 -0.24058137157E+04  0.24058137157E+04  0.00000000000E+00 0. -1.
         23    2    1    2    0    0  0.37002923966E+03  0.13973843369E+03 -0.10912534149E+04  0.11642865587E+04  0.90998390573E+02 0.  0.
        254    2    1    2    0    0 -0.37002923966E+03 -0.13973843369E+03 -0.11391982840E+04  0.14168891739E+04  0.74387749856E+03 0.  0.
        -24    2    4    4    0    0 -0.73438626913E+02  0.26326117248E+03 -0.19411273856E+03  0.34473395103E+03  0.80386969502E+02 0.  0.
         24    2    4    4    0    0 -0.29659061275E+03 -0.40299960617E+03 -0.94508554540E+03  0.10721552229E+04  0.77171624613E+02 0.  0.
         11    1    3    3    0    0  0.33783231411E+03  0.96666566661E+02 -0.92175272192E+03  0.98645992211E+03  0.00000000000E+00 0. -1.
        -11    1    3    3    0    0  0.32196925552E+02  0.43071867030E+02 -0.16950069301E+03  0.17782663658E+03  0.00000000000E+00 0.  1.
          4    1    6    6  502    0 -0.26849794873E+03 -0.33401389811E+03 -0.84424925479E+03  0.94679102067E+03  0.00000000000E+00 0. -1.
          1    1    5    5  503    0 -0.42624184199E+02  0.20492569202E+03 -0.18259329828E+03  0.27776189966E+03  0.00000000000E+00 0. -1.
         -2    1    5    5    0  503 -0.30814442713E+02  0.58335480461E+02 -0.11519440280E+02  0.66972051370E+02  0.00000000000E+00 0.  1.
         -3    1    6    6    0  502 -0.28092664019E+02 -0.68985708062E+02 -0.10083629061E+03  0.12536420220E+03  0.00000000000E+00 0.  1.
<mgrwt>
<rscale>  0 0.12990587E+04</rscale>
<asrwt>0</asrwt>
<pdfrwt beam="1">  1        2 0.37012517E+00 0.12990587E+04</pdfrwt>
<pdfrwt beam="2">  1       -2 0.26978773E-01 0.12990587E+04</pdfrwt>
<totfact> 0.48459618E+01</totfact>
</mgrwt>
</event>
<event>
12    1  0.1472088E-007  0.1764936E+04  0.7818608E-02  0.8725171E-01
          1   -1    0    0  501    0  0.00000000000E+00  0.00000000000E+00  0.87593815633E+03  0.87593815633E+03  0.00000000000E+00 0. -1.
         -1   -1    0    0    0  501 -0.00000000000E+00 -0.00000000000E+00 -0.88904667549E+03  0.88904667549E+03  0.00000000000E+00 0.  1.
         23    2    1    2    0    0 -0.27142567907E+03  0.49235035913E+03  0.32176200788E+03  0.65504570659E+03  0.97330943742E+02 0.  0.
        254    2    1    2    0    0  0.27142567907E+03 -0.49235035913E+03 -0.33487052704E+03  0.11099391252E+04  0.89651872064E+03 0.  0.
        -24    2    4    4    0    0  0.13824975091E+03 -0.34283980747E+03  0.27188096904E+03  0.46620766981E+03  0.82329841824E+02 0.  0.
         24    2    4    4    0    0  0.13317592816E+03 -0.14951055166E+03 -0.60675149608E+03  0.64373145542E+03  0.78444730897E+02 0.  0.
         11    1    3    3    0    0 -0.98937501641E+02  0.94143480577E+02  0.73603930165E+02  0.15514239492E+03  0.00000000000E+00 0.  1.
        -11    1    3    3    0    0 -0.17248817743E+03  0.39820687855E+03  0.24815807771E+03  0.49990331166E+03  0.00000000000E+00 0. -1.
          2    1    6    6  502    0  0.66426840741E+01  0.93691822025E+00 -0.88024866149E+00  0.67659371240E+01  0.00000000000E+00 0. -1.
          1    1    5    5  503    0  0.75491393146E+02 -0.10388936112E+03  0.12264609829E+03  0.17757819466E+03  0.00000000000E+00 0. -1.
         -2    1    5    5    0  503  0.62758357760E+02 -0.23895044635E+03  0.14923487075E+03  0.28862947515E+03  0.00000000000E+00 0.  1.
         -1    1    6    6    0  502  0.12653324409E+03 -0.15044746988E+03 -0.60587124742E+03  0.63696551830E+03  0.00000000000E+00 0.  1.
<mgrwt>
<rscale>  0 0.17649362E+04</rscale>
<asrwt>0</asrwt>
<pdfrwt beam="1">  1        1 0.13475972E+00 0.17649362E+04</pdfrwt>
<pdfrwt beam="2">  1       -1 0.13677641E+00 0.17649362E+04</pdfrwt>
<totfact> 0.80311264E+00</totfact>
</mgrwt>
</event>
<event>
12    1  0.1798737E-007  0.2165815E+04  0.7818608E-02  0.8532793E-01
         -1   -1    0    0    0  501 -0.00000000000E+00  0.00000000000E+00  0.18140524339E+04  0.18140524339E+04  0.00000000000E+00 0.  1.
          1   -1    0    0  501    0  0.00000000000E+00 -0.00000000000E+00 -0.64644720133E+03  0.64644720133E+03  0.00000000000E+00 0. -1.
         23    2    1    2    0    0  0.35817309737E+03 -0.78452397931E+02  0.14066497671E+04  0.14567461410E+04  0.94884169533E+02 0.  0.
        254    2    1    2    0    0 -0.35817309737E+03  0.78452397931E+02 -0.23904453453E+03  0.10037534942E+04  0.90329178081E+03 0.  0.
        -24    2    4    4    0    0 -0.25272808249E+03  0.11100317104E+03  0.31901585895E+03  0.42965607517E+03  0.81486422220E+02 0.  0.
         24    2    4    4    0    0 -0.10544501487E+03 -0.32550773112E+02 -0.55806039348E+03  0.57409741906E+03  0.77319077902E+02 0.  0.
         13    1    3    3    0    0  0.33860607567E+03 -0.95557955285E+02  0.13328197484E+04  0.13784752007E+04  0.00000000000E+00 0.  1.
        -13    1    3    3    0    0  0.19567021693E+02  0.17105557355E+02  0.73830018763E+02  0.78270940335E+02  0.00000000000E+00 0. -1.
          4    1    6    6  502    0 -0.20479636647E+02  0.47999090339E+01 -0.23497308023E+02  0.31536932765E+02  0.00000000000E+00 0. -1.
          3    1    5    5  503    0 -0.16123668045E+02  0.17154894157E+02  0.27783148284E+01  0.23706161605E+02  0.00000000000E+00 0. -1.
         -4    1    5    5    0  503 -0.23660441445E+03  0.93848276886E+02  0.31623754413E+03  0.40594991357E+03  0.00000000000E+00 0.  1.
         -3    1    6    6    0  502 -0.84965378225E+02 -0.37350682146E+02 -0.53456308546E+03  0.54256048630E+03  0.00000000000E+00 0.  1.
<mgrwt>
<rscale>  0 0.21658154E+04</rscale>
<asrwt>0</asrwt>
<pdfrwt beam="1">  1        1 0.99453417E-01 0.21658154E+04</pdfrwt>
<pdfrwt beam="2">  1       -1 0.27908499E+00 0.21658154E+04</pdfrwt>
<totfact> 0.12670537E+00</totfact>
</mgrwt>
</event>
<event>
12    1  0.1472088E-007  0.1689753E+04  0.7818608E-02  0.8767231E-01
          2   -1    0    0  501    0  0.00000000000E+00  0.00000000000E+00  0.13941299783E+04  0.13941299783E+04  0.00000000000E+00 0. -1.
         -2   -1    0    0    0  501 -0.00000000000E+00 -0.00000000000E+00 -0.51201530414E+03  0.51201530414E+03  0.00000000000E+00 0.  1.
         23    2    1    2    0    0 -0.66418379789E+02 -0.90308789047E+02 -0.36844272462E+03  0.39664165457E+03  0.94907756607E+02 0.  0.
        254    2    1    2    0    0  0.66418379789E+02  0.90308789047E+02  0.12505573988E+04  0.15095036278E+04  0.83793813396E+03 0.  0.
        -24    2    4    4    0    0  0.93261613491E+01 -0.43021008944E+02 -0.10490897015E+03  0.14426202983E+03  0.88700939879E+02 0.  0.
         24    2    4    4    0    0  0.57092218440E+02  0.13332979799E+03  0.13554663689E+04  0.13652415980E+04  0.74559957668E+02 0.  0.
         13    1    3    3    0    0  0.15312356435E+02  0.79089493501E+01 -0.26559346502E+02  0.31660995342E+02  0.00000000000E+00 0. -1.
        -13    1    3    3    0    0 -0.81730736224E+02 -0.98217738397E+02 -0.34188337812E+03  0.36498065923E+03  0.00000000000E+00 0.  1.
          4    1    6    6  502    0  0.22250836021E+01  0.85578537993E+02  0.89249875193E+03  0.89659503644E+03  0.00000000000E+00 0. -1.
          1    1    5    5  503    0  0.16181925691E+02  0.16413582477E+02  0.50342360722E+00  0.23054584016E+02  0.00000000000E+00 0. -1.
         -2    1    5    5    0  503 -0.68557643416E+01 -0.59434591421E+02 -0.10541239376E+03  0.12120744581E+03  0.00000000000E+00 0.  1.
         -3    1    6    6    0  502  0.54867134838E+02  0.47751259998E+02  0.46296761697E+03  0.46864656158E+03  0.00000000000E+00 0.  1.
<mgrwt>
<rscale>  0 0.16897525E+04</rscale>
<asrwt>0</asrwt>
<pdfrwt beam="1">  1        2 0.21448153E+00 0.16897525E+04</pdfrwt>
<pdfrwt beam="2">  1       -2 0.78771586E-01 0.16897525E+04</pdfrwt>
<totfact> 0.19876872E+01</totfact>
</mgrwt>
</event>
<event>
12    1  0.1472088E-007  0.1474366E+04  0.7818608E-02  0.8901681E-01
          2   -1    0    0  501    0  0.00000000000E+00  0.00000000000E+00  0.36403080016E+04  0.36403080016E+04  0.00000000000E+00 0. -1.
         -2   -1    0    0    0  501 -0.00000000000E+00 -0.00000000000E+00 -0.14928365407E+03  0.14928365407E+03  0.00000000000E+00 0.  1.
         23    2    1    2    0    0 -0.78420642373E+02  0.18992199777E+01 -0.51815820333E+02  0.13286283862E+03  0.93884239688E+02 0.  0.
        254    2    1    2    0    0  0.78420642373E+02 -0.18992199777E+01  0.35428401678E+04  0.36567288170E+04  0.90210630320E+03 0.  0.
        -24    2    4    4    0    0 -0.46985673790E+02 -0.15589776174E+03  0.99597761654E+02  0.20685359205E+03  0.79730350324E+02 0.  0.
         24    2    4    4    0    0  0.12540631616E+03  0.15399854176E+03  0.34432424062E+04  0.34498752250E+04  0.79237019049E+02 0.  0.
         13    1    3    3    0    0 -0.15774118296E+02  0.25181335419E+02 -0.58583328888E+02  0.65688118295E+02  0.00000000000E+00 0.  1.
        -13    1    3    3    0    0 -0.62646524077E+02 -0.23282115441E+02  0.67675085549E+01  0.67174720322E+02  0.00000000000E+00 0. -1.
          2    1    6    6  502    0 -0.88812444823E+01  0.28875721037E+02  0.45704834598E+03  0.45804571206E+03  0.00000000000E+00 0. -1.
          1    1    5    5  503    0  0.17490486584E+02 -0.74594624948E+02  0.52632350780E+02  0.92953964631E+02  0.00000000000E+00 0. -1.
         -2    1    5    5    0  503 -0.64476160374E+02 -0.81303136788E+02  0.46965410874E+02  0.11389962742E+03  0.00000000000E+00 0.  1.
         -1    1    6    6    0  502  0.13428756064E+03  0.12512282072E+03  0.29861940602E+04  0.29918295129E+04  0.00000000000E+00 0.  1.
<mgrwt>
<rscale>  0 0.14743656E+04</rscale>
<asrwt>0</asrwt>
<pdfrwt beam="1">  1        2 0.56004732E+00 0.14743656E+04</pdfrwt>
<pdfrwt beam="2">  1       -2 0.22966719E-01 0.14743656E+04</pdfrwt>
<totfact> 0.10632246E+01</totfact>
</mgrwt>
</event>
<event>
12    1  0.1472088E-007  0.3922845E+04  0.7818608E-02  0.8020295E-01
         -2   -1    0    0    0  501 -0.00000000000E+00  0.00000000000E+00  0.11328396666E+04  0.11328396666E+04  0.00000000000E+00 0.  1.
          2   -1    0    0  501    0  0.00000000000E+00 -0.00000000000E+00 -0.33960477777E+04  0.33960477777E+04  0.00000000000E+00 0. -1.
         23    2    1    2    0    0  0.14061245709E+04 -0.83201130624E+03 -0.20918121355E+04  0.26559890037E+04  0.95762493417E+02 0.  0.
        254    2    1    2    0    0 -0.14061245709E+04  0.83201130624E+03 -0.17139597558E+03  0.18728984406E+04  0.89941251135E+03 0.  0.
        -24    2    4    4    0    0 -0.96125810553E+03  0.70632795490E+03  0.27337340633E+03  0.12265028990E+04  0.81608924944E+02 0.  0.
         24    2    4    4    0    0 -0.44486646537E+03  0.12568335134E+03 -0.44476938191E+03  0.64639554155E+03  0.79403502739E+02 0.  0.
         11    1    3    3    0    0  0.10238012401E+04 -0.57647958208E+03 -0.15590148464E+04  0.19521846683E+04  0.00000000000E+00 0. -1.
        -11    1    3    3    0    0  0.38232333082E+03 -0.25553172416E+03 -0.53279728903E+03  0.70380433541E+03  0.00000000000E+00 0.  1.
          4    1    6    6  502    0 -0.34694744402E+03  0.85372490683E+02 -0.38308885601E+03  0.52384927477E+03  0.00000000000E+00 0. -1.
          3    1    5    5  503    0 -0.78604990585E+03  0.56906408069E+03  0.25387813765E+03  0.10030765131E+04  0.00000000000E+00 0. -1.
         -4    1    5    5    0  503 -0.17520819968E+03  0.13726387421E+03  0.19495268674E+02  0.22342638586E+03  0.00000000000E+00 0.  1.
         -3    1    6    6    0  502 -0.97919021343E+02  0.40310860652E+02 -0.61680525901E+02  0.12254626678E+03  0.00000000000E+00 0.  1.
<mgrwt>
<rscale>  0 0.39228447E+04</rscale>
<asrwt>0</asrwt>
<pdfrwt beam="1">  1        2 0.52246889E+00 0.39228447E+04</pdfrwt>
<pdfrwt beam="2">  1       -2 0.17428303E+00 0.39228447E+04</pdfrwt>
<totfact> 0.15114349E-01</totfact>
</mgrwt>
</event>
<event>
12    1  0.1472088E-007  0.1905313E+04  0.7818608E-02  0.8652216E-01
         -1   -1    0    0    0  501 -0.00000000000E+00  0.00000000000E+00  0.30731856382E+03  0.30731856382E+03  0.00000000000E+00 0.  1.
          1   -1    0    0  501    0  0.00000000000E+00 -0.00000000000E+00 -0.29531403715E+04  0.29531403715E+04  0.00000000000E+00 0. -1.
         23    2    1    2    0    0  0.42289805840E+03 -0.39897233344E+03 -0.18207172376E+04  0.19134020486E+04  0.89857942615E+02 0.  0.
        254    2    1    2    0    0 -0.42289805840E+03  0.39897233344E+03 -0.82510457005E+03  0.13470568866E+04  0.89204428909E+03 0.  0.
        -24    2    4    4    0    0  0.23604975812E+03 -0.62478816189E+02 -0.20097573533E+03  0.32578459291E+03  0.78238507154E+02 0.  0.
         24    2    4    4    0    0 -0.65894781652E+03  0.46145114963E+03 -0.62412883472E+03  0.10212722937E+04  0.79441218840E+02 0.  0.
         11    1    3    3    0    0  0.16264681300E+03 -0.16903726866E+03 -0.87646982139E+03  0.90731853931E+03  0.00000000000E+00 0. -1.
        -11    1    3    3    0    0  0.26025124540E+03 -0.22993506478E+03 -0.94424741620E+03  0.10060835093E+04  0.00000000000E+00 0.  1.
          2    1    6    6  502    0 -0.28827278264E+03  0.18120586017E+03 -0.21957306652E+03  0.40515317167E+03  0.00000000000E+00 0. -1.
          3    1    5    5  503    0  0.54098554308E+02 -0.26199834185E+02 -0.94131457195E+02  0.11168623963E+03  0.00000000000E+00 0. -1.
         -4    1    5    5    0  503  0.18195120381E+03 -0.36278982004E+02 -0.10684427814E+03  0.21409835327E+03  0.00000000000E+00 0.  1.
         -1    1    6    6    0  502 -0.37067503388E+03  0.28024528945E+03 -0.40455576820E+03  0.61611912207E+03  0.00000000000E+00 0.  1.
<mgrwt>
<rscale>  0 0.19053135E+04</rscale>
<asrwt>0</asrwt>
<pdfrwt beam="1">  1        1 0.45432931E+00 0.19053135E+04</pdfrwt>
<pdfrwt beam="2">  1       -1 0.47279777E-01 0.19053135E+04</pdfrwt>
<totfact> 0.27049266E+00</totfact>
</mgrwt>
</event>
<event>
12    1  0.1472088E-007  0.2523101E+04  0.7818608E-02  0.8394802E-01
          2   -1    0    0  501    0  0.00000000000E+00  0.00000000000E+00  0.13494182514E+04  0.13494182514E+04  0.00000000000E+00 0. -1.
         -2   -1    0    0    0  501 -0.00000000000E+00 -0.00000000000E+00 -0.11794039294E+04  0.11794039294E+04  0.00000000000E+00 0.  1.
         23    2    1    2    0    0 -0.94002116132E+02  0.98266811333E+03 -0.50052234099E+03  0.11107690192E+04  0.93873220183E+02 0.  0.
        254    2    1    2    0    0  0.94002116132E+02 -0.98266811333E+03  0.67053666302E+03  0.14180531616E+04  0.76601718900E+03 0.  0.
        -24    2    4    4    0    0  0.32737033533E+03 -0.65045004909E+03  0.68687517593E+03  0.10041500051E+04  0.79139892219E+02 0.  0.
         24    2    4    4    0    0 -0.23336821920E+03 -0.33221806425E+03 -0.16338512908E+02  0.41390315653E+03  0.78862589608E+02 0.  0.
         11    1    3    3    0    0 -0.68668357156E+02  0.71588068890E+03 -0.41043698073E+03  0.82804530019E+03  0.00000000000E+00 0. -1.
        -11    1    3    3    0    0 -0.25333758976E+02  0.26678742444E+03 -0.90085360266E+02  0.28272371905E+03  0.00000000000E+00 0.  1.
          2    1    6    6  502    0 -0.15770082203E+03 -0.18223451014E+03 -0.39875218469E+02  0.24427238691E+03  0.00000000000E+00 0. -1.
          1    1    5    5  503    0  0.32706812789E+03 -0.65211115124E+03  0.68741430927E+03  0.10023776466E+04  0.00000000000E+00 0. -1.
         -2    1    5    5    0  503  0.30220744764E+00  0.16611021497E+01 -0.53913334135E+00  0.17723584437E+01  0.00000000000E+00 0.  1.
         -1    1    6    6    0  502 -0.75667397168E+02 -0.14998355410E+03  0.23536705561E+02  0.16963076963E+03  0.00000000000E+00 0.  1.
<mgrwt>
<rscale>  0 0.25231006E+04</rscale>
<asrwt>0</asrwt>
<pdfrwt beam="1">  1        2 0.20760281E+00 0.25231006E+04</pdfrwt>
<pdfrwt beam="2">  1       -2 0.18144676E+00 0.25231006E+04</pdfrwt>
<totfact> 0.24411802E+00</totfact>
</mgrwt>
</event>
<event>
12    1  0.1472088E-007  0.1600236E+04  0.7818608E-02  0.8820403E-01
         -2   -1    0    0    0  501 -0.00000000000E+00  0.00000000000E+00  0.64801651109E+03  0.64801651109E+03  0.00000000000E+00 0. -1.
          2   -1    0    0  501    0  0.00000000000E+00 -0.00000000000E+00 -0.98792015440E+03  0.98792015440E+03  0.00000000000E+00 0.  1.
         23    2    1    2    0    0  0.12295437220E+03 -0.52561011030E+03 -0.13218589128E+03  0.56313132334E+03  0.90884606906E+02 0.  0.
        254    2    1    2    0    0 -0.12295437220E+03  0.52561011030E+03 -0.20771775204E+03  0.10728053422E+04  0.90353797482E+03 0.  0.
        -24    2    4    4    0    0  0.24630479292E+03  0.67996050927E+02 -0.37063226515E+03  0.45729605143E+03  0.80385873926E+02 0.  0.
         24    2    4    4    0    0 -0.36925916511E+03  0.45761405938E+03  0.16291451312E+03  0.61550929072E+03  0.80917180006E+02 0.  0.
         13    1    3    3    0    0  0.10650832723E+03 -0.51801944208E+03 -0.13171924084E+03  0.54501204074E+03  0.00000000000E+00 0.  1.
        -13    1    3    3    0    0  0.16446044965E+02 -0.75906682197E+01 -0.46665043337E+00  0.18119282592E+02  0.00000000000E+00 0. -1.
          2    1    6    6  502    0 -0.31271341217E+03  0.34603283050E+03  0.10713924189E+03  0.47854698315E+03  0.00000000000E+00 0. -1.
          3    1    5    5  503    0  0.14876657830E+03  0.52369240207E+02 -0.28864456396E+03  0.32892205223E+03  0.00000000000E+00 0. -1.
         -4    1    5    5    0  503  0.97538214617E+02  0.15626810720E+02 -0.81987701187E+02  0.12837399920E+03  0.00000000000E+00 0.  1.
         -1    1    6    6    0  502 -0.56545752949E+02  0.11158122887E+03  0.55775271225E+02  0.13696230757E+03  0.00000000000E+00 0.  1.
<mgrwt>
<rscale>  0 0.16002357E+04</rscale>
<asrwt>0</asrwt>
<pdfrwt beam="1">  1        2 0.15198772E+00 0.16002357E+04</pdfrwt>
<pdfrwt beam="2">  1       -2 0.99694847E-01 0.16002357E+04</pdfrwt>
<totfact> 0.20464164E+01</totfact>
</mgrwt>
</event>
<event>
12    1  0.1472088E-007  0.2198648E+04  0.7818608E-02  0.8518991E-01
          2   -1    0    0  501    0  0.00000000000E+00  0.00000000000E+00  0.10733551864E+04  0.10733551864E+04  0.00000000000E+00 0. -1.
         -2   -1    0    0    0  501 -0.00000000000E+00 -0.00000000000E+00 -0.11259209702E+04  0.11259209702E+04  0.00000000000E+00 0.  1.
         23    2    1    2    0    0 -0.70604834633E+03 -0.49970906213E+03  0.24935153074E+03  0.90466671001E+03  0.89622855344E+02 0.  0.
        254    2    1    2    0    0  0.70604834633E+03  0.49970906213E+03 -0.30191731454E+03  0.12946094465E+04  0.91468362840E+03 0.  0.
        -24    2    4    4    0    0  0.89506594758E+03  0.44330152713E+03 -0.11170911029E+03  0.10084336689E+04  0.82463596634E+02 0.  0.
         24    2    4    4    0    0 -0.18901760125E+03  0.56407535000E+02 -0.19020820425E+03  0.28617577762E+03  0.82510309305E+02 0.  0.
         13    1    3    3    0    0 -0.64931840799E+03 -0.48191356796E+03  0.24561962892E+03  0.84509412733E+03  0.00000000000E+00 0. -1.
        -13    1    3    3    0    0 -0.56729938334E+02 -0.17795494170E+02  0.37319018216E+01  0.59572582682E+02  0.00000000000E+00 0.  1.
          4    1    6    6  502    0 -0.15777118992E+02  0.32009857960E+02 -0.15427369378E+02  0.38878685886E+02  0.00000000000E+00 0. -1.
          1    1    5    5  503    0  0.82011233473E+03  0.38720883847E+03 -0.11817068965E+03  0.91459238902E+03  0.00000000000E+00 0. -1.
         -2    1    5    5    0  503  0.74953612854E+02  0.56092688664E+02  0.64615793654E+01  0.93841279878E+02  0.00000000000E+00 0.  1.
         -3    1    6    6    0  502 -0.17324048226E+03  0.24397677040E+02 -0.17478083487E+03  0.24729709173E+03  0.00000000000E+00 0.  1.
<mgrwt>
<rscale>  0 0.21986479E+04</rscale>
<asrwt>0</asrwt>
<pdfrwt beam="1">  1        2 0.16513157E+00 0.21986479E+04</pdfrwt>
<pdfrwt beam="2">  1       -2 0.17321861E+00 0.21986479E+04</pdfrwt>
<totfact> 0.41836894E+00</totfact>
</mgrwt>
</event>
<event>
12    1  0.1472088E-007  0.4410832E+04  0.7818608E-02  0.7926436E-01
          2   -1    0    0  501    0  0.00000000000E+00  0.00000000000E+00  0.23434839777E+04  0.23434839777E+04  0.00000000000E+00 0. -1.
         -2   -1    0    0    0  501 -0.00000000000E+00 -0.00000000000E+00 -0.20754826203E+04  0.20754826203E+04  0.00000000000E+00 0.  1.
         23    2    1    2    0    0 -0.14146910941E+04  0.32925991369E+03 -0.14074119854E+04  0.20246455285E+04  0.92833382168E+02 0.  0.
        254    2    1    2    0    0  0.14146910941E+04 -0.32925991369E+03  0.16754133427E+04  0.23943210695E+04  0.90332747802E+03 0.  0.
        -24    2    4    4    0    0  0.37147551073E+03 -0.50274525930E+03  0.80655835147E+03  0.10232499447E+04  0.75876373758E+02 0.  0.
         24    2    4    4    0    0  0.10432155833E+04  0.17348534561E+03  0.86885499128E+03  0.13710711249E+04  0.80815314992E+02 0.  0.
         11    1    3    3    0    0 -0.66093912728E+03  0.14768478708E+03 -0.72026372412E+03  0.98865118146E+03  0.00000000000E+00 0. -1.
        -11    1    3    3    0    0 -0.75375196679E+03  0.18157512661E+03 -0.68714826129E+03  0.10359943470E+04  0.00000000000E+00 0.  1.
          2    1    6    6  502    0  0.94654626618E+03  0.15550032099E+03  0.81644319399E+03  0.12596466460E+04  0.00000000000E+00 0. -1.
          1    1    5    5  503    0  0.24603879004E+03 -0.33302126808E+03  0.47398664852E+03  0.62936602560E+03  0.00000000000E+00 0. -1.
         -2    1    5    5    0  503  0.12543672069E+03 -0.16972399122E+03  0.33257170294E+03  0.39388391905E+03  0.00000000000E+00 0.  1.
         -1    1    6    6    0  502  0.96669317158E+02  0.17985024625E+02  0.52411797285E+02  0.11142447884E+03  0.00000000000E+00 0.  1.
<mgrwt>
<rscale>  0 0.44108322E+04</rscale>
<asrwt>0</asrwt>
<pdfrwt beam="1">  1        2 0.36053600E+00 0.44108322E+04</pdfrwt>
<pdfrwt beam="2">  1       -2 0.31930502E+00 0.44108322E+04</pdfrwt>
<totfact> 0.79036966E-02</totfact>
</mgrwt>
</event>
<event>
12    1  0.1472088E-007  0.3657984E+04  0.7818608E-02  0.8077337E-01
         -1   -1    0    0    0  501 -0.00000000000E+00  0.00000000000E+00  0.16794016663E+04  0.16794016663E+04  0.00000000000E+00 0.  1.
          1   -1    0    0  501    0  0.00000000000E+00 -0.00000000000E+00 -0.19919069160E+04  0.19919069160E+04  0.00000000000E+00 0. -1.
         23    2    1    2    0    0  0.47596160490E+03 -0.15411575860E+04 -0.73885754414E+03  0.17765142420E+04  0.91576346819E+02 0.  0.
        254    2    1    2    0    0 -0.47596160490E+03  0.15411575860E+04  0.42635229444E+03  0.18947943403E+04  0.89819995472E+03 0.  0.
        -24    2    4    4    0    0  0.43194530325E+02 -0.49566148870E+02 -0.94564403171E+02  0.14042249611E+03  0.80333557768E+02 0.  0.
         24    2    4    4    0    0 -0.51915613522E+03  0.15907237349E+04  0.52091669761E+03  0.17543718442E+04  0.80878107276E+02 0.  0.
         11    1    3    3    0    0  0.28339788029E+03 -0.82980341847E+03 -0.44266221538E+03  0.98226162950E+03  0.00000000000E+00 0. -1.
        -11    1    3    3    0    0  0.19256372461E+03 -0.71135416756E+03 -0.29619532876E+03  0.79425261254E+03  0.00000000000E+00 0.  1.
          4    1    6    6  502    0 -0.80146080895E+02  0.29224350147E+03  0.65726650859E+02  0.31008007202E+03  0.00000000000E+00 0. -1.
          3    1    5    5  503    0 -0.11503124759E+02 -0.37012244667E+02 -0.11967410254E+02  0.40564110279E+02  0.00000000000E+00 0. -1.
         -4    1    5    5    0  503  0.54697655085E+02 -0.12553904203E+02 -0.82596992916E+02  0.99858385834E+02  0.00000000000E+00 0.  1.
         -3    1    6    6    0  502 -0.43901005433E+03  0.12984802334E+04  0.45519004675E+03  0.14442917722E+04  0.00000000000E+00 0.  1.
<mgrwt>
<rscale>  0 0.36579840E+04</rscale>
<asrwt>0</asrwt>
<pdfrwt beam="1">  1        1 0.30644722E+00 0.36579840E+04</pdfrwt>
<pdfrwt beam="2">  1       -1 0.25836949E+00 0.36579840E+04</pdfrwt>
<totfact> 0.14941037E-01</totfact>
</mgrwt>
</event>
<event>
12    1  0.1472088E-007  0.1417612E+04  0.7818608E-02  0.8941168E-01
         -1   -1    0    0    0  501 -0.00000000000E+00  0.00000000000E+00  0.68442852811E+03  0.68442852811E+03  0.00000000000E+00 0.  1.
          1   -1    0    0  501    0  0.00000000000E+00 -0.00000000000E+00 -0.73405133006E+03  0.73405133006E+03  0.00000000000E+00 0. -1.
         23    2    1    2    0    0 -0.15774069112E+03  0.24814399682E+03 -0.30478281574E+03  0.43488373012E+03  0.98862152327E+02 0.  0.
        254    2    1    2    0    0  0.15774069112E+03 -0.24814399682E+03  0.25516001379E+03  0.98359612804E+03  0.90327024841E+03 0.  0.
        -24    2    4    4    0    0 -0.26410107834E+03  0.81258074857E+02  0.32941852230E+03  0.43749706198E+03  0.80838493927E+02 0.  0.
         24    2    4    4    0    0  0.42184176946E+03 -0.32940207167E+03 -0.74258508504E+02  0.54609906606E+03  0.79080089678E+02 0.  0.
         13    1    3    3    0    0 -0.15631048617E+02  0.11130371126E+03 -0.98505654572E+02  0.14945303545E+03  0.00000000000E+00 0.  1.
        -13    1    3    3    0    0 -0.14210964250E+03  0.13684028555E+03 -0.20627716117E+03  0.28543069468E+03  0.00000000000E+00 0. -1.
          2    1    6    6  502    0  0.40766701401E+03 -0.30693423564E+03 -0.54923491516E+02  0.51324225200E+03  0.00000000000E+00 0. -1.
          1    1    5    5  503    0 -0.14457745595E+03  0.85451649565E+02  0.18152644636E+03  0.24729835404E+03  0.00000000000E+00 0. -1.
         -2    1    5    5    0  503 -0.11952362239E+03 -0.41935747077E+01  0.14789207594E+03  0.19019870794E+03  0.00000000000E+00 0.  1.
         -1    1    6    6    0  502  0.14174755447E+02 -0.22467836036E+02 -0.19335016988E+02  0.32856814058E+02  0.00000000000E+00 0.  1.
<mgrwt>
<rscale>  0 0.14176116E+04</rscale>
<asrwt>0</asrwt>
<pdfrwt beam="1">  1        1 0.11293097E+00 0.14176116E+04</pdfrwt>
<pdfrwt beam="2">  1       -1 0.10529670E+00 0.14176116E+04</pdfrwt>
<totfact> 0.20865996E+01</totfact>
</mgrwt>
</event>
<event>
12    1  0.1472088E-007  0.2859251E+04  0.7818608E-02  0.8285106E-01
         -2   -1    0    0    0  501 -0.00000000000E+00  0.00000000000E+00  0.21477733721E+04  0.21477733721E+04  0.00000000000E+00 0.  1.
          2   -1    0    0  501    0  0.00000000000E+00 -0.00000000000E+00 -0.95160352622E+03  0.95160352622E+03  0.00000000000E+00 0. -1.
         23    2    1    2    0    0 -0.12055090631E+04 -0.33167344950E+03  0.87796865018E+03  0.15305438630E+04  0.92066212280E+02 0.  0.
        254    2    1    2    0    0  0.12055090631E+04  0.33167344950E+03  0.31820119567E+03  0.15688330353E+04  0.89259493236E+03 0.  0.
        -24    2    4    4    0    0  0.10760452595E+04  0.27662709129E+03 -0.10244313418E+03  0.11185958785E+04  0.79788441016E+02 0.  0.
         24    2    4    4    0    0  0.12946380360E+03  0.55046358209E+02  0.42064432985E+03  0.45023715684E+03  0.77336066452E+02 0.  0.
         13    1    3    3    0    0 -0.20080339164E+03 -0.64768551181E+02  0.10893443657E+03  0.23745247691E+03  0.00000000000E+00 0. -1.
        -13    1    3    3    0    0 -0.10047056715E+04 -0.26690489832E+03  0.76903421361E+03  0.12930913861E+04  0.00000000000E+00 0.  1.
          4    1    6    6  502    0  0.13781598779E+03  0.46360505859E+02  0.40611828705E+03  0.43136365873E+03  0.00000000000E+00 0. -1.
          1    1    5    5  503    0  0.69461091237E+03  0.14821530600E+03 -0.90069232587E+02  0.71593614462E+03  0.00000000000E+00 0. -1.
         -2    1    5    5    0  503  0.38143434717E+03  0.12841178529E+03 -0.12373901594E+02  0.40265973383E+03  0.00000000000E+00 0.  1.
         -3    1    6    6    0  502 -0.83521841884E+01  0.86858523500E+01  0.14526042794E+02  0.18873498113E+02  0.00000000000E+00 0.  1.
<mgrwt>
<rscale>  0 0.28592508E+04</rscale>
<asrwt>0</asrwt>
<pdfrwt beam="1">  1        2 0.14640054E+00 0.28592508E+04</pdfrwt>
<pdfrwt beam="2">  1       -2 0.33042667E+00 0.28592508E+04</pdfrwt>
<totfact> 0.48386225E-01</totfact>
</mgrwt>
</event>
<event>
12    1  0.1472088E-007  0.1206038E+04  0.7818608E-02  0.9107588E-01
          2   -1    0    0  501    0  0.00000000000E+00  0.00000000000E+00  0.30778638138E+04  0.30778638138E+04  0.00000000000E+00 0. -1.
         -2   -1    0    0    0  501 -0.00000000000E+00 -0.00000000000E+00 -0.11814432549E+03  0.11814432549E+03  0.00000000000E+00 0.  1.
         23    2    1    2    0    0 -0.84584015175E+02  0.21409897400E+03  0.29261338743E+03  0.38060912660E+03  0.79043573166E+02 0.  0.
        254    2    1    2    0    0  0.84584015175E+02 -0.21409897400E+03  0.26671061009E+04  0.28153990127E+04  0.87179345085E+03 0.  0.
        -24    2    4    4    0    0 -0.20880623520E+03 -0.13158013138E+03  0.19438279358E+03  0.32267040514E+03  0.73608050345E+02 0.  0.
         24    2    4    4    0    0  0.29339025037E+03 -0.82518842618E+02  0.24727233073E+04  0.24927286076E+04  0.80300423473E+02 0.  0.
         11    1    3    3    0    0  0.13707174422E+02  0.51851538375E+02  0.68135523077E+02  0.86711695679E+02  0.00000000000E+00 0. -1.
        -11    1    3    3    0    0 -0.98291189596E+02  0.16224743563E+03  0.22447786435E+03  0.29389743092E+03  0.00000000000E+00 0.  1.
          2    1    6    6  502    0  0.23596978050E+03 -0.36142224448E+02  0.20151269958E+04  0.20292177821E+04  0.00000000000E+00 0. -1.
          1    1    5    5  503    0 -0.19596933199E+03 -0.13918227583E+03  0.19184084626E+03  0.30753633164E+03  0.00000000000E+00 0. -1.
         -2    1    5    5    0  503 -0.12836903213E+02  0.76021444486E+01  0.25419473215E+01  0.15134073494E+02  0.00000000000E+00 0.  1.
         -1    1    6    6    0  502  0.57420469871E+02 -0.46376618170E+02  0.45759631150E+03  0.46351082551E+03  0.00000000000E+00 0.  1.
<mgrwt>
<rscale>  0 0.12060384E+04</rscale>
<asrwt>0</asrwt>
<pdfrwt beam="1">  1        2 0.47351745E+00 0.12060384E+04</pdfrwt>
<pdfrwt beam="2">  1       -2 0.18176052E-01 0.12060384E+04</pdfrwt>
<totfact> 0.39356797E+01</totfact>
</mgrwt>
</event>
<event>
12    1  0.1472088E-007  0.1605562E+04  0.7818608E-02  0.8817139E-01
         -2   -1    0    0    0  501 -0.00000000000E+00  0.00000000000E+00  0.92795478470E+03  0.92795478470E+03  0.00000000000E+00 0.  1.
          2   -1    0    0  501    0  0.00000000000E+00 -0.00000000000E+00 -0.69449192256E+03  0.69449192256E+03  0.00000000000E+00 0. -1.
         23    2    1    2    0    0 -0.18281931701E+03  0.20621160329E+03 -0.39860153938E+03  0.49297528869E+03  0.90528007072E+02 0.  0.
        254    2    1    2    0    0  0.18281931701E+03 -0.20621160329E+03  0.63206440153E+03  0.11294714186E+04  0.89456925370E+03 0.  0.
        -24    2    4    4    0    0 -0.28997601034E+03  0.12985872436E+03  0.11249317143E+03  0.34639689028E+03  0.79916938838E+02 0.  0.
         24    2    4    4    0    0  0.47279532734E+03 -0.33607032765E+03  0.51957123010E+03  0.78307452828E+03  0.82296822624E+02 0.  0.
         11    1    3    3    0    0 -0.18087972251E+03  0.16912013898E+03 -0.30899542393E+03  0.39597634706E+03  0.00000000000E+00 0. -1.
        -11    1    3    3    0    0 -0.19395944992E+01  0.37091464305E+02 -0.89606115455E+02  0.96998941634E+02  0.00000000000E+00 0.  1.
          2    1    6    6  502    0  0.67276393992E+02 -0.71827430066E+02  0.12174735342E+03  0.15654938826E+03  0.00000000000E+00 0. -1.
          1    1    5    5  503    0 -0.47154824150E+02 -0.88137591588E+01  0.15066189431E+02  0.50281704974E+02  0.00000000000E+00 0. -1.
         -2    1    5    5    0  503 -0.24282118619E+03  0.13867248352E+03  0.97426981999E+02  0.29611518531E+03  0.00000000000E+00 0.  1.
         -1    1    6    6    0  502  0.40551893335E+03 -0.26424289758E+03  0.39782387668E+03  0.62652514002E+03  0.00000000000E+00 0.  1.
<mgrwt>
<rscale>  0 0.16055617E+04</rscale>
<asrwt>0</asrwt>
<pdfrwt beam="1">  1        2 0.10684491E+00 0.16055617E+04</pdfrwt>
<pdfrwt beam="2">  1       -2 0.14276228E+00 0.16055617E+04</pdfrwt>
<totfact> 0.13532932E+01</totfact>
</mgrwt>
</event>
<event>
12    1  0.1472088E-007  0.1805538E+04  0.7818608E-02  0.8703360E-01
         -1   -1    0    0    0  501 -0.00000000000E+00  0.00000000000E+00  0.33046711958E+03  0.33046711958E+03  0.00000000000E+00 0.  1.
          1   -1    0    0  501    0  0.00000000000E+00 -0.00000000000E+00 -0.24661827494E+04  0.24661827494E+04  0.00000000000E+00 0. -1.
         23    2    1    2    0    0  0.14915927151E+03  0.36780412074E+03  0.45474105766E+02  0.41003336971E+03  0.92364010688E+02 0.  0.
        254    2    1    2    0    0 -0.14915927151E+03 -0.36780412074E+03 -0.21811897355E+04  0.23866164992E+04  0.88364092958E+03 0.  0.
        -24    2    4    4    0    0  0.16484720575E+03  0.20652868289E+03 -0.38914171180E+03  0.47703724171E+03  0.79401259555E+02 0.  0.
         24    2    4    4    0    0 -0.31400647726E+03 -0.57433280363E+03 -0.17920480237E+04  0.19095792575E+04  0.81231670230E+02 0.  0.
         11    1    3    3    0    0  0.12284341208E+02  0.38161082722E+02 -0.23543308669E+02  0.46491511661E+02  0.00000000000E+00 0. -1.
        -11    1    3    3    0    0  0.13687493031E+03  0.32964303802E+03  0.69017414435E+02  0.36354185805E+03  0.00000000000E+00 0.  1.
          4    1    6    6  502    0 -0.20659199138E+03 -0.37022648825E+03 -0.10447415759E+04  0.11274896291E+04  0.00000000000E+00 0. -1.
          1    1    5    5  503    0  0.90980513677E+02  0.12598174641E+03 -0.29218280927E+03  0.33093752934E+03  0.00000000000E+00 0. -1.
         -2    1    5    5    0  503  0.73866692071E+02  0.80546936478E+02 -0.96958902534E+02  0.14609971237E+03  0.00000000000E+00 0.  1.
         -3    1    6    6    0  502 -0.10741448589E+03 -0.20410631538E+03 -0.74730644789E+03  0.78208962837E+03  0.00000000000E+00 0.  1.
<mgrwt>
<rscale>  0 0.18055385E+04</rscale>
<asrwt>0</asrwt>
<pdfrwt beam="1">  1        1 0.37941274E+00 0.18055385E+04</pdfrwt>
<pdfrwt beam="2">  1       -1 0.50841094E-01 0.18055385E+04</pdfrwt>
<totfact> 0.52486332E+00</totfact>
</mgrwt>
</event>
<event>
12    1  0.1472088E-007  0.1359178E+04  0.7818608E-02  0.8983909E-01
         -2   -1    0    0    0  501 -0.00000000000E+00  0.00000000000E+00  0.27150455993E+03  0.27150455993E+03  0.00000000000E+00 0.  1.
          2   -1    0    0  501    0  0.00000000000E+00 -0.00000000000E+00 -0.17010438644E+04  0.17010438644E+04  0.00000000000E+00 0. -1.
         23    2    1    2    0    0 -0.16263428276E+03 -0.34276637970E+03 -0.38902526622E+03  0.55096592080E+03  0.91016960745E+02 0.  0.
        254    2    1    2    0    0  0.16263428276E+03  0.34276637970E+03 -0.10405140383E+04  0.14215825035E+04  0.89122873022E+03 0.  0.
        -24    2    4    4    0    0  0.24498351809E+03 -0.24581832197E+03 -0.50161497937E+03  0.61504810758E+03  0.78886092281E+02 0.  0.
         24    2    4    4    0    0 -0.82349235327E+02  0.58858470167E+03 -0.53889905890E+03  0.80653439597E+03  0.82898664686E+02 0.  0.
         13    1    3    3    0    0 -0.95421718212E+02 -0.23815001092E+03 -0.31497993902E+03  0.40624265408E+03  0.00000000000E+00 0.  1.
        -13    1    3    3    0    0 -0.67212564551E+02 -0.10461636878E+03 -0.74045327198E+02  0.14472326672E+03  0.00000000000E+00 0. -1.
          2    1    6    6  502    0 -0.56924834123E+02  0.55143553380E+03 -0.50811454613E+03  0.75199865470E+03  0.00000000000E+00 0. -1.
          3    1    5    5  503    0  0.22447107589E+03 -0.24090086430E+03 -0.43757944858E+03  0.54762785187E+03  0.00000000000E+00 0. -1.
         -4    1    5    5    0  503  0.20512442198E+02 -0.49174576661E+01 -0.64035530797E+02  0.67420255705E+02  0.00000000000E+00 0.  1.
         -1    1    6    6    0  502 -0.25424401204E+02  0.37149167864E+02 -0.30784512763E+02  0.54535741268E+02  0.00000000000E+00 0.  1.
<mgrwt>
<rscale>  0 0.13591779E+04</rscale>
<asrwt>0</asrwt>
<pdfrwt beam="1">  1        2 0.26169906E+00 0.13591779E+04</pdfrwt>
<pdfrwt beam="2">  1       -2 0.41769932E-01 0.13591779E+04</pdfrwt>
<totfact> 0.51915639E+01</totfact>
</mgrwt>
</event>
<event>
12    1  0.1472088E-007  0.2604141E+04  0.7818608E-02  0.8366796E-01
         -2   -1    0    0    0  501 -0.00000000000E+00  0.00000000000E+00  0.10625901218E+04  0.10625901218E+04  0.00000000000E+00 0.  1.
          2   -1    0    0  501    0  0.00000000000E+00 -0.00000000000E+00 -0.15955230542E+04  0.15955230542E+04  0.00000000000E+00 0. -1.
         23    2    1    2    0    0  0.62799142903E+03 -0.95995237445E+03 -0.27442504901E+03  0.11830096636E+04  0.91219299002E+02 0.  0.
        254    2    1    2    0    0 -0.62799142903E+03  0.95995237445E+03 -0.25850788342E+03  0.14751035125E+04  0.89063025469E+03 0.  0.
        -24    2    4    4    0    0 -0.11757103162E+03  0.10768746633E+03  0.28765966537E+03  0.33859718400E+03  0.80501130765E+02 0.  0.
         24    2    4    4    0    0 -0.51042039741E+03  0.85226490812E+03 -0.54616754879E+03  0.11365063285E+04  0.80393952498E+02 0.  0.
         11    1    3    3    0    0  0.62373475408E+03 -0.95580474468E+03 -0.26469886947E+03  0.11716113882E+04  0.00000000000E+00 0.  1.
        -11    1    3    3    0    0  0.42566749503E+01 -0.41476297696E+01 -0.97261795406E+01  0.11398275431E+02  0.00000000000E+00 0. -1.
          2    1    6    6  502    0 -0.45839372176E+03  0.71474554933E+03 -0.47846984834E+03  0.97463808678E+03  0.00000000000E+00 0. -1.
          3    1    5    5  503    0 -0.39551688678E+02  0.81609389720E+02  0.19261665389E+03  0.21289810690E+03  0.00000000000E+00 0. -1.
         -4    1    5    5    0  503 -0.78019342940E+02  0.26078076606E+02  0.95043011480E+02  0.12569907710E+03  0.00000000000E+00 0.  1.
         -1    1    6    6    0  502 -0.52026675656E+02  0.13751935879E+03 -0.67697700442E+02  0.16186824169E+03  0.00000000000E+00 0.  1.
<mgrwt>
<rscale>  0 0.26041406E+04</rscale>
<asrwt>0</asrwt>
<pdfrwt beam="1">  1        2 0.24546508E+00 0.26041406E+04</pdfrwt>
<pdfrwt beam="2">  1       -2 0.16347540E+00 0.26041406E+04</pdfrwt>
<totfact> 0.23560572E+00</totfact>
</mgrwt>
</event>
<event>
12    1  0.1472088E-007  0.1319403E+04  0.7818608E-02  0.9014318E-01
          1   -1    0    0  501    0  0.00000000000E+00  0.00000000000E+00  0.75750991200E+03  0.75750991200E+03  0.00000000000E+00 0. -1.
         -1   -1    0    0    0  501 -0.00000000000E+00 -0.00000000000E+00 -0.57452198223E+03  0.57452198223E+03  0.00000000000E+00 0.  1.
         23    2    1    2    0    0  0.67077631197E+02 -0.17726506376E+03 -0.23743041777E+03  0.31713076761E+03  0.90974771480E+02 0.  0.
        254    2    1    2    0    0 -0.67077631197E+02  0.17726506376E+03  0.42041834754E+03  0.10149011266E+04  0.90407433236E+03 0.  0.
        -24    2    4    4    0    0  0.10694385478E+02 -0.13989822105E+03 -0.23106107340E+03  0.28164286155E+03  0.79041759140E+02 0.  0.
         24    2    4    4    0    0 -0.77772016675E+02  0.31716328481E+03  0.65147942094E+03  0.73325826508E+03  0.81247840488E+02 0.  0.
         11    1    3    3    0    0  0.13881485079E+02  0.83219213802E+01 -0.27613493113E+02  0.32007108669E+02  0.00000000000E+00 0. -1.
        -11    1    3    3    0    0  0.53196146118E+02 -0.18558698514E+03 -0.20981692466E+03  0.28512365894E+03  0.00000000000E+00 0.  1.
          4    1    6    6  502    0 -0.17100097535E+02  0.33214519462E+02  0.14216103318E+03  0.14698767633E+03  0.00000000000E+00 0. -1.
          1    1    5    5  503    0  0.20000772890E+02  0.71989479555E+00 -0.25574915572E+02  0.32474997632E+02  0.00000000000E+00 0. -1.
         -4    1    5    5    0  503 -0.93063874120E+01 -0.14061811585E+03 -0.20548615782E+03  0.24916786391E+03  0.00000000000E+00 0.  1.
         -3    1    6    6    0  502 -0.60671919140E+02  0.28394876535E+03  0.50931838776E+03  0.58627058875E+03  0.00000000000E+00 0.  1.
<mgrwt>
<rscale>  0 0.13194030E+04</rscale>
<asrwt>0</asrwt>
<pdfrwt beam="1">  1        1 0.11653999E+00 0.13194030E+04</pdfrwt>
<pdfrwt beam="2">  1       -1 0.88387997E-01 0.13194030E+04</pdfrwt>
<totfact> 0.29751879E+01</totfact>
</mgrwt>
</event>
<event>
12    1  0.1472088E-007  0.1718082E+04  0.7818608E-02  0.8751118E-01
         -1   -1    0    0    0  501 -0.00000000000E+00  0.00000000000E+00  0.27053050315E+04  0.27053050315E+04  0.00000000000E+00 0.  1.
          1   -1    0    0  501    0  0.00000000000E+00 -0.00000000000E+00 -0.27277922993E+03  0.27277922993E+03  0.00000000000E+00 0. -1.
         23    2    1    2    0    0 -0.48429246977E+03  0.34153131005E+03  0.50201131466E+03  0.78176519144E+03  0.89211111922E+02 0.  0.
        254    2    1    2    0    0  0.48429246977E+03 -0.34153131005E+03  0.19305144869E+04  0.21963190700E+04  0.86356727649E+03 0.  0.
        -24    2    4    4    0    0 -0.40659698258E+02 -0.52089364801E+01  0.13103877593E+04  0.13133533779E+04  0.78106794281E+02 0.  0.
         24    2    4    4    0    0  0.52495216802E+03 -0.33632237357E+03  0.62012672756E+03  0.88296569209E+03  0.79898294691E+02 0.  0.
         11    1    3    3    0    0 -0.42600667511E+02  0.64805085755E+02  0.76198062465E+02  0.10872286206E+03  0.00000000000E+00 0.  1.
        -11    1    3    3    0    0 -0.44169180226E+03  0.27672622430E+03  0.42581325219E+03  0.67304232938E+03  0.00000000000E+00 0. -1.
          4    1    6    6  502    0  0.45763184344E+03 -0.27060602941E+03  0.55492112352E+03  0.76849982473E+03  0.00000000000E+00 0. -1.
          3    1    5    5  503    0 -0.54718184864E+02 -0.20280231044E+02  0.11706801167E+04  0.11721336541E+04  0.00000000000E+00 0. -1.
         -4    1    5    5    0  503  0.14058486607E+02  0.15071294564E+02  0.13970764268E+03  0.14121972380E+03  0.00000000000E+00 0.  1.
         -3    1    6    6    0  502  0.67320324586E+02 -0.65716344160E+02  0.65205604045E+02  0.11446586736E+03  0.00000000000E+00 0.  1.
<mgrwt>
<rscale>  0 0.17180815E+04</rscale>
<asrwt>0</asrwt>
<pdfrwt beam="1">  1        1 0.41966037E-01 0.17180815E+04</pdfrwt>
<pdfrwt beam="2">  1       -1 0.41620076E+00 0.17180815E+04</pdfrwt>
<totfact> 0.52434778E-01</totfact>
</mgrwt>
</event>
<event>
12    1  0.1472088E-007  0.2182770E+04  0.7818608E-02  0.8525634E-01
         -2   -1    0    0    0  501 -0.00000000000E+00  0.00000000000E+00  0.45489666433E+03  0.45489666433E+03  0.00000000000E+00 0.  1.
          2   -1    0    0  501    0  0.00000000000E+00 -0.00000000000E+00 -0.26184427126E+04  0.26184427126E+04  0.00000000000E+00 0. -1.
         23    2    1    2    0    0 -0.46891086051E+03 -0.75031340966E+03 -0.11654110448E+04  0.14661265281E+04  0.92176381645E+02 0.  0.
        254    2    1    2    0    0  0.46891086051E+03  0.75031340966E+03 -0.99813500347E+03  0.16072128488E+04  0.89666718932E+03 0.  0.
        -24    2    4    4    0    0 -0.25401322473E+03  0.23839018245E+03 -0.39691768397E+03  0.53404444487E+03  0.79418032094E+02 0.  0.
         24    2    4    4    0    0  0.72292408525E+03  0.51192322721E+03 -0.60121731951E+03  0.10731684039E+04  0.74454914950E+02 0.  0.
         13    1    3    3    0    0 -0.31064442632E+03 -0.55163434100E+03 -0.78087749624E+03  0.10052711425E+04  0.00000000000E+00 0. -1.
        -13    1    3    3    0    0 -0.15826643419E+03 -0.19867906866E+03 -0.38453354857E+03  0.46085538566E+03  0.00000000000E+00 0.  1.
          2    1    6    6  502    0  0.65297626116E+03  0.44771522119E+03 -0.55944986041E+03  0.96943852989E+03  0.00000000000E+00 0. -1.
          1    1    5    5  503    0 -0.16110098609E+03  0.11881450765E+03 -0.17808596978E+03  0.26792728039E+03  0.00000000000E+00 0. -1.
         -2    1    5    5    0  503 -0.92912238645E+02  0.11957567479E+03 -0.21883171419E+03  0.26611716448E+03  0.00000000000E+00 0.  1.
         -1    1    6    6    0  502  0.69947824083E+02  0.64208006025E+02 -0.41767459100E+02  0.10372987405E+03  0.00000000000E+00 0.  1.
<mgrwt>
<rscale>  0 0.21827697E+04</rscale>
<asrwt>0</asrwt>
<pdfrwt beam="1">  1        2 0.40283734E+00 0.21827697E+04</pdfrwt>
<pdfrwt beam="2">  1       -2 0.69984103E-01 0.21827697E+04</pdfrwt>
<totfact> 0.50544995E+00</totfact>
</mgrwt>
</event>
<event>
12    1  0.1472088E-007  0.2231094E+04  0.7818608E-02  0.8505597E-01
          1   -1    0    0  501    0  0.00000000000E+00  0.00000000000E+00  0.78912495692E+03  0.78912495692E+03  0.00000000000E+00 0. -1.
         -1   -1    0    0    0  501 -0.00000000000E+00 -0.00000000000E+00 -0.15769932705E+04  0.15769932705E+04  0.00000000000E+00 0.  1.
         23    2    1    2    0    0  0.31886572776E+03 -0.24378287259E+03 -0.11826252399E+04  0.12521719163E+04  0.90700653504E+02 0.  0.
        254    2    1    2    0    0 -0.31886572776E+03  0.24378287259E+03  0.39475692641E+03  0.11139463111E+04  0.96121689107E+03 0.  0.
        -24    2    4    4    0    0 -0.24950651226E+03 -0.17580450244E+03  0.56588352321E+03  0.64795310457E+03  0.80363805011E+02 0.  0.
         24    2    4    4    0    0 -0.69359215501E+02  0.41958737502E+03 -0.17112659680E+03  0.46599320649E+03  0.83672518237E+02 0.  0.
         13    1    3    3    0    0  0.27601335489E+03 -0.22712155226E+03 -0.94943305483E+03  0.10144903633E+04  0.00000000000E+00 0.  1.
        -13    1    3    3    0    0  0.42852372864E+02 -0.16661320327E+02 -0.23319218511E+03  0.23768155303E+03  0.00000000000E+00 0. -1.
          2    1    6    6  502    0 -0.39861822813E+01  0.27043593249E+03 -0.11211450067E+03  0.29278173524E+03  0.00000000000E+00 0. -1.
          3    1    5    5  503    0 -0.20377442136E+03 -0.10677550025E+03  0.37592688119E+03  0.44073352749E+03  0.00000000000E+00 0. -1.
         -4    1    5    5    0  503 -0.45732090900E+02 -0.69029002187E+02  0.18995664201E+03  0.20721957708E+03  0.00000000000E+00 0.  1.
         -1    1    6    6    0  502 -0.65373033220E+02  0.14915144254E+03 -0.59012096131E+02  0.17321147125E+03  0.00000000000E+00 0.  1.
<mgrwt>
<rscale>  0 0.22310937E+04</rscale>
<asrwt>0</asrwt>
<pdfrwt beam="1">  1        1 0.12140384E+00 0.22310937E+04</pdfrwt>
<pdfrwt beam="2">  1       -1 0.24261434E+00 0.22310937E+04</pdfrwt>
<totfact> 0.16013369E+00</totfact>
</mgrwt>
</event>
<event>
12    1  0.1472088E-007  0.1225699E+04  0.7818608E-02  0.9090655E-01
         -1   -1    0    0    0  501 -0.00000000000E+00  0.00000000000E+00  0.41844173774E+03  0.41844173774E+03  0.00000000000E+00 0.  1.
          1   -1    0    0  501    0  0.00000000000E+00 -0.00000000000E+00 -0.89757947241E+03  0.89757947241E+03  0.00000000000E+00 0. -1.
         23    2    1    2    0    0  0.11419891668E+03  0.40537535041E+02  0.17899147355E+03  0.23330465675E+03  0.87797670462E+02 0.  0.
        254    2    1    2    0    0 -0.11419891668E+03 -0.40537535041E+02 -0.65812920821E+03  0.10827165534E+04  0.85115004316E+03 0.  0.
        -24    2    4    4    0    0 -0.42946081572E+03  0.21375641836E+02 -0.12527348800E+03  0.45533499933E+03  0.82115799385E+02 0.  0.
         24    2    4    4    0    0  0.31526189904E+03 -0.61913176877E+02 -0.53285572021E+03  0.62738155407E+03  0.80306222464E+02 0.  0.
         13    1    3    3    0    0  0.12581622727E+03  0.42625202934E+02  0.14188269908E+03  0.19436391452E+03  0.00000000000E+00 0.  1.
        -13    1    3    3    0    0 -0.11617310589E+02 -0.20876678935E+01  0.37108774470E+02  0.38940742227E+02  0.00000000000E+00 0. -1.
          2    1    6    6  502    0  0.53196636448E+01 -0.11125023331E+02 -0.53220469734E+01  0.13430902776E+02  0.00000000000E+00 0. -1.
          1    1    5    5  503    0 -0.14932311432E+03 -0.31269907077E+02 -0.37832540882E+02  0.15718301660E+03  0.00000000000E+00 0. -1.
         -2    1    5    5    0  503 -0.28013770140E+03  0.52645548913E+02 -0.87440947118E+02  0.29815198272E+03  0.00000000000E+00 0.  1.
         -1    1    6    6    0  502  0.30994223540E+03 -0.50788153546E+02 -0.52753367324E+03  0.61395065130E+03  0.00000000000E+00 0.  1.
<mgrwt>
<rscale>  0 0.12256993E+04</rscale>
<asrwt>0</asrwt>
<pdfrwt beam="1">  1        1 0.13808915E+00 0.12256993E+04</pdfrwt>
<pdfrwt beam="2">  1       -1 0.64375653E-01 0.12256993E+04</pdfrwt>
<totfact> 0.44194568E+01</totfact>
</mgrwt>
</event>
<event>
12    1  0.1472088E-007  0.1792233E+04  0.7818608E-02  0.8710441E-01
          2   -1    0    0  501    0  0.00000000000E+00  0.00000000000E+00  0.37183613818E+04  0.37183613818E+04  0.00000000000E+00 0. -1.
         -2   -1    0    0    0  501 -0.00000000000E+00 -0.00000000000E+00 -0.21596195784E+03  0.21596195784E+03  0.00000000000E+00 0.  1.
         23    2    1    2    0    0 -0.22902488856E+02  0.17759944660E+03  0.27254278280E+04  0.27327560625E+04  0.89066066799E+02 0.  0.
        254    2    1    2    0    0  0.22902488856E+02 -0.17759944660E+03  0.77697159599E+03  0.12015672771E+04  0.89889541832E+03 0.  0.
        -24    2    4    4    0    0  0.12373421348E+03  0.29367892421E+03  0.61562958529E+02  0.33523877575E+03  0.83890242536E+02 0.  0.
         24    2    4    4    0    0 -0.10083172463E+03 -0.47127837081E+03  0.71540863746E+03  0.86632850138E+03  0.80282091848E+02 0.  0.
         11    1    3    3    0    0 -0.50756408199E+02  0.11025684337E+03  0.13683296843E+04  0.13737026277E+04  0.00000000000E+00 0. -1.
        -11    1    3    3    0    0  0.27853919343E+02  0.67342603226E+02  0.13570981437E+04  0.13590534348E+04  0.00000000000E+00 0.  1.
          4    1    6    6  502    0 -0.10351034804E+03 -0.45681592914E+03  0.66212179083E+03  0.81104898197E+03  0.00000000000E+00 0. -1.
          1    1    5    5  503    0  0.46674559039E+02  0.21226658068E+03  0.36672973033E+02  0.22040989698E+03  0.00000000000E+00 0. -1.
         -2    1    5    5    0  503  0.77059654444E+02  0.81412343530E+02  0.24889985496E+02  0.11482887877E+03  0.00000000000E+00 0.  1.
         -3    1    6    6    0  502  0.26786234171E+01 -0.14462441672E+02  0.53286846628E+02  0.55279519409E+02  0.00000000000E+00 0.  1.
<mgrwt>
<rscale>  0 0.17922328E+04</rscale>
<asrwt>0</asrwt>
<pdfrwt beam="1">  1        2 0.57205555E+00 0.17922328E+04</pdfrwt>
<pdfrwt beam="2">  1       -2 0.33224919E-01 0.17922328E+04</pdfrwt>
<totfact> 0.45708167E+00</totfact>
</mgrwt>
</event>
<event>
12    1  0.1472088E-007  0.1169579E+04  0.7818608E-02  0.9139909E-01
          2   -1    0    0  501    0  0.00000000000E+00  0.00000000000E+00  0.27823401187E+04  0.27823401187E+04  0.00000000000E+00 0. -1.
         -2   -1    0    0    0  501 -0.00000000000E+00 -0.00000000000E+00 -0.12291044839E+03  0.12291044839E+03  0.00000000000E+00 0.  1.
         23    2    1    2    0    0  0.19020799202E+03  0.36009659618E+02  0.27846458711E+03  0.35103806353E+03  0.90605849466E+02 0.  0.
        254    2    1    2    0    0 -0.19020799202E+03 -0.36009659618E+02  0.23809650832E+04  0.25542125036E+04  0.90417421446E+03 0.  0.
        -24    2    4    4    0    0  0.49396437954E+02 -0.37290860792E+03  0.52351981200E+03  0.64953162361E+03  0.79482693533E+02 0.  0.
         24    2    4    4    0    0 -0.23960442997E+03  0.33689894831E+03  0.18574452712E+04  0.19046808800E+04  0.82432606887E+02 0.  0.
         13    1    3    3    0    0  0.17502639768E+03  0.35467697256E+02  0.18797162492E+03  0.25927886379E+03  0.00000000000E+00 0.  1.
        -13    1    3    3    0    0  0.15181594334E+02  0.54196236194E+00  0.90492962195E+02  0.91759199738E+02  0.00000000000E+00 0. -1.
          4    1    6    6  502    0 -0.53256644424E+02  0.44150134277E+02  0.21063324669E+03  0.22170220825E+03  0.00000000000E+00 0. -1.
          1    1    5    5  503    0  0.34688811384E+02 -0.70713593337E+02  0.76885798105E+02  0.11006885058E+03  0.00000000000E+00 0. -1.
         -2    1    5    5    0  503  0.14707626570E+02 -0.30219501459E+03  0.44663401390E+03  0.53946277303E+03  0.00000000000E+00 0.  1.
         -3    1    6    6    0  502 -0.18634778555E+03  0.29274881403E+03  0.16468120245E+04  0.16829786717E+04  0.00000000000E+00 0.  1.
<mgrwt>
<rscale>  0 0.11695788E+04</rscale>
<asrwt>0</asrwt>
<pdfrwt beam="1">  1        2 0.42805228E+00 0.11695788E+04</pdfrwt>
<pdfrwt beam="2">  1       -2 0.18909302E-01 0.11695788E+04</pdfrwt>
<totfact> 0.55898188E+01</totfact>
</mgrwt>
</event>
<event>
12    1  0.1472088E-007  0.1849681E+04  0.7818608E-02  0.8680317E-01
          2   -1    0    0  501    0  0.00000000000E+00  0.00000000000E+00  0.11903257909E+04  0.11903257909E+04  0.00000000000E+00 0. -1.
         -2   -1    0    0    0  501 -0.00000000000E+00 -0.00000000000E+00 -0.71856807029E+03  0.71856807029E+03  0.00000000000E+00 0.  1.
         23    2    1    2    0    0  0.77004523108E+02  0.61020277641E+03 -0.17462152245E+03  0.64604503919E+03  0.92759860074E+02 0.  0.
        254    2    1    2    0    0 -0.77004523108E+02 -0.61020277641E+03  0.64637924307E+03  0.12628488220E+04  0.89370235341E+03 0.  0.
        -24    2    4    4    0    0  0.37161634517E+03 -0.35226989964E+03  0.49776497041E+03  0.71864302206E+03  0.80529728716E+02 0.  0.
         24    2    4    4    0    0 -0.44862086827E+03 -0.25793287677E+03  0.14861427265E+03  0.54420579995E+03  0.79269781713E+02 0.  0.
         13    1    3    3    0    0  0.50530097411E+02  0.21400413466E+03 -0.10192624460E+03  0.24236340428E+03  0.00000000000E+00 0.  1.
        -13    1    3    3    0    0  0.26474425697E+02  0.39619864175E+03 -0.72695277846E+02  0.40368163491E+03  0.00000000000E+00 0. -1.
          2    1    6    6  502    0 -0.35452672468E+03 -0.16545190133E+03  0.11977467684E+03  0.40915706443E+03  0.00000000000E+00 0. -1.
          3    1    5    5  503    0  0.26479846201E+03 -0.29046765931E+03  0.40400548668E+03  0.56365780386E+03  0.00000000000E+00 0. -1.
         -4    1    5    5    0  503  0.10681788316E+03 -0.61802240330E+02  0.93759483736E+02  0.15498521821E+03  0.00000000000E+00 0.  1.
         -1    1    6    6    0  502 -0.94094143599E+02 -0.92480975445E+02  0.28839595816E+02  0.13504873552E+03  0.00000000000E+00 0.  1.
<mgrwt>
<rscale>  0 0.18496812E+04</rscale>
<asrwt>0</asrwt>
<pdfrwt beam="1">  1        2 0.18312704E+00 0.18496812E+04</pdfrwt>
<pdfrwt beam="2">  1       -2 0.11054893E+00 0.18496812E+04</pdfrwt>
<totfact> 0.11718968E+01</totfact>
</mgrwt>
</event>
<event>
12    1  0.1472088E-007  0.1448178E+04  0.7818608E-02  0.8919664E-01
         -2   -1    0    0    0  501 -0.00000000000E+00  0.00000000000E+00  0.10395822042E+04  0.10395822042E+04  0.00000000000E+00 0.  1.
          2   -1    0    0  501    0  0.00000000000E+00 -0.00000000000E+00 -0.50434217069E+03  0.50434217069E+03  0.00000000000E+00 0. -1.
         23    2    1    2    0    0 -0.21217207108E+03 -0.35801204185E+03  0.97376573949E+02  0.43684694028E+03  0.90351769337E+02 0.  0.
        254    2    1    2    0    0  0.21217207108E+03  0.35801204185E+03  0.43786345960E+03  0.11070774346E+04  0.92774265138E+03 0.  0.
        -24    2    4    4    0    0  0.10236738119E+03 -0.12309704066E+03  0.56403395279E+03  0.59182173530E+03  0.80540078952E+02 0.  0.
         24    2    4    4    0    0  0.10980468989E+03  0.48110908251E+03 -0.12617049319E+03  0.51525569935E+03  0.77758749780E+02 0.  0.
         11    1    3    3    0    0 -0.17229004315E+03 -0.31355153528E+03  0.51332942482E+02  0.36143255972E+03  0.00000000000E+00 0.  1.
        -11    1    3    3    0    0 -0.39882027927E+02 -0.44460506576E+02  0.46043631467E+02  0.75414380560E+02  0.00000000000E+00 0. -1.
          2    1    6    6  502    0  0.41340878167E+02  0.24542516926E+03 -0.26230971653E+02  0.25026115517E+03  0.00000000000E+00 0. -1.
          1    1    5    5  503    0  0.85673930693E+02 -0.13392338320E+03  0.51191665304E+03  0.53603559082E+03  0.00000000000E+00 0. -1.
         -2    1    5    5    0  503  0.16693450494E+02  0.10826342535E+02  0.52117299752E+02  0.55786144477E+02  0.00000000000E+00 0.  1.
         -1    1    6    6    0  502  0.68463811725E+02  0.23568391325E+03 -0.99939521535E+02  0.26499454418E+03  0.00000000000E+00 0.  1.
<mgrwt>
<rscale>  0 0.14481784E+04</rscale>
<asrwt>0</asrwt>
<pdfrwt beam="1">  1        2 0.77591103E-01 0.14481784E+04</pdfrwt>
<pdfrwt beam="2">  1       -2 0.15993572E+00 0.14481784E+04</pdfrwt>
<totfact> 0.14895209E+01</totfact>
</mgrwt>
</event>
<event>
12    1  0.1472088E-007  0.2528594E+04  0.7818608E-02  0.8392869E-01
          1   -1    0    0  501    0  0.00000000000E+00  0.00000000000E+00  0.11470764459E+04  0.11470764459E+04  0.00000000000E+00 0. -1.
         -1   -1    0    0    0  501 -0.00000000000E+00 -0.00000000000E+00 -0.13934964786E+04  0.13934964786E+04  0.00000000000E+00 0.  1.
         23    2    1    2    0    0 -0.64594693300E+03  0.41318211970E+03 -0.90094695594E+03  0.11874230639E+04  0.10149488173E+03 0.  0.
        254    2    1    2    0    0  0.64594693300E+03 -0.41318211970E+03  0.65452692325E+03  0.13531498606E+04  0.90257528651E+03 0.  0.
        -24    2    4    4    0    0 -0.21840119740E+03 -0.14117091197E+03  0.12069738092E+03  0.29844509439E+03  0.82905411101E+02 0.  0.
         24    2    4    4    0    0  0.86434813040E+03 -0.27201120773E+03  0.53382954233E+03  0.10547047663E+04  0.79626478330E+02 0.  0.
         11    1    3    3    0    0 -0.21782607776E+03  0.84352637217E+02 -0.27890023891E+03  0.36379789832E+03  0.00000000000E+00 0.  1.
        -11    1    3    3    0    0 -0.42812085524E+03  0.32882948248E+03 -0.62204671703E+03  0.82362516560E+03  0.00000000000E+00 0. -1.
          4    1    6    6  502    0  0.80377777192E+03 -0.25728269887E+03  0.47231136525E+03  0.96712518296E+03  0.00000000000E+00 0. -1.
          3    1    5    5  503    0 -0.65246380759E+02 -0.52513275023E+02  0.82177126665E+02  0.11733633028E+03  0.00000000000E+00 0. -1.
         -4    1    5    5    0  503 -0.15315481664E+03 -0.88657636948E+02  0.38520254253E+02  0.18110876411E+03  0.00000000000E+00 0.  1.
         -3    1    6    6    0  502  0.60570358476E+02 -0.14728508860E+02  0.61518177084E+02  0.87579583300E+02  0.00000000000E+00 0.  1.
<mgrwt>
<rscale>  0 0.25285941E+04</rscale>
<asrwt>0</asrwt>
<pdfrwt beam="1">  1        1 0.17647330E+00 0.25285941E+04</pdfrwt>
<pdfrwt beam="2">  1       -1 0.21438407E+00 0.25285941E+04</pdfrwt>
<totfact> 0.12438345E+00</totfact>
</mgrwt>
</event>
<event>
12    1  0.1472088E-007  0.1632682E+04  0.7818608E-02  0.8800718E-01
          1   -1    0    0  501    0  0.00000000000E+00  0.00000000000E+00  0.69326040631E+03  0.69326040631E+03  0.00000000000E+00 0. -1.
         -1   -1    0    0    0  501 -0.00000000000E+00 -0.00000000000E+00 -0.96127323469E+03  0.96127323469E+03  0.00000000000E+00 0.  1.
         23    2    1    2    0    0 -0.39803436940E+03 -0.78564782950E+02  0.30773383164E+03  0.51537116766E+03  0.79394867427E+02 0.  0.
        254    2    1    2    0    0  0.39803436940E+03  0.78564782950E+02 -0.57574666001E+03  0.11391624733E+04  0.89532292486E+03 0.  0.
        -24    2    4    4    0    0  0.33743710785E+03 -0.31406381164E+03 -0.44203313342E+02  0.47024403498E+03  0.81704589743E+02 0.  0.
         24    2    4    4    0    0  0.60597261558E+02  0.39262859459E+03 -0.53154334667E+03  0.66891843835E+03  0.84168321697E+02 0.  0.
         13    1    3    3    0    0 -0.32188046787E+03 -0.54738703977E+02  0.28230202912E+03  0.43162228505E+03  0.00000000000E+00 0. -1.
        -13    1    3    3    0    0 -0.76153901539E+02 -0.23826078973E+02  0.25431802512E+02  0.83748882607E+02  0.00000000000E+00 0.  1.
          4    1    6    6  502    0  0.20423084406E+02  0.13618663753E+02 -0.39873940275E+02  0.46824155007E+02  0.00000000000E+00 0. -1.
          1    1    5    5  503    0  0.24685102853E+02 -0.56121264963E+02  0.66426893601E+01  0.61669084685E+02  0.00000000000E+00 0. -1.
         -2    1    5    5    0  503  0.31275200499E+03 -0.25794254668E+03 -0.50846002702E+02  0.40857495029E+03  0.00000000000E+00 0.  1.
         -3    1    6    6    0  502  0.40174177152E+02  0.37900993084E+03 -0.49166940640E+03  0.62209428335E+03  0.00000000000E+00 0.  1.
<mgrwt>
<rscale>  0 0.16326821E+04</rscale>
<asrwt>0</asrwt>
<pdfrwt beam="1">  1        1 0.10665545E+00 0.16326821E+04</pdfrwt>
<pdfrwt beam="2">  1       -1 0.14788819E+00 0.16326821E+04</pdfrwt>
<totfact> 0.95911032E+00</totfact>
</mgrwt>
</event>
<event>
12    1  0.1472088E-007  0.1204651E+04  0.7818608E-02  0.9108795E-01
          2   -1    0    0  501    0  0.00000000000E+00  0.00000000000E+00  0.32413365394E+03  0.32413365394E+03  0.00000000000E+00 0.  1.
         -2   -1    0    0    0  501 -0.00000000000E+00 -0.00000000000E+00 -0.11192785283E+04  0.11192785283E+04  0.00000000000E+00 0. -1.
         23    2    1    2    0    0 -0.70067301985E+02 -0.63013532862E+02  0.83015256947E+02  0.15470459318E+03  0.90342936263E+02 0.  0.
        254    2    1    2    0    0  0.70067301985E+02  0.63013532862E+02 -0.87816013133E+03  0.12887075891E+04  0.93846784802E+03 0.  0.
        -24    2    4    4    0    0 -0.40728277336E+03  0.15907423970E+03 -0.48537679919E+03  0.65796305111E+03  0.78363691956E+02 0.  0.
         24    2    4    4    0    0  0.47735007535E+03 -0.96060706838E+02 -0.39278333214E+03  0.63074453797E+03  0.80431165248E+02 0.  0.
         11    1    3    3    0    0  0.40287198080E+01  0.74544290670E+01 -0.12286360104E+02  0.14924936871E+02  0.00000000000E+00 0. -1.
        -11    1    3    3    0    0 -0.74096021793E+02 -0.70467961929E+02  0.95301617052E+02  0.13977965630E+03  0.00000000000E+00 0.  1.
          4    1    6    6  502    0  0.36404444768E+03 -0.37805085030E+02 -0.28545467220E+03  0.46415725161E+03  0.00000000000E+00 0. -1.
          3    1    5    5  503    0 -0.14086532333E+03  0.17093272819E+02 -0.16878675114E+03  0.22050892647E+03  0.00000000000E+00 0. -1.
         -4    1    5    5    0  503 -0.26641745003E+03  0.14198096688E+03 -0.31659004805E+03  0.43745412464E+03  0.00000000000E+00 0.  1.
         -3    1    6    6    0  502  0.11330562767E+03 -0.58255621808E+02 -0.10732865995E+03  0.16658728637E+03  0.00000000000E+00 0.  1.
<mgrwt>
<rscale>  0 0.12046507E+04</rscale>
<asrwt>0</asrwt>
<pdfrwt beam="1">  1        2 0.49866715E-01 0.12046507E+04</pdfrwt>
<pdfrwt beam="2">  1       -2 0.17219670E+00 0.12046507E+04</pdfrwt>
<totfact> 0.20401685E+01</totfact>
</mgrwt>
</event>
<event>
12    1  0.1472088E-007  0.1355627E+04  0.7818608E-02  0.8986579E-01
          2   -1    0    0  501    0  0.00000000000E+00  0.00000000000E+00  0.38559118249E+03  0.38559118249E+03  0.00000000000E+00 0. -1.
         -2   -1    0    0    0  501 -0.00000000000E+00 -0.00000000000E+00 -0.11914986736E+04  0.11914986736E+04  0.00000000000E+00 0.  1.
         23    2    1    2    0    0  0.16050093477E+03  0.23596873572E+03  0.88101358203E+02  0.31277415057E+03  0.92865632244E+02 0.  0.
        254    2    1    2    0    0 -0.16050093477E+03 -0.23596873572E+03 -0.89400884935E+03  0.12643157056E+04  0.84723112921E+03 0.  0.
        -24    2    4    4    0    0 -0.39155864643E+03 -0.10294187296E+03 -0.10211974494E+03  0.42504585930E+03  0.79500549673E+02 0.  0.
         24    2    4    4    0    0  0.23105771166E+03 -0.13302686275E+03 -0.79188910441E+03  0.83926984625E+03  0.78750928964E+02 0.  0.
         11    1    3    3    0    0  0.23240103316E+01  0.66510132555E+02  0.34005041688E+02  0.74735143117E+02  0.00000000000E+00 0.  1.
        -11    1    3    3    0    0  0.15817692444E+03  0.16945860316E+03  0.54096316514E+02  0.23803900746E+03  0.00000000000E+00 0. -1.
          2    1    6    6  502    0  0.30185144006E+02  0.63875358406E+01 -0.13142029931E+03  0.13499347615E+03  0.00000000000E+00 0. -1.
          3    1    5    5  503    0 -0.11563959576E+03 -0.65808925274E+02 -0.18373940041E+02  0.13431653817E+03  0.00000000000E+00 0. -1.
         -4    1    5    5    0  503 -0.27591905068E+03 -0.37132947690E+02 -0.83745804896E+02  0.29072932114E+03  0.00000000000E+00 0.  1.
         -1    1    6    6    0  502  0.20087256766E+03 -0.13941439859E+03 -0.66046880510E+03  0.70427637010E+03  0.00000000000E+00 0.  1.
<mgrwt>
<rscale>  0 0.13556274E+04</rscale>
<asrwt>0</asrwt>
<pdfrwt beam="1">  1        2 0.59321722E-01 0.13556274E+04</pdfrwt>
<pdfrwt beam="2">  1       -2 0.18330748E+00 0.13556274E+04</pdfrwt>
<totfact> 0.13908338E+01</totfact>
</mgrwt>
</event>
<event>
12    1  0.1472088E-007  0.1521906E+04  0.7818608E-02  0.8870015E-01
          2   -1    0    0  501    0  0.00000000000E+00  0.00000000000E+00  0.29399731104E+04  0.29399731104E+04  0.00000000000E+00 0. -1.
         -2   -1    0    0    0  501 -0.00000000000E+00 -0.00000000000E+00 -0.19695736094E+03  0.19695736094E+03  0.00000000000E+00 0.  1.
         23    2    1    2    0    0 -0.88946872538E+02  0.34936737363E+03  0.15473322766E+04  0.15912352055E+04  0.88448839589E+02 0.  0.
        254    2    1    2    0    0  0.88946872538E+02 -0.34936737363E+03  0.11956834729E+04  0.15456952658E+04  0.91079403797E+03 0.  0.
        -24    2    4    4    0    0  0.27716557090E+03 -0.36926904326E+03  0.12484626535E+04  0.13335251897E+04  0.80312230544E+02 0.  0.
         24    2    4    4    0    0 -0.18821869836E+03  0.19901669632E+02 -0.52779180558E+02  0.21217007618E+03  0.80050886697E+02 0.  0.
         13    1    3    3    0    0 -0.17834067029E+02  0.22396665256E+03  0.10279817051E+04  0.10522478327E+04  0.00000000000E+00 0. -1.
        -13    1    3    3    0    0 -0.71112805509E+02  0.12540072107E+03  0.51935057147E+03  0.53898737280E+03  0.00000000000E+00 0.  1.
          2    1    6    6  502    0 -0.16519392256E+03  0.36766003353E+02 -0.64778570628E+02  0.18120991768E+03  0.00000000000E+00 0. -1.
          1    1    5    5  503    0  0.27741266801E+03 -0.33835059349E+03  0.11561639229E+04  0.12361852325E+04  0.00000000000E+00 0. -1.
         -2    1    5    5    0  503 -0.24709711074E+00 -0.30918449772E+02  0.92298730529E+02  0.97339957112E+02  0.00000000000E+00 0.  1.
         -1    1    6    6    0  502 -0.23024775804E+02 -0.16864333722E+02  0.11999390070E+02  0.30960158506E+02  0.00000000000E+00 0.  1.
<mgrwt>
<rscale>  0 0.15219058E+04</rscale>
<asrwt>0</asrwt>
<pdfrwt beam="1">  1        2 0.45230352E+00 0.15219058E+04</pdfrwt>
<pdfrwt beam="2">  1       -2 0.30301135E-01 0.15219058E+04</pdfrwt>
<totfact> 0.18543701E+01</totfact>
</mgrwt>
</event>
<event>
12    1  0.1472088E-007  0.1770017E+04  0.7818608E-02  0.8722409E-01
         -2   -1    0    0    0  501 -0.00000000000E+00  0.00000000000E+00  0.33101542195E+03  0.33101542195E+03  0.00000000000E+00 0.  1.
          2   -1    0    0  501    0  0.00000000000E+00 -0.00000000000E+00 -0.23661732479E+04  0.23661732479E+04  0.00000000000E+00 0. -1.
         23    2    1    2    0    0 -0.48752565422E+03 -0.42025071653E+03 -0.62718508618E+03  0.90345366420E+03  0.92603794556E+02 0.  0.
        254    2    1    2    0    0  0.48752565422E+03  0.42025071653E+03 -0.14079727398E+04  0.17937350057E+04  0.90598350221E+03 0.  0.
        -24    2    4    4    0    0  0.45366412795E+03 -0.18174988767E+03 -0.73993975128E+03  0.89034537301E+03  0.79748887522E+02 0.  0.
         24    2    4    4    0    0  0.33861526269E+02  0.60200060420E+03 -0.66803298851E+03  0.90338963265E+03  0.79331104998E+02 0.  0.
         13    1    3    3    0    0 -0.47269166646E+03 -0.39740170437E+03 -0.62043356783E+03  0.87538753605E+03  0.00000000000E+00 0.  1.
        -13    1    3    3    0    0 -0.14833987762E+02 -0.22849012158E+02 -0.67515183485E+01  0.28066128153E+02  0.00000000000E+00 0. -1.
          2    1    6    6  502    0 -0.16669737574E+02  0.38425260994E+03 -0.42289856168E+03  0.57163899610E+03  0.00000000000E+00 0. -1.
          1    1    5    5  503    0  0.18986419530E+03 -0.42525498321E+02 -0.25068616444E+03  0.31733323763E+03  0.00000000000E+00 0. -1.
         -2    1    5    5    0  503  0.26379993266E+03 -0.13922438935E+03 -0.48925358684E+03  0.57301213538E+03  0.00000000000E+00 0.  1.
         -1    1    6    6    0  502  0.50531263843E+02  0.21774799426E+03 -0.24513442684E+03  0.33175063655E+03  0.00000000000E+00 0.  1.
<mgrwt>
<rscale>  0 0.17700168E+04</rscale>
<asrwt>0</asrwt>
<pdfrwt beam="1">  1        2 0.36402667E+00 0.17700168E+04</pdfrwt>
<pdfrwt beam="2">  1       -2 0.50925447E-01 0.17700168E+04</pdfrwt>
<totfact> 0.14349124E+01</totfact>
</mgrwt>
</event>
<event>
12    1  0.1472088E-007  0.1652605E+04  0.7818608E-02  0.8788867E-01
          2   -1    0    0  501    0  0.00000000000E+00  0.00000000000E+00  0.14953096782E+04  0.14953096782E+04  0.00000000000E+00 0. -1.
         -2   -1    0    0    0  501 -0.00000000000E+00 -0.00000000000E+00 -0.45661179129E+03  0.45661179129E+03  0.00000000000E+00 0.  1.
         23    2    1    2    0    0  0.28634152796E+03 -0.24831074605E+03  0.87962247567E+03  0.96197034054E+03  0.89451322656E+02 0.  0.
        254    2    1    2    0    0 -0.28634152796E+03  0.24831074605E+03  0.15907541120E+03  0.98995112891E+03  0.90058234157E+03 0.  0.
        -24    2    4    4    0    0 -0.54063848655E+03  0.32829754508E+02 -0.10558343002E+03  0.55718138676E+03  0.77042008898E+02 0.  0.
         24    2    4    4    0    0  0.25429695859E+03  0.21548099155E+03  0.26465884122E+03  0.43276974215E+03  0.78398639122E+02 0.  0.
         13    1    3    3    0    0  0.14090692201E+03 -0.66981847471E+02  0.38681210200E+03  0.41709103421E+03  0.00000000000E+00 0.  1.
        -13    1    3    3    0    0  0.14543460595E+03 -0.18132889858E+03  0.49281037367E+03  0.54487930633E+03  0.00000000000E+00 0. -1.
          4    1    6    6  502    0  0.22034530830E+03  0.18340326974E+03  0.25781742023E+03  0.38556275289E+03  0.00000000000E+00 0. -1.
          3    1    5    5  503    0 -0.53198765406E+03  0.32217359087E+02 -0.11408601883E+03  0.54503618411E+03  0.00000000000E+00 0. -1.
         -4    1    5    5    0  503 -0.86508324938E+01  0.61239542154E+00  0.85025888079E+01  0.12145202651E+02  0.00000000000E+00 0.  1.
         -3    1    6    6    0  502  0.33951650290E+02  0.32077721801E+02  0.68414209885E+01  0.47206989255E+02  0.00000000000E+00 0.  1.
<mgrwt>
<rscale>  0 0.16526053E+04</rscale>
<asrwt>0</asrwt>
<pdfrwt beam="1">  1        2 0.23004764E+00 0.16526053E+04</pdfrwt>
<pdfrwt beam="2">  1       -2 0.70247969E-01 0.16526053E+04</pdfrwt>
<totfact> 0.22498324E+01</totfact>
</mgrwt>
</event>
<event>
12    1  0.1472088E-007  0.1552891E+04  0.7818608E-02  0.8850023E-01
         -2   -1    0    0    0  501 -0.00000000000E+00  0.00000000000E+00  0.47377115294E+03  0.47377115294E+03  0.00000000000E+00 0.  1.
          2   -1    0    0  501    0  0.00000000000E+00 -0.00000000000E+00 -0.12724864067E+04  0.12724864067E+04  0.00000000000E+00 0. -1.
         23    2    1    2    0    0 -0.14429263714E+03  0.37087941856E+03  0.47975127201E+02  0.41280699581E+03  0.98671651024E+02 0.  0.
        254    2    1    2    0    0  0.14429263714E+03 -0.37087941856E+03 -0.84669038092E+03  0.13334505638E+04  0.95017571885E+03 0.  0.
        -24    2    4    4    0    0 -0.14503283935E+03  0.73210150954E+02  0.12718859748E+03  0.22146131676E+03  0.80460703452E+02 0.  0.
         24    2    4    4    0    0  0.28932547649E+03 -0.44408956952E+03 -0.97387897840E+03  0.11119892470E+04  0.84587492171E+02 0.  0.
         11    1    3    3    0    0 -0.86324962239E+02  0.30672794230E+03  0.63641183813E+02  0.32493727082E+03  0.00000000000E+00 0.  1.
        -11    1    3    3    0    0 -0.57967674900E+02  0.64151476267E+02 -0.15666056612E+02  0.87869724992E+02  0.00000000000E+00 0. -1.
          2    1    6    6  502    0  0.25446458696E+03 -0.35560297454E+03 -0.84929574663E+03  0.95525335213E+03  0.00000000000E+00 0. -1.
          3    1    5    5  503    0 -0.60647575915E+02  0.45545010222E+00  0.80173814952E+02  0.10052948077E+03  0.00000000000E+00 0. -1.
         -4    1    5    5    0  503 -0.84385263439E+02  0.72754700852E+02  0.47014782530E+02  0.12093183600E+03  0.00000000000E+00 0.  1.
         -1    1    6    6    0  502  0.34860889536E+02 -0.88486594978E+02 -0.12458323177E+03  0.15673589489E+03  0.00000000000E+00 0.  1.
<mgrwt>
<rscale>  0 0.15528907E+04</rscale>
<asrwt>0</asrwt>
<pdfrwt beam="1">  1        2 0.19576714E+00 0.15528907E+04</pdfrwt>
<pdfrwt beam="2">  1       -2 0.72887869E-01 0.15528907E+04</pdfrwt>
<totfact> 0.28086117E+01</totfact>
</mgrwt>
</event>
<event>
12    1  0.1472088E-007  0.2309731E+04  0.7818608E-02  0.8474094E-01
          1   -1    0    0  501    0  0.00000000000E+00  0.00000000000E+00  0.90703786273E+03  0.90703786273E+03  0.00000000000E+00 0. -1.
         -1   -1    0    0    0  501 -0.00000000000E+00 -0.00000000000E+00 -0.14704061380E+04  0.14704061380E+04  0.00000000000E+00 0.  1.
         23    2    1    2    0    0  0.15981023945E+03  0.76501338608E+03  0.36559591906E+03  0.86782487905E+03  0.93138880912E+02 0.  0.
        254    2    1    2    0    0 -0.15981023945E+03 -0.76501338608E+03 -0.92896419435E+03  0.15096191217E+04  0.89732414696E+03 0.  0.
        -24    2    4    4    0    0  0.62998802548E+02 -0.13480842821E+03  0.15985311828E+03  0.22963020515E+03  0.70956678700E+02 0.  0.
         24    2    4    4    0    0 -0.22280904200E+03 -0.63020495787E+03 -0.10888173126E+04  0.12799889166E+04  0.77758138525E+02 0.  0.
         13    1    3    3    0    0  0.10647948620E+03  0.37773682333E+03  0.14130438053E+03  0.41712098561E+03  0.00000000000E+00 0.  1.
        -13    1    3    3    0    0  0.53330753255E+02  0.38727656275E+03  0.22429153853E+03  0.45070389343E+03  0.00000000000E+00 0. -1.
          2    1    6    6  502    0 -0.19520154559E+03 -0.51913712205E+03 -0.84662520754E+03  0.10121172051E+04  0.00000000000E+00 0. -1.
          1    1    5    5  503    0  0.62306842850E+02 -0.50672002419E+02  0.86112167834E+02  0.11775015900E+03  0.00000000000E+00 0. -1.
         -2    1    5    5    0  503  0.69195969810E+00 -0.84136425791E+02  0.73740950447E+02  0.11188004615E+03  0.00000000000E+00 0.  1.
         -1    1    6    6    0  502 -0.27607496410E+02 -0.11106783582E+03 -0.24219210509E+03  0.26787171143E+03  0.00000000000E+00 0.  1.
<mgrwt>
<rscale>  0 0.23097308E+04</rscale>
<asrwt>0</asrwt>
<pdfrwt beam="1">  1        1 0.13954429E+00 0.23097308E+04</pdfrwt>
<pdfrwt beam="2">  1       -1 0.22621633E+00 0.23097308E+04</pdfrwt>
<totfact> 0.16218652E+00</totfact>
</mgrwt>
</event>
<event>
12    1  0.1472088E-007  0.1423775E+04  0.7818608E-02  0.8936787E-01
          1   -1    0    0  501    0  0.00000000000E+00  0.00000000000E+00  0.15204216055E+04  0.15204216055E+04  0.00000000000E+00 0. -1.
         -1   -1    0    0    0  501 -0.00000000000E+00 -0.00000000000E+00 -0.33331772619E+03  0.33331772619E+03  0.00000000000E+00 0.  1.
         23    2    1    2    0    0 -0.15258649340E+03  0.37843398642E+03  0.47810143332E+03  0.63511706338E+03  0.91092170922E+02 0.  0.
        254    2    1    2    0    0  0.15258649340E+03 -0.37843398642E+03  0.70900244597E+03  0.12186222683E+04  0.90325015603E+03 0.  0.
        -24    2    4    4    0    0  0.52483401505E+02 -0.42800586998E+03  0.88966001180E+03  0.99192445971E+03  0.80471516749E+02 0.  0.
         24    2    4    4    0    0  0.10010309190E+03  0.49571883556E+02 -0.18065756583E+03  0.22669780859E+03  0.79225877614E+02 0.  0.
         11    1    3    3    0    0 -0.13160458333E+03  0.34163370909E+03  0.37705846746E+03  0.52555346581E+03  0.00000000000E+00 0. -1.
        -11    1    3    3    0    0 -0.20981910070E+02  0.36800277327E+02  0.10104296586E+03  0.10956359757E+03  0.00000000000E+00 0.  1.
          2    1    6    6  502    0  0.41187297390E+02  0.79747883787E+01 -0.12575861020E+02  0.43796609416E+02  0.00000000000E+00 0. -1.
          3    1    5    5  503    0 -0.13996733422E+02 -0.19413357527E+02  0.36657688941E+02  0.43778683803E+02  0.00000000000E+00 0. -1.
         -4    1    5    5    0  503  0.66480134927E+02 -0.40859251245E+03  0.85300232286E+03  0.94814577591E+03  0.00000000000E+00 0.  1.
         -1    1    6    6    0  502  0.58915794507E+02  0.41597095178E+02 -0.16808170481E+03  0.18290119918E+03  0.00000000000E+00 0.  1.
<mgrwt>
<rscale>  0 0.14237745E+04</rscale>
<asrwt>0</asrwt>
<pdfrwt beam="1">  1        1 0.23391101E+00 0.14237745E+04</pdfrwt>
<pdfrwt beam="2">  1       -1 0.51279651E-01 0.14237745E+04</pdfrwt>
<totfact> 0.23567532E+01</totfact>
</mgrwt>
</event>
<event>
12    1  0.1472088E-007  0.2032108E+04  0.7818608E-02  0.8591754E-01
          1   -1    0    0  501    0  0.00000000000E+00  0.00000000000E+00  0.28414708316E+04  0.28414708316E+04  0.00000000000E+00 0. -1.
         -1   -1    0    0    0  501 -0.00000000000E+00 -0.00000000000E+00 -0.36332102130E+03  0.36332102130E+03  0.00000000000E+00 0.  1.
         23    2    1    2    0    0 -0.78440189350E+03 -0.12023180655E+03  0.71201234298E+03  0.10700065013E+04  0.90610807869E+02 0.  0.
        254    2    1    2    0    0  0.78440189350E+03  0.12023180655E+03  0.17661374673E+04  0.21347853516E+04  0.89906892170E+03 0.  0.
        -24    2    4    4    0    0  0.52623958939E+03  0.33360001511E+03  0.16589702671E+04  0.17742799077E+04  0.87577212576E+02 0.  0.
         24    2    4    4    0    0  0.25816230411E+03 -0.21336820856E+03  0.10716720020E+03  0.36050544387E+03  0.79407799183E+02 0.  0.
         11    1    3    3    0    0 -0.20275823262E+03 -0.12431674612E+02  0.13684860645E+03  0.24493466173E+03  0.00000000000E+00 0. -1.
        -11    1    3    3    0    0 -0.58164366089E+03 -0.10780013194E+03  0.57516373652E+03  0.82507183961E+03  0.00000000000E+00 0.  1.
          4    1    6    6  502    0  0.15076438400E+03 -0.16371954792E+03  0.45826259988E+02  0.22723123896E+03  0.00000000000E+00 0. -1.
          1    1    5    5  503    0  0.45211936693E+03  0.30290773149E+03  0.13629670291E+04  0.14675980847E+04  0.00000000000E+00 0. -1.
         -2    1    5    5    0  503  0.74120222460E+02  0.30692283616E+02  0.29600323805E+03  0.30668182304E+03  0.00000000000E+00 0.  1.
         -3    1    6    6    0  502  0.10739792011E+03 -0.49648660633E+02  0.61340940212E+02  0.13327420490E+03  0.00000000000E+00 0.  1.
<mgrwt>
<rscale>  0 0.20321083E+04</rscale>
<asrwt>0</asrwt>
<pdfrwt beam="1">  1        1 0.43714934E+00 0.20321083E+04</pdfrwt>
<pdfrwt beam="2">  1       -1 0.55895544E-01 0.20321083E+04</pdfrwt>
<totfact> 0.23341544E+00</totfact>
</mgrwt>
</event>
<event>
12    1  0.1472088E-007  0.2149183E+04  0.7818608E-02  0.8539882E-01
          1   -1    0    0  501    0  0.00000000000E+00  0.00000000000E+00  0.15291985366E+04  0.15291985366E+04  0.00000000000E+00 0. -1.
         -1   -1    0    0    0  501 -0.00000000000E+00 -0.00000000000E+00 -0.75513224807E+03  0.75513224807E+03  0.00000000000E+00 0.  1.
         23    2    1    2    0    0 -0.37789848770E+03 -0.41659274074E+03 -0.40972985176E+03  0.70191764015E+03  0.91940434450E+02 0.  0.
        254    2    1    2    0    0  0.37789848770E+03  0.41659274074E+03  0.11837961403E+04  0.15824131445E+04  0.88673630779E+03 0.  0.
        -24    2    4    4    0    0 -0.18520505703E+03 -0.10212976040E+03  0.51471194656E+03  0.56218919967E+03  0.79980667584E+02 0.  0.
         24    2    4    4    0    0  0.56310354474E+03  0.51872250114E+03  0.66908419376E+03  0.10202239449E+04  0.83812911125E+02 0.  0.
         11    1    3    3    0    0 -0.41706965203E+01  0.50095451813E+01 -0.48405100139E+01  0.81191618769E+01  0.00000000000E+00 0. -1.
        -11    1    3    3    0    0 -0.37372779118E+03 -0.42160228592E+03 -0.40488934175E+03  0.69379847827E+03  0.00000000000E+00 0.  1.
          4    1    6    6  502    0  0.29745726256E+03  0.29133590010E+03  0.41601726970E+03  0.58858117403E+03  0.00000000000E+00 0. -1.
          3    1    5    5  503    0 -0.71152755213E+02 -0.21820384208E+02  0.10005699296E+03  0.12470062382E+03  0.00000000000E+00 0. -1.
         -4    1    5    5    0  503 -0.11405230182E+03 -0.80309376191E+02  0.41465495360E+03  0.43748857585E+03  0.00000000000E+00 0.  1.
         -3    1    6    6    0  502  0.26564628218E+03  0.22738660103E+03  0.25306692406E+03  0.43164277084E+03  0.00000000000E+00 0.  1.
<mgrwt>
<rscale>  0 0.21491832E+04</rscale>
<asrwt>0</asrwt>
<pdfrwt beam="1">  1        1 0.23526131E+00 0.21491832E+04</pdfrwt>
<pdfrwt beam="2">  1       -1 0.11617419E+00 0.21491832E+04</pdfrwt>
<totfact> 0.38299403E+00</totfact>
</mgrwt>
</event>
<event>
12    1  0.1472088E-007  0.1557755E+04  0.7818608E-02  0.8846929E-01
          1   -1    0    0  501    0  0.00000000000E+00  0.00000000000E+00  0.12242254047E+04  0.12242254047E+04  0.00000000000E+00 0. -1.
         -1   -1    0    0    0  501 -0.00000000000E+00 -0.00000000000E+00 -0.49553793779E+03  0.49553793779E+03  0.00000000000E+00 0.  1.
         23    2    1    2    0    0  0.32389492648E+03 -0.34318841498E+03  0.47746673788E+03  0.67795848562E+03  0.94694302195E+02 0.  0.
        254    2    1    2    0    0 -0.32389492648E+03  0.34318841498E+03  0.25122072905E+03  0.10418048569E+04  0.89418079468E+03 0.  0.
        -24    2    4    4    0    0  0.88686875263E+02 -0.54791048890E+02  0.41905821349E+03  0.43905662071E+03  0.79331639418E+02 0.  0.
         24    2    4    4    0    0 -0.41258180174E+03  0.39797946387E+03 -0.16783748443E+03  0.60274823619E+03  0.80775109158E+02 0.  0.
         11    1    3    3    0    0 -0.29998660869E+01  0.31558962129E+01  0.14131533707E+01  0.45777592657E+01  0.00000000000E+00 0.  1.
        -11    1    3    3    0    0  0.32689479256E+03 -0.34634431120E+03  0.47605358451E+03  0.67338072636E+03  0.00000000000E+00 0. -1.
          4    1    6    6  502    0 -0.18092963875E+03  0.13557454771E+03 -0.94925302680E+02  0.24520767780E+03  0.00000000000E+00 0. -1.
          1    1    5    5  503    0 -0.11167520671E+01 -0.32319634246E+02  0.17640622932E+03  0.17934593287E+03  0.00000000000E+00 0. -1.
         -2    1    5    5    0  503  0.89803627331E+02 -0.22471414643E+02  0.24265198416E+03  0.25971068784E+03  0.00000000000E+00 0.  1.
         -3    1    6    6    0  502 -0.23165216299E+03  0.26240491616E+03 -0.72912181752E+02  0.35754055839E+03  0.00000000000E+00 0.  1.
<mgrwt>
<rscale>  0 0.15577550E+04</rscale>
<asrwt>0</asrwt>
<pdfrwt beam="1">  1        1 0.18834237E+00 0.15577550E+04</pdfrwt>
<pdfrwt beam="2">  1       -1 0.76236606E-01 0.15577550E+04</pdfrwt>
<totfact> 0.17065941E+01</totfact>
</mgrwt>
</event>
<event>
12    1  0.1472088E-007  0.2536744E+04  0.7818608E-02  0.8390011E-01
         -2   -1    0    0    0  501 -0.00000000000E+00  0.00000000000E+00  0.12332545183E+04  0.12332545183E+04  0.00000000000E+00 0.  1.
          2   -1    0    0  501    0  0.00000000000E+00 -0.00000000000E+00 -0.13044896281E+04  0.13044896281E+04  0.00000000000E+00 0. -1.
         23    2    1    2    0    0 -0.73076297036E+03 -0.81071400646E+03 -0.22783365869E+03  0.11185401886E+04  0.89175435511E+02 0.  0.
        254    2    1    2    0    0  0.73076297036E+03  0.81071400646E+03  0.15659854888E+03  0.14192039578E+04  0.89350156639E+03 0.  0.
        -24    2    4    4    0    0  0.96848346343E+02  0.16259068137E+02  0.35829034922E+03  0.38022247849E+03  0.80951833349E+02 0.  0.
         24    2    4    4    0    0  0.63391462401E+03  0.79445493832E+03 -0.20169180033E+03  0.10389814793E+04  0.76134961838E+02 0.  0.
         13    1    3    3    0    0 -0.37818590922E+03 -0.37870847285E+03 -0.14754385417E+03  0.55517013450E+03  0.00000000000E+00 0.  1.
        -13    1    3    3    0    0 -0.35257706114E+03 -0.43200553360E+03 -0.80289804516E+02  0.56337005406E+03  0.00000000000E+00 0. -1.
          4    1    6    6  502    0  0.24306595369E+03  0.25839418759E+03 -0.47900412142E+02  0.35797075789E+03  0.00000000000E+00 0. -1.
          3    1    5    5  503    0  0.64647647228E+01 -0.13172166246E+02  0.69222624529E+01  0.16223959566E+02  0.00000000000E+00 0. -1.
         -4    1    5    5    0  503  0.90383581620E+02  0.29431234384E+02  0.35136808676E+03  0.36399851892E+03  0.00000000000E+00 0.  1.
         -3    1    6    6    0  502  0.39084867033E+03  0.53606075073E+03 -0.15379138819E+03  0.68101072140E+03  0.00000000000E+00 0.  1.
<mgrwt>
<rscale>  0 0.25367442E+04</rscale>
<asrwt>0</asrwt>
<pdfrwt beam="1">  1        2 0.20069071E+00 0.25367442E+04</pdfrwt>
<pdfrwt beam="2">  1       -2 0.18973146E+00 0.25367442E+04</pdfrwt>
<totfact> 0.22742774E+00</totfact>
</mgrwt>
</event>
<event>
12    1  0.1472088E-007  0.1993096E+04  0.7818608E-02  0.8609855E-01
         -2   -1    0    0    0  501 -0.00000000000E+00  0.00000000000E+00  0.38963583974E+03  0.38963583974E+03  0.00000000000E+00 0.  1.
          2   -1    0    0  501    0  0.00000000000E+00 -0.00000000000E+00 -0.25488108875E+04  0.25488108875E+04  0.00000000000E+00 0. -1.
         23    2    1    2    0    0  0.28656744930E+03  0.35529425670E+02 -0.20105691521E+04  0.20333678343E+04  0.93878597099E+02 0.  0.
        254    2    1    2    0    0 -0.28656744930E+03 -0.35529425670E+02 -0.14860589567E+03  0.90507889299E+03  0.84480817185E+03 0.  0.
        -24    2    4    4    0    0  0.38283608023E+02  0.34775986406E+03  0.43656776652E+02  0.36132932289E+03  0.79059520202E+02 0.  0.
         24    2    4    4    0    0 -0.32485105732E+03 -0.38328928974E+03 -0.19226267233E+03  0.54374957010E+03  0.79118712994E+02 0.  0.
         13    1    3    3    0    0  0.26369395771E+03  0.30846265755E+02 -0.19570688083E+04  0.19749947635E+04  0.00000000000E+00 0. -1.
        -13    1    3    3    0    0  0.22873491587E+02  0.46831599159E+01 -0.53500343779E+02  0.58373070749E+02  0.00000000000E+00 0.  1.
          2    1    6    6  502    0 -0.76105788613E+02 -0.51543495673E+02 -0.54289790799E+02  0.10675300648E+03  0.00000000000E+00 0. -1.
          1    1    5    5  503    0 -0.18232741020E+02  0.87760987991E+02 -0.90430989789E+01  0.90089963356E+02  0.00000000000E+00 0. -1.
         -2    1    5    5    0  503  0.56516349043E+02  0.25999887607E+03  0.52699875631E+02  0.27123935953E+03  0.00000000000E+00 0.  1.
         -1    1    6    6    0  502 -0.24874526871E+03 -0.33174579406E+03 -0.13797288153E+03  0.43699656362E+03  0.00000000000E+00 0.  1.
<mgrwt>
<rscale>  0 0.19930962E+04</rscale>
<asrwt>0</asrwt>
<pdfrwt beam="1">  1        2 0.39212475E+00 0.19930962E+04</pdfrwt>
<pdfrwt beam="2">  1       -2 0.59943976E-01 0.19930962E+04</pdfrwt>
<totfact> 0.78714299E+00</totfact>
</mgrwt>
</event>
<event>
12    1  0.1472088E-007  0.1207233E+04  0.7818608E-02  0.9106549E-01
          1   -1    0    0  501    0  0.00000000000E+00  0.00000000000E+00  0.28934807806E+04  0.28934807806E+04  0.00000000000E+00 0. -1.
         -1   -1    0    0    0  501 -0.00000000000E+00 -0.00000000000E+00 -0.12592206159E+03  0.12592206159E+03  0.00000000000E+00 0.  1.
         23    2    1    2    0    0 -0.10745957882E+03  0.12130631831E+03  0.12633641563E+03  0.22469739783E+03  0.90913402402E+02 0.  0.
        254    2    1    2    0    0  0.10745957882E+03 -0.12130631831E+03  0.26412223034E+04  0.27947054444E+04  0.89892184360E+03 0.  0.
        -24    2    4    4    0    0  0.27323063792E+02 -0.24338821098E+02 -0.50515506496E+02  0.98853356782E+02  0.76689254287E+02 0.  0.
         24    2    4    4    0    0  0.80136515029E+02 -0.96967497215E+02  0.26917378099E+04  0.26958520876E+04  0.79633437725E+02 0.  0.
         11    1    3    3    0    0 -0.30211504370E+02 -0.76750167898E+01  0.42033492371E+02  0.52330252817E+02  0.00000000000E+00 0. -1.
        -11    1    3    3    0    0 -0.77248074451E+02  0.12898133510E+03  0.84302923258E+02  0.17236714502E+03  0.00000000000E+00 0.  1.
          4    1    6    6  502    0 -0.57190984178E+01 -0.37115724844E+02  0.41030994231E+03  0.41202491900E+03  0.00000000000E+00 0. -1.
          1    1    5    5  503    0  0.37106138576E+02  0.13609392805E+02 -0.67308419930E+01  0.40092210297E+02  0.00000000000E+00 0. -1.
         -2    1    5    5    0  503 -0.97830747840E+01 -0.37948213903E+02 -0.43784664503E+02  0.58761146485E+02  0.00000000000E+00 0.  1.
         -3    1    6    6    0  502  0.85855613447E+02 -0.59851772372E+02  0.22814278676E+04  0.22838271686E+04  0.00000000000E+00 0.  1.
<mgrwt>
<rscale>  0 0.12072333E+04</rscale>
<asrwt>0</asrwt>
<pdfrwt beam="1">  1        1 0.44515084E+00 0.12072333E+04</pdfrwt>
<pdfrwt beam="2">  1       -1 0.19372627E-01 0.12072333E+04</pdfrwt>
<totfact> 0.15415324E+01</totfact>
</mgrwt>
</event>
<event>
12    1  0.1472088E-007  0.1320831E+04  0.7818608E-02  0.9013207E-01
         -1   -1    0    0    0  501 -0.00000000000E+00  0.00000000000E+00  0.79965411941E+03  0.79965411941E+03  0.00000000000E+00 0.  1.
          1   -1    0    0  501    0  0.00000000000E+00 -0.00000000000E+00 -0.54542196839E+03  0.54542196839E+03  0.00000000000E+00 0. -1.
         23    2    1    2    0    0  0.32001470322E+03  0.71710874205E+02 -0.26798057585E+02  0.34041539810E+03  0.87250487790E+02 0.  0.
        254    2    1    2    0    0 -0.32001470322E+03 -0.71710874205E+02  0.28103020861E+03  0.10046606897E+04  0.90709054868E+03 0.  0.
        -24    2    4    4    0    0  0.20454362165E+03 -0.30159967031E+03  0.19098607393E+03  0.41930835982E+03  0.80891074257E+02 0.  0.
         24    2    4    4    0    0 -0.52455832487E+03  0.22988879610E+03  0.90044134679E+02  0.58535232987E+03  0.80741000332E+02 0.  0.
         13    1    3    3    0    0  0.83632741996E+02  0.27712206353E+02 -0.45662858421E+02  0.99234563303E+02  0.00000000000E+00 0.  1.
        -13    1    3    3    0    0  0.23638196122E+03  0.43998667852E+02  0.18864800836E+02  0.24118083480E+03  0.00000000000E+00 0. -1.
          2    1    6    6  502    0 -0.28058015173E+03  0.14688698966E+03  0.83642976148E+02  0.32756244708E+03  0.00000000000E+00 0. -1.
          1    1    5    5  503    0  0.42255260491E+02 -0.89382439331E+02  0.16545125506E+02  0.10024205045E+03  0.00000000000E+00 0. -1.
         -2    1    5    5    0  503  0.16228836116E+03 -0.21221723098E+03  0.17444094842E+03  0.31906630937E+03  0.00000000000E+00 0.  1.
         -1    1    6    6    0  502 -0.24397817314E+03  0.83001806438E+02  0.64011585310E+01  0.25778988279E+03  0.00000000000E+00 0.  1.
<mgrwt>
<rscale>  0 0.13208314E+04</rscale>
<asrwt>0</asrwt>
<pdfrwt beam="1">  1        1 0.83911072E-01 0.13208314E+04</pdfrwt>
<pdfrwt beam="2">  1       -1 0.12302371E+00 0.13208314E+04</pdfrwt>
<totfact> 0.22427486E+01</totfact>
</mgrwt>
</event>
<event>
12    1  0.1472088E-007  0.1300285E+04  0.7818608E-02  0.9029339E-01
          2   -1    0    0  501    0  0.00000000000E+00  0.00000000000E+00  0.17784481505E+04  0.17784481505E+04  0.00000000000E+00 0. -1.
         -2   -1    0    0    0  501 -0.00000000000E+00 -0.00000000000E+00 -0.23767076100E+03  0.23767076100E+03  0.00000000000E+00 0.  1.
         23    2    1    2    0    0 -0.12879672029E+03 -0.27595046111E+03  0.12537025008E+03  0.34198682486E+03  0.92195643214E+02 0.  0.
        254    2    1    2    0    0  0.12879672029E+03  0.27595046111E+03  0.14154071394E+04  0.16741320866E+04  0.84059718121E+03 0.  0.
        -24    2    4    4    0    0  0.25258541786E+03  0.44949420193E+02  0.13702034557E+04  0.13963048275E+04  0.79936334249E+02 0.  0.
         24    2    4    4    0    0 -0.12378869757E+03  0.23100104092E+03  0.45203683693E+02  0.27782725914E+03  0.80370954658E+02 0.  0.
         13    1    3    3    0    0 -0.20592963545E+02 -0.36355833926E+02  0.56408148927E+02  0.70197550337E+02  0.00000000000E+00 0.  1.
        -13    1    3    3    0    0 -0.10820375675E+03 -0.23959462718E+03  0.68962101149E+02  0.27178927452E+03  0.00000000000E+00 0. -1.
          4    1    6    6  502    0 -0.12577019547E+03  0.21743114901E+03  0.23671796170E+02  0.25229903005E+03  0.00000000000E+00 0. -1.
          1    1    5    5  503    0  0.20623544182E+02  0.28889575207E+02  0.21849869197E+03  0.22136308754E+03  0.00000000000E+00 0. -1.
         -2    1    5    5    0  503  0.23196187368E+03  0.16059844986E+02  0.11517047637E+04  0.11749417399E+04  0.00000000000E+00 0.  1.
         -3    1    6    6    0  502  0.19814979060E+01  0.13569891904E+02  0.21531887523E+02  0.25528229092E+02  0.00000000000E+00 0.  1.
<mgrwt>
<rscale>  0 0.13002848E+04</rscale>
<asrwt>0</asrwt>
<pdfrwt beam="1">  1        2 0.27360740E+00 0.13002848E+04</pdfrwt>
<pdfrwt beam="2">  1       -2 0.36564734E-01 0.13002848E+04</pdfrwt>
<totfact> 0.61231984E+01</totfact>
</mgrwt>
</event>
<event>
12    1  0.1472088E-007  0.9130253E+03  0.7818608E-02  0.9409444E-01
         -2   -1    0    0    0  501 -0.00000000000E+00  0.00000000000E+00  0.75299652436E+02  0.75299652436E+02  0.00000000000E+00 0.  1.
          2   -1    0    0  501    0  0.00000000000E+00 -0.00000000000E+00 -0.27676595482E+04  0.27676595482E+04  0.00000000000E+00 0. -1.
         23    2    1    2    0    0 -0.95904158048E+02 -0.14179649461E+01 -0.26227374074E+03  0.29377695300E+03  0.91201781104E+02 0.  0.
        254    2    1    2    0    0  0.95904158048E+02  0.14179649461E+01 -0.24300861550E+04  0.25491822476E+04  0.76407577678E+03 0.  0.
        -24    2    4    4    0    0 -0.53590830439E+02  0.64996090072E+02 -0.28828366162E+01  0.11555679526E+03  0.79048044587E+02 0.  0.
         24    2    4    4    0    0  0.14949498849E+03 -0.63578125126E+02 -0.24272033184E+04  0.24336254523E+04  0.69469158392E+02 0.  0.
         11    1    3    3    0    0 -0.30808161277E+02 -0.66343514570E+00 -0.20428058432E+03  0.20659172316E+03  0.00000000000E+00 0. -1.
        -11    1    3    3    0    0 -0.65095996771E+02 -0.75452980040E+00 -0.57993156420E+02  0.87185229841E+02  0.00000000000E+00 0.  1.
          4    1    6    6  502    0  0.14908381303E+03 -0.41990847832E+02 -0.20894126962E+04  0.20951454913E+04  0.00000000000E+00 0. -1.
          3    1    5    5  503    0 -0.74036620485E+02  0.43660320986E+02 -0.12379173806E+01  0.85960323644E+02  0.00000000000E+00 0. -1.
         -4    1    5    5    0  503  0.20445790046E+02  0.21335769086E+02 -0.16449192356E+01  0.29596471621E+02  0.00000000000E+00 0.  1.
         -3    1    6    6    0  502  0.41117545376E+00 -0.21587277294E+02 -0.33779062214E+03  0.33847996102E+03  0.00000000000E+00 0.  1.
<mgrwt>
<rscale>  0 0.91302531E+03</rscale>
<asrwt>0</asrwt>
<pdfrwt beam="1">  1        2 0.42579375E+00 0.91302531E+03</pdfrwt>
<pdfrwt beam="2">  1       -2 0.11584563E-01 0.91302531E+03</pdfrwt>
<totfact> 0.13424453E+02</totfact>
</mgrwt>
</event>
<event>
12    1  0.1472088E-007  0.2186851E+04  0.7818608E-02  0.8523921E-01
          1   -1    0    0  501    0  0.00000000000E+00  0.00000000000E+00  0.35714168900E+04  0.35714168900E+04  0.00000000000E+00 0. -1.
         -1   -1    0    0    0  501 -0.00000000000E+00 -0.00000000000E+00 -0.33476335909E+03  0.33476335909E+03  0.00000000000E+00 0.  1.
         23    2    1    2    0    0  0.18577530888E+03 -0.49440778572E+03  0.36048024984E+02  0.53751473232E+03  0.93118759622E+02 0.  0.
        254    2    1    2    0    0 -0.18577530888E+03  0.49440778572E+03  0.32006055059E+04  0.33686655167E+04  0.90833927324E+03 0.  0.
        -24    2    4    4    0    0 -0.25939950840E+03  0.24314020705E+03  0.35112561121E+03  0.50609690227E+03  0.80247208006E+02 0.  0.
         24    2    4    4    0    0  0.73624199520E+02  0.25126757867E+03  0.28494798947E+04  0.28625686145E+04  0.78787584542E+02 0.  0.
         11    1    3    3    0    0  0.26008225656E+02 -0.11889434831E+03  0.43815980109E+02  0.12935275016E+03  0.00000000000E+00 0. -1.
        -11    1    3    3    0    0  0.15976708323E+03 -0.37551343741E+03 -0.77679551245E+01  0.40816198216E+03  0.00000000000E+00 0.  1.
          2    1    6    6  502    0  0.75989178332E+02  0.23656777563E+03  0.23970170325E+04  0.24098608512E+04  0.00000000000E+00 0. -1.
          3    1    5    5  503    0 -0.20280841729E+03  0.14087333067E+03  0.22383010753E+03  0.33328136229E+03  0.00000000000E+00 0. -1.
         -4    1    5    5    0  503 -0.56591091113E+02  0.10226687638E+03  0.12729550368E+03  0.17281553997E+03  0.00000000000E+00 0.  1.
         -1    1    6    6    0  502 -0.23649788123E+01  0.14699803033E+02  0.45246286214E+03  0.45270776330E+03  0.00000000000E+00 0.  1.
<mgrwt>
<rscale>  0 0.21868512E+04</rscale>
<asrwt>0</asrwt>
<pdfrwt beam="1">  1        1 0.54944873E+00 0.21868512E+04</pdfrwt>
<pdfrwt beam="2">  1       -1 0.51502058E-01 0.21868512E+04</pdfrwt>
<totfact> 0.76162902E-01</totfact>
</mgrwt>
</event>
<event>
12    1  0.1472088E-007  0.2162836E+04  0.7818608E-02  0.8534058E-01
          1   -1    0    0  501    0  0.00000000000E+00  0.00000000000E+00  0.18407561016E+04  0.18407561016E+04  0.00000000000E+00 0. -1.
         -1   -1    0    0    0  501 -0.00000000000E+00 -0.00000000000E+00 -0.63531778038E+03  0.63531778038E+03  0.00000000000E+00 0.  1.
         23    2    1    2    0    0 -0.26509263855E+03  0.79702462915E+03  0.14460510397E+03  0.85698619007E+03  0.89399817599E+02 0.  0.
        254    2    1    2    0    0  0.26509263855E+03 -0.79702462915E+03  0.10608332173E+04  0.16190876919E+04  0.88913186469E+03 0.  0.
        -24    2    4    4    0    0 -0.24510329717E+03 -0.37541492785E+03  0.76533292942E+03  0.89051141664E+03  0.79146042004E+02 0.  0.
         24    2    4    4    0    0  0.51019593572E+03 -0.42160970130E+03  0.29550028783E+03  0.72857627528E+03  0.73812842620E+02 0.  0.
         11    1    3    3    0    0 -0.23717723999E+03  0.67842501313E+03  0.15322473636E+03  0.73484104502E+03  0.00000000000E+00 0. -1.
        -11    1    3    3    0    0 -0.27915398557E+02  0.11859961602E+03 -0.86196323856E+01  0.12214514505E+03  0.00000000000E+00 0.  1.
          2    1    6    6  502    0  0.41385145404E+03 -0.36004311167E+03  0.27016030018E+03  0.61146598929E+03  0.00000000000E+00 0. -1.
          3    1    5    5  503    0 -0.18395748499E+03 -0.31947864565E+03  0.66528229323E+03  0.76059679922E+03  0.00000000000E+00 0. -1.
         -4    1    5    5    0  503 -0.61145812187E+02 -0.55936282200E+02  0.10005063619E+03  0.12991461741E+03  0.00000000000E+00 0.  1.
         -1    1    6    6    0  502  0.96344481688E+02 -0.61566589632E+02  0.25339987654E+02  0.11711028599E+03  0.00000000000E+00 0.  1.
<mgrwt>
<rscale>  0 0.21628362E+04</rscale>
<asrwt>0</asrwt>
<pdfrwt beam="1">  1        1 0.28319325E+00 0.21628362E+04</pdfrwt>
<pdfrwt beam="2">  1       -1 0.97741197E-01 0.21628362E+04</pdfrwt>
<totfact> 0.35099406E+00</totfact>
</mgrwt>
</event>
<event>
12    1  0.1472088E-007  0.1582033E+04  0.7818608E-02  0.8831663E-01
         -1   -1    0    0    0  501 -0.00000000000E+00  0.00000000000E+00  0.25327295822E+03  0.25327295822E+03  0.00000000000E+00 0.  1.
          1   -1    0    0  501    0  0.00000000000E+00 -0.00000000000E+00 -0.24704837534E+04  0.24704837534E+04  0.00000000000E+00 0. -1.
         23    2    1    2    0    0 -0.28142308524E+03  0.28394604487E+03 -0.23885951994E+03  0.47464693486E+03  0.91714411098E+02 0.  0.
        254    2    1    2    0    0  0.28142308524E+03 -0.28394604487E+03 -0.19783512753E+04  0.22491097768E+04  0.99236924095E+03 0.  0.
        -24    2    4    4    0    0 -0.14860404148E+03 -0.53267599575E+03 -0.90292443800E+03  0.10617833484E+04  0.79274590041E+02 0.  0.
         24    2    4    4    0    0  0.43002712673E+03  0.24872995088E+03 -0.10754268373E+04  0.11873264284E+04  0.80070263010E+02 0.  0.
         11    1    3    3    0    0 -0.25429979096E+03  0.21225941876E+03 -0.21272371828E+03  0.39366714983E+03  0.00000000000E+00 0. -1.
        -11    1    3    3    0    0 -0.27123294284E+02  0.71686626111E+02 -0.26135801659E+02  0.80979785035E+02  0.00000000000E+00 0.  1.
          2    1    6    6  502    0  0.17564497544E+03  0.89781476070E+02 -0.51854460714E+03  0.55479760313E+03  0.00000000000E+00 0. -1.
          1    1    5    5  503    0 -0.89618224704E+01 -0.11075161208E+03 -0.22860002803E+03  0.25417357584E+03  0.00000000000E+00 0. -1.
         -4    1    5    5    0  503 -0.13964221901E+03 -0.42192438367E+03 -0.67432440997E+03  0.80760977257E+03  0.00000000000E+00 0.  1.
         -1    1    6    6    0  502  0.25438215128E+03  0.15894847481E+03 -0.55688223013E+03  0.63252882525E+03  0.00000000000E+00 0.  1.
<mgrwt>
<rscale>  0 0.15820325E+04</rscale>
<asrwt>0</asrwt>
<pdfrwt beam="1">  1        1 0.38007444E+00 0.15820325E+04</pdfrwt>
<pdfrwt beam="2">  1       -1 0.38965069E-01 0.15820325E+04</pdfrwt>
<totfact> 0.87376596E+00</totfact>
</mgrwt>
</event>
<event>
12    1  0.1472088E-007  0.2902198E+04  0.7818608E-02  0.8272224E-01
          2   -1    0    0  501    0  0.00000000000E+00  0.00000000000E+00  0.52732130878E+04  0.52732130878E+04  0.00000000000E+00 0. -1.
         -2   -1    0    0    0  501 -0.00000000000E+00 -0.00000000000E+00 -0.39931801551E+03  0.39931801551E+03  0.00000000000E+00 0.  1.
         23    2    1    2    0    0 -0.19242742507E+02 -0.11072639548E+04  0.35777550046E+04  0.37464399790E+04  0.95277988470E+02 0.  0.
        254    2    1    2    0    0  0.19242742507E+02  0.11072639548E+04  0.12961400677E+04  0.19260911243E+04  0.89635048681E+03 0.  0.
        -24    2    4    4    0    0  0.10666837454E+03  0.11417026803E+04  0.76366456685E+03  0.13800351737E+04  0.80314118844E+02 0.  0.
         24    2    4    4    0    0 -0.87425632029E+02 -0.34438725515E+02  0.53247550087E+03  0.54605595058E+03  0.76273686061E+02 0.  0.
         13    1    3    3    0    0 -0.72682977633E+01 -0.74801101322E+03  0.22628235764E+04  0.23832632759E+04  0.00000000000E+00 0.  1.
        -13    1    3    3    0    0 -0.11974444744E+02 -0.35925294156E+03  0.13149314281E+04  0.13631767032E+04  0.00000000000E+00 0. -1.
          4    1    6    6  502    0  0.11718513683E+02  0.42412060188E+01  0.95410322465E+02  0.96220793098E+02  0.00000000000E+00 0. -1.
          1    1    5    5  503    0 -0.53981251688E+01  0.12981713187E+03  0.64952421207E+02  0.14525992050E+03  0.00000000000E+00 0. -1.
         -2    1    5    5    0  503  0.11206649971E+03  0.10118855484E+04  0.69871214565E+03  0.12347752532E+04  0.00000000000E+00 0.  1.
         -3    1    6    6    0  502 -0.99144145712E+02 -0.38679931533E+02  0.43706517840E+03  0.44983515748E+03  0.00000000000E+00 0.  1.
<mgrwt>
<rscale>  0 0.29021985E+04</rscale>
<asrwt>0</asrwt>
<pdfrwt beam="1">  1        2 0.81126350E+00 0.29021985E+04</pdfrwt>
<pdfrwt beam="2">  1       -2 0.61433544E-01 0.29021985E+04</pdfrwt>
<totfact> 0.30560891E-02</totfact>
</mgrwt>
</event>
<event>
12    1  0.1832811E-007  0.3737763E+04  0.7818608E-02  0.8059644E-01
         -2   -1    0    0    0  501 -0.00000000000E+00  0.00000000000E+00  0.15184842172E+04  0.15184842172E+04  0.00000000000E+00 0.  1.
          2   -1    0    0  501    0  0.00000000000E+00 -0.00000000000E+00 -0.23001350632E+04  0.23001350632E+04  0.00000000000E+00 0. -1.
         23    2    1    2    0    0  0.81072996346E+03 -0.12490089077E+03  0.11975838350E+04  0.14545412142E+04  0.92735083952E+02 0.  0.
        254    2    1    2    0    0 -0.81072996346E+03  0.12490089077E+03 -0.19792346810E+04  0.23640780662E+04  0.99930569605E+03 0.  0.
        -24    2    4    4    0    0 -0.60502987890E+02 -0.37373808969E+03 -0.65016416095E+03  0.75661799685E+03  0.80103593860E+02 0.  0.
         24    2    4    4    0    0 -0.75022697557E+03  0.49863898046E+03 -0.13290705201E+04  0.16074600693E+04  0.77576281063E+02 0.  0.
         11    1    3    3    0    0  0.77611331806E+01 -0.12511532445E+02  0.21134220754E+02  0.25757113954E+02  0.00000000000E+00 0. -1.
        -11    1    3    3    0    0  0.80296883028E+03 -0.11238935833E+03  0.11764496143E+04  0.14287841003E+04  0.00000000000E+00 0.  1.
          2    1    6    6  502    0 -0.40954845717E+03  0.22572753773E+03 -0.69111294118E+03  0.83445788241E+03  0.00000000000E+00 0. -1.
          3    1    5    5  503    0  0.17361412144E+02 -0.40001751430E+02 -0.88485977352E+02  0.98647488245E+02  0.00000000000E+00 0. -1.
         -4    1    5    5    0  503 -0.77864400034E+02 -0.33373633826E+03 -0.56167818359E+03  0.65797050860E+03  0.00000000000E+00 0.  1.
         -1    1    6    6    0  502 -0.34067851840E+03  0.27291144273E+03 -0.63795757889E+03  0.77300218689E+03  0.00000000000E+00 0.  1.
<mgrwt>
<rscale>  0 0.37377634E+04</rscale>
<asrwt>0</asrwt>
<pdfrwt beam="1">  1        2 0.35386693E+00 0.37377634E+04</pdfrwt>
<pdfrwt beam="2">  1       -2 0.23361296E+00 0.37377634E+04</pdfrwt>
<totfact> 0.29651511E-01</totfact>
</mgrwt>
</event>
<event>
12    1  0.1472088E-007  0.1864635E+04  0.7818608E-02  0.8672663E-01
          1   -1    0    0  501    0  0.00000000000E+00  0.00000000000E+00  0.11086774554E+04  0.11086774554E+04  0.00000000000E+00 0. -1.
         -1   -1    0    0    0  501 -0.00000000000E+00 -0.00000000000E+00 -0.78401134287E+03  0.78401134287E+03  0.00000000000E+00 0.  1.
         23    2    1    2    0    0 -0.17617119930E+03 -0.20314087500E+03  0.79302047177E+03  0.84172772723E+03  0.85566299382E+02 0.  0.
        254    2    1    2    0    0  0.17617119930E+03  0.20314087500E+03 -0.46835435926E+03  0.10509610710E+04  0.90158796597E+03 0.  0.
        -24    2    4    4    0    0  0.45735034377E+03  0.36747754000E+03 -0.38214444632E+03  0.70485686996E+03  0.81115657704E+02 0.  0.
         24    2    4    4    0    0 -0.28117914447E+03 -0.16433666500E+03 -0.86209912943E+02  0.34610420105E+03  0.79295133209E+02 0.  0.
         11    1    3    3    0    0 -0.13350066741E+03 -0.17248881456E+03  0.71606579289E+03  0.74854862173E+03  0.00000000000E+00 0. -1.
        -11    1    3    3    0    0 -0.42670531890E+02 -0.30652060441E+02  0.76954678882E+02  0.93179105506E+02  0.00000000000E+00 0.  1.
          2    1    6    6  502    0 -0.16340515537E+03 -0.12462695083E+03 -0.23365218267E+02  0.20683098196E+03  0.00000000000E+00 0. -1.
          1    1    5    5  503    0  0.15571242893E+03  0.17368934944E+03 -0.16458612037E+03  0.28548720050E+03  0.00000000000E+00 0. -1.
         -2    1    5    5    0  503  0.30163791484E+03  0.19378819055E+03 -0.21755832595E+03  0.41936966945E+03  0.00000000000E+00 0.  1.
         -1    1    6    6    0  502 -0.11777398910E+03 -0.39709714171E+02 -0.62844694676E+02  0.13927321909E+03  0.00000000000E+00 0.  1.
<mgrwt>
<rscale>  0 0.18646348E+04</rscale>
<asrwt>0</asrwt>
<pdfrwt beam="1">  1        1 0.17056576E+00 0.18646348E+04</pdfrwt>
<pdfrwt beam="2">  1       -1 0.12061713E+00 0.18646348E+04</pdfrwt>
<totfact> 0.71660034E+00</totfact>
</mgrwt>
</event>
<event>
12    1  0.1472088E-007  0.2757563E+04  0.7818608E-02  0.8316566E-01
         -1   -1    0    0    0  501 -0.00000000000E+00  0.00000000000E+00  0.60952410410E+03  0.60952410410E+03  0.00000000000E+00 0.  1.
          1   -1    0    0  501    0  0.00000000000E+00 -0.00000000000E+00 -0.31188897107E+04  0.31188897107E+04  0.00000000000E+00 0. -1.
         23    2    1    2    0    0 -0.25369749004E+03 -0.11413855265E+04 -0.15794700468E+04  0.19687929591E+04  0.11956902004E+03 0.  0.
        254    2    1    2    0    0  0.25369749004E+03  0.11413855265E+04 -0.92989555980E+03  0.17596208557E+04  0.92975075532E+03 0.  0.
        -24    2    4    4    0    0 -0.32063856893E+03  0.60226332884E+03 -0.30838869620E+03  0.75297957419E+03  0.79652005965E+02 0.  0.
         24    2    4    4    0    0  0.57433605897E+03  0.53912219768E+03 -0.62150686360E+03  0.10066412815E+04  0.80877904437E+02 0.  0.
         11    1    3    3    0    0 -0.61528898380E+02 -0.46249106950E+03 -0.70070244139E+03  0.84182403510E+03  0.00000000000E+00 0. -1.
        -11    1    3    3    0    0 -0.19216859166E+03 -0.67889445702E+03 -0.87876760538E+03  0.11269689240E+04  0.00000000000E+00 0.  1.
          4    1    6    6  502    0  0.62520991132E+02  0.60805473613E+02 -0.10378077851E+03  0.13556042911E+03  0.00000000000E+00 0. -1.
          3    1    5    5  503    0 -0.20754261328E+02  0.11444093762E+02 -0.48552867669E+01  0.24192570241E+02  0.00000000000E+00 0. -1.
         -4    1    5    5    0  503 -0.29988430761E+03  0.59081923508E+03 -0.30353340943E+03  0.72878700395E+03  0.00000000000E+00 0.  1.
         -3    1    6    6    0  502  0.51181506784E+03  0.47831672406E+03 -0.51772608510E+03  0.87108085238E+03  0.00000000000E+00 0.  1.
<mgrwt>
<rscale>  0 0.27575630E+04</rscale>
<asrwt>0</asrwt>
<pdfrwt beam="1">  1        1 0.47982917E+00 0.27575630E+04</pdfrwt>
<pdfrwt beam="2">  1       -1 0.93772941E-01 0.27575630E+04</pdfrwt>
<totfact> 0.46784734E-01</totfact>
</mgrwt>
</event>
<event>
12    1  0.1472088E-007  0.1326075E+04  0.7818608E-02  0.9009140E-01
          1   -1    0    0  501    0  0.00000000000E+00  0.00000000000E+00  0.34057003989E+03  0.34057003989E+03  0.00000000000E+00 0. -1.
         -1   -1    0    0    0  501 -0.00000000000E+00 -0.00000000000E+00 -0.12908313032E+04  0.12908313032E+04  0.00000000000E+00 0.  1.
         23    2    1    2    0    0  0.33794723819E+03 -0.54725642099E+02 -0.17678031309E+03  0.39683072315E+03  0.94974270367E+02 0.  0.
        254    2    1    2    0    0 -0.33794723819E+03  0.54725642099E+02 -0.77348095021E+03  0.12345706199E+04  0.89927115130E+03 0.  0.
        -24    2    4    4    0    0 -0.54981277500E+03 -0.10869878851E+03 -0.20653392123E+03  0.60257256146E+03  0.79548205645E+02 0.  0.
         24    2    4    4    0    0  0.21186553681E+03  0.16342443061E+03 -0.56694702898E+03  0.63199805848E+03  0.79987886843E+02 0.  0.
         11    1    3    3    0    0  0.28643569102E+03 -0.80431452674E+02 -0.15291114174E+03  0.33450925389E+03  0.00000000000E+00 0.  1.
        -11    1    3    3    0    0  0.51511547170E+02  0.25705810576E+02 -0.23869171354E+02  0.62321469257E+02  0.00000000000E+00 0. -1.
          2    1    6    6  502    0  0.84928285107E+02  0.10371676283E+03 -0.33642845219E+03  0.36215201773E+03  0.00000000000E+00 0. -1.
          1    1    5    5  503    0 -0.34796686526E+03 -0.75854595552E+02 -0.90546061049E+02  0.36746897577E+03  0.00000000000E+00 0. -1.
         -2    1    5    5    0  503 -0.20184590974E+03 -0.32844192962E+02 -0.11598786018E+03  0.23510358568E+03  0.00000000000E+00 0.  1.
         -1    1    6    6    0  502  0.12693725170E+03  0.59707667779E+02 -0.23051857680E+03  0.26984604075E+03  0.00000000000E+00 0.  1.
<mgrwt>
<rscale>  0 0.13260746E+04</rscale>
<asrwt>0</asrwt>
<pdfrwt beam="1">  1        1 0.52395391E-01 0.13260746E+04</pdfrwt>
<pdfrwt beam="2">  1       -1 0.19858943E+00 0.13260746E+04</pdfrwt>
<totfact> 0.11205988E+01</totfact>
</mgrwt>
</event>
<event>
12    1  0.1472088E-007  0.1648414E+04  0.7818608E-02  0.8791345E-01
         -1   -1    0    0    0  501 -0.00000000000E+00  0.00000000000E+00  0.15742538028E+04  0.15742538028E+04  0.00000000000E+00 0.  1.
          1   -1    0    0  501    0  0.00000000000E+00 -0.00000000000E+00 -0.43151709305E+03  0.43151709305E+03  0.00000000000E+00 0. -1.
         23    2    1    2    0    0 -0.46847695059E+03 -0.26902789168E+03  0.65154015257E+03  0.85114140574E+03  0.89946997881E+02 0.  0.
        254    2    1    2    0    0  0.46847695059E+03  0.26902789168E+03  0.49119655714E+03  0.11546294901E+04  0.89445432629E+03 0.  0.
        -24    2    4    4    0    0  0.24596951669E+03  0.58906388371E+03  0.34710668218E+03  0.73106521173E+03  0.80473801657E+02 0.  0.
         24    2    4    4    0    0  0.22250743390E+03 -0.32003599203E+03  0.14408987496E+03  0.42356427833E+03  0.81928087185E+02 0.  0.
         13    1    3    3    0    0 -0.13129348503E+02 -0.24247984294E+02  0.15957598419E+02  0.31858899569E+02  0.00000000000E+00 0. -1.
        -13    1    3    3    0    0 -0.45534760209E+03 -0.24477990738E+03  0.63558255415E+03  0.81928250617E+03  0.00000000000E+00 0.  1.
          2    1    6    6  502    0  0.81164845875E+02 -0.62406619950E+02  0.18707935875E+02  0.10407836127E+03  0.00000000000E+00 0. -1.
          3    1    5    5  503    0  0.14080229800E+03  0.26618818717E+03  0.19663574870E+03  0.35964851699E+03  0.00000000000E+00 0. -1.
         -4    1    5    5    0  503  0.10516721869E+03  0.32287569654E+03  0.15047093348E+03  0.37141669474E+03  0.00000000000E+00 0.  1.
         -1    1    6    6    0  502  0.14134258803E+03 -0.25762937208E+03  0.12538193909E+03  0.31948591706E+03  0.00000000000E+00 0.  1.
<mgrwt>
<rscale>  0 0.16484143E+04</rscale>
<asrwt>0</asrwt>
<pdfrwt beam="1">  1        1 0.66387246E-01 0.16484143E+04</pdfrwt>
<pdfrwt beam="2">  1       -1 0.24219289E+00 0.16484143E+04</pdfrwt>
<totfact> 0.40627127E+00</totfact>
</mgrwt>
</event>
<event>
12    1  0.1472088E-007  0.2058790E+04  0.7818608E-02  0.8579617E-01
         -2   -1    0    0    0  501 -0.00000000000E+00  0.00000000000E+00  0.47429741540E+03  0.47429741540E+03  0.00000000000E+00 0.  1.
          2   -1    0    0  501    0  0.00000000000E+00 -0.00000000000E+00 -0.22341554796E+04  0.22341554796E+04  0.00000000000E+00 0. -1.
         23    2    1    2    0    0 -0.36184198513E+03  0.73550107356E+03 -0.53997954844E+03  0.98557565293E+03  0.88825691619E+02 0.  0.
        254    2    1    2    0    0  0.36184198513E+03 -0.73550107356E+03 -0.12198785158E+04  0.17228772421E+04  0.89906114730E+03 0.  0.
        -24    2    4    4    0    0  0.52251488939E+03 -0.43925665153E+03 -0.11917394290E+04  0.13757641228E+04  0.80720748864E+02 0.  0.
         24    2    4    4    0    0 -0.16067290426E+03 -0.29624442203E+03 -0.28139086726E+02  0.34711311927E+03  0.78225121413E+02 0.  0.
         11    1    3    3    0    0 -0.29522110843E+03  0.58881232903E+03 -0.39008596045E+03  0.76552107628E+03  0.00000000000E+00 0. -1.
        -11    1    3    3    0    0 -0.66620876702E+02  0.14668874453E+03 -0.14989358799E+03  0.22005457665E+03  0.00000000000E+00 0.  1.
          4    1    6    6  502    0 -0.93749995493E+00 -0.52955008609E+02  0.89627448965E+01  0.53716316320E+02  0.00000000000E+00 0. -1.
          3    1    5    5  503    0  0.18693568842E+02 -0.18018322864E+02 -0.84712566922E+02  0.88602079374E+02  0.00000000000E+00 0. -1.
         -4    1    5    5    0  503  0.50382132055E+03 -0.42123832867E+03 -0.11070268621E+04  0.12871620434E+04  0.00000000000E+00 0.  1.
         -3    1    6    6    0  502 -0.15973540430E+03 -0.24328941342E+03 -0.37101831622E+02  0.29339680295E+03  0.00000000000E+00 0.  1.
<mgrwt>
<rscale>  0 0.20587901E+04</rscale>
<asrwt>0</asrwt>
<pdfrwt beam="1">  1        2 0.34371623E+00 0.20587901E+04</pdfrwt>
<pdfrwt beam="2">  1       -2 0.72968832E-01 0.20587901E+04</pdfrwt>
<totfact> 0.77505393E+00</totfact>
</mgrwt>
</event>
<event>
12    1  0.1472088E-007  0.1091803E+04  0.7818608E-02  0.9213218E-01
          1   -1    0    0  501    0  0.00000000000E+00  0.00000000000E+00  0.11927402702E+04  0.11927402702E+04  0.00000000000E+00 0. -1.
         -1   -1    0    0    0  501 -0.00000000000E+00 -0.00000000000E+00 -0.24985213760E+03  0.24985213760E+03  0.00000000000E+00 0.  1.
         23    2    1    2    0    0 -0.29722778278E+01 -0.16273445613E+03  0.19636911497E+03  0.27094348618E+03  0.91423223209E+02 0.  0.
        254    2    1    2    0    0  0.29722778278E+01  0.16273445613E+03  0.74651901760E+03  0.11716489216E+04  0.88824501923E+03 0.  0.
        -24    2    4    4    0    0 -0.32743827213E+03  0.24988038726E+03  0.70038402972E+03  0.81650784606E+03  0.80568254292E+02 0.  0.
         24    2    4    4    0    0  0.33041054996E+03 -0.87145931132E+02  0.46134987882E+02  0.35514107553E+03  0.85036472091E+02 0.  0.
         11    1    3    3    0    0 -0.12234950733E+02 -0.47343378838E+02  0.12675983300E+03  0.13586443538E+03  0.00000000000E+00 0. -1.
        -11    1    3    3    0    0  0.92626729054E+01 -0.11539107729E+03  0.69609281970E+02  0.13507905080E+03  0.00000000000E+00 0.  1.
          4    1    6    6  502    0  0.81523563475E+02 -0.57891918233E+02  0.28256592036E+02  0.10390380451E+03  0.00000000000E+00 0. -1.
          1    1    5    5  503    0 -0.17344786702E+03  0.18181138517E+03  0.41264092422E+03  0.48312738971E+03  0.00000000000E+00 0. -1.
         -2    1    5    5    0  503 -0.15399040512E+03  0.68069002099E+02  0.28774310550E+03  0.33338045635E+03  0.00000000000E+00 0.  1.
         -3    1    6    6    0  502  0.24888698648E+03 -0.29254012899E+02  0.17878395846E+02  0.25123727102E+03  0.00000000000E+00 0.  1.
<mgrwt>
<rscale>  0 0.10918035E+04</rscale>
<asrwt>0</asrwt>
<pdfrwt beam="1">  1        1 0.18349850E+00 0.10918035E+04</pdfrwt>
<pdfrwt beam="2">  1       -1 0.38438791E-01 0.10918035E+04</pdfrwt>
<totfact> 0.70593676E+01</totfact>
</mgrwt>
</event>
<event>
12    1  0.1472088E-007  0.1646716E+04  0.7818608E-02  0.8792352E-01
         -1   -1    0    0    0  501 -0.00000000000E+00  0.00000000000E+00  0.25571557389E+03  0.25571557389E+03  0.00000000000E+00 0.  1.
          1   -1    0    0  501    0  0.00000000000E+00 -0.00000000000E+00 -0.26510642878E+04  0.26510642878E+04  0.00000000000E+00 0. -1.
         23    2    1    2    0    0  0.26489746006E+02  0.45728578561E+03 -0.14552857212E+04  0.15284395065E+04  0.91971725781E+02 0.  0.
        254    2    1    2    0    0 -0.26489746006E+02 -0.45728578561E+03 -0.94006299272E+03  0.13783403552E+04  0.89793747449E+03 0.  0.
        -24    2    4    4    0    0 -0.18072848693E+03 -0.27566427589E+03 -0.10508685583E+04  0.11038236299E+04  0.73812600798E+02 0.  0.
         24    2    4    4    0    0  0.15423874093E+03 -0.18162150973E+03  0.11080556561E+03  0.27451672529E+03  0.79407789911E+02 0.  0.
         13    1    3    3    0    0  0.41638339537E+02  0.43957727632E+03 -0.13416869445E+04  0.14124750582E+04  0.00000000000E+00 0. -1.
        -13    1    3    3    0    0 -0.15148593531E+02  0.17708509294E+02 -0.11359877674E+03  0.11596444828E+03  0.00000000000E+00 0.  1.
          4    1    6    6  502    0 -0.24755199186E+01 -0.81173418881E+01 -0.85200955132E+01  0.12025450750E+02  0.00000000000E+00 0. -1.
          3    1    5    5  503    0 -0.18651533484E+02 -0.61160808259E+01 -0.32268684994E+02  0.37769752147E+02  0.00000000000E+00 0. -1.
         -4    1    5    5    0  503 -0.16207695345E+03 -0.26954819506E+03 -0.10185998733E+04  0.10660538777E+04  0.00000000000E+00 0.  1.
         -3    1    6    6    0  502  0.15671426085E+03 -0.17350416784E+03  0.11932566112E+03  0.26249127454E+03  0.00000000000E+00 0.  1.
<mgrwt>
<rscale>  0 0.16467160E+04</rscale>
<asrwt>0</asrwt>
<pdfrwt beam="1">  1        1 0.40785607E+00 0.16467160E+04</pdfrwt>
<pdfrwt beam="2">  1       -1 0.39340855E-01 0.16467160E+04</pdfrwt>
<totfact> 0.63925942E+00</totfact>
</mgrwt>
</event>
<event>
12    1  0.1472088E-007  0.2167508E+04  0.7818608E-02  0.8532075E-01
         -1   -1    0    0    0  501 -0.00000000000E+00  0.00000000000E+00  0.10056005064E+04  0.10056005064E+04  0.00000000000E+00 0.  1.
          1   -1    0    0  501    0  0.00000000000E+00 -0.00000000000E+00 -0.11679813035E+04  0.11679813035E+04  0.00000000000E+00 0. -1.
         23    2    1    2    0    0  0.21022841646E+03 -0.42735623184E+03 -0.82724457213E+03  0.95901042713E+03  0.92401738323E+02 0.  0.
        254    2    1    2    0    0 -0.21022841646E+03  0.42735623184E+03  0.66486377509E+03  0.12145713827E+04  0.89794792074E+03 0.  0.
        -24    2    4    4    0    0 -0.26027474177E+03  0.31045246250E+03 -0.10823144598E+03  0.42709132462E+03  0.81051101110E+02 0.  0.
         24    2    4    4    0    0  0.50046325305E+02  0.11690376934E+03  0.77309522107E+03  0.78748005812E+03  0.79230645162E+02 0.  0.
         11    1    3    3    0    0  0.13863220417E+03 -0.35508695517E+03 -0.68830675318E+03  0.78681117190E+03  0.00000000000E+00 0. -1.
        -11    1    3    3    0    0  0.71596212290E+02 -0.72269276672E+02 -0.13893781895E+03  0.17219925523E+03  0.00000000000E+00 0.  1.
          2    1    6    6  502    0 -0.20487564989E+02  0.22302530297E+02  0.20825802125E+03  0.21044844165E+03  0.00000000000E+00 0. -1.
          3    1    5    5  503    0 -0.45927646290E+02  0.45400424995E+02 -0.49095071758E+02  0.81122582271E+02  0.00000000000E+00 0. -1.
         -4    1    5    5    0  503 -0.21434709548E+03  0.26505203751E+03 -0.59136374226E+02  0.34596874235E+03  0.00000000000E+00 0.  1.
         -1    1    6    6    0  502  0.70533890293E+02  0.94601239043E+02  0.56483719982E+03  0.57703161647E+03  0.00000000000E+00 0.  1.
<mgrwt>
<rscale>  0 0.21675079E+04</rscale>
<asrwt>0</asrwt>
<pdfrwt beam="1">  1        1 0.17968943E+00 0.21675079E+04</pdfrwt>
<pdfrwt beam="2">  1       -1 0.15470777E+00 0.21675079E+04</pdfrwt>
<totfact> 0.33089004E+00</totfact>
</mgrwt>
</event>
<event>
12    1  0.1472088E-007  0.2195886E+04  0.7818608E-02  0.8520142E-01
         -2   -1    0    0    0  501 -0.00000000000E+00  0.00000000000E+00  0.17185983258E+04  0.17185983258E+04  0.00000000000E+00 0.  1.
          2   -1    0    0  501    0  0.00000000000E+00 -0.00000000000E+00 -0.70143159872E+03  0.70143159872E+03  0.00000000000E+00 0. -1.
         23    2    1    2    0    0 -0.56415230823E+03 -0.22132760204E+03 -0.32799350069E+03  0.69437599787E+03  0.85583617630E+02 0.  0.
        254    2    1    2    0    0  0.56415230823E+03  0.22132760204E+03  0.13451602278E+04  0.17256539267E+04  0.89508195261E+03 0.  0.
        -24    2    4    4    0    0  0.17967709364E+03 -0.11662777136E+03 -0.52831336381E+02  0.23478554037E+03  0.80294488184E+02 0.  0.
         24    2    4    4    0    0  0.38447521459E+03  0.33795537340E+03  0.13979915642E+04  0.14908683863E+04  0.79202946495E+02 0.  0.
         11    1    3    3    0    0 -0.20723479364E+03 -0.54552058137E+02 -0.79351751022E+02  0.22851452281E+03  0.00000000000E+00 0.  1.
        -11    1    3    3    0    0 -0.35691751459E+03 -0.16677554391E+03 -0.24864174967E+03  0.46586147506E+03  0.00000000000E+00 0. -1.
          2    1    6    6  502    0  0.37074285682E+03  0.30032273123E+03  0.13101586776E+04  0.13943312983E+04  0.00000000000E+00 0. -1.
          3    1    5    5  503    0  0.14838679733E+03 -0.12299466308E+03 -0.28915475613E+02  0.19489082456E+03  0.00000000000E+00 0. -1.
         -4    1    5    5    0  503  0.31290296316E+02  0.63668917218E+01 -0.23915860767E+02  0.39894715815E+02  0.00000000000E+00 0.  1.
         -1    1    6    6    0  502  0.13732357775E+02  0.37632642169E+02  0.87832886517E+02  0.96537088005E+02  0.00000000000E+00 0.  1.
<mgrwt>
<rscale>  0 0.21958863E+04</rscale>
<asrwt>0</asrwt>
<pdfrwt beam="1">  1        2 0.10791255E+00 0.21958863E+04</pdfrwt>
<pdfrwt beam="2">  1       -2 0.26439974E+00 0.21958863E+04</pdfrwt>
<totfact> 0.19594880E+00</totfact>
</mgrwt>
</event>
<event>
12    1  0.1472088E-007  0.1920854E+04  0.7818608E-02  0.8644545E-01
          2   -1    0    0  501    0  0.00000000000E+00  0.00000000000E+00  0.64591700871E+03  0.64591700871E+03  0.00000000000E+00 0. -1.
         -2   -1    0    0    0  501 -0.00000000000E+00 -0.00000000000E+00 -0.14280787485E+04  0.14280787485E+04  0.00000000000E+00 0.  1.
         23    2    1    2    0    0 -0.38236639916E+03 -0.43062779074E+03  0.21297832105E+03  0.62090706340E+03  0.92311747778E+02 0.  0.
        254    2    1    2    0    0  0.38236639916E+03  0.43062779074E+03 -0.99514006084E+03  0.14530886938E+04  0.88854862222E+03 0.  0.
        -24    2    4    4    0    0  0.15906320077E+03  0.77904173897E+02  0.14110500430E+03  0.23997409457E+03  0.79415248367E+02 0.  0.
         24    2    4    4    0    0  0.22330319839E+03  0.35272361684E+03 -0.11362450651E+04  0.12131145993E+04  0.79472728460E+02 0.  0.
         13    1    3    3    0    0 -0.13866297334E+03 -0.20494925762E+03  0.56860923990E+02  0.25389915921E+03  0.00000000000E+00 0. -1.
        -13    1    3    3    0    0 -0.24370342582E+03 -0.22567853312E+03  0.15611739706E+03  0.36700790418E+03  0.00000000000E+00 0.  1.
          4    1    6    6  502    0  0.20698601406E+03  0.32061882636E+03 -0.10874404286E+04  0.11524609875E+04  0.00000000000E+00 0. -1.
          3    1    5    5  503    0  0.15150010904E+03  0.74241102971E+02  0.15140002080E+03  0.22668478270E+03  0.00000000000E+00 0. -1.
         -4    1    5    5    0  503  0.75630917350E+01  0.36630709262E+01 -0.10295016499E+02  0.13289311867E+02  0.00000000000E+00 0.  1.
         -3    1    6    6    0  502  0.16317184330E+02  0.32104790488E+02 -0.48804636513E+02  0.60653611780E+02  0.00000000000E+00 0.  1.
<mgrwt>
<rscale>  0 0.19208543E+04</rscale>
<asrwt>0</asrwt>
<pdfrwt beam="1">  1        2 0.99371848E-01 0.19208543E+04</pdfrwt>
<pdfrwt beam="2">  1       -2 0.21970442E+00 0.19208543E+04</pdfrwt>
<totfact> 0.42031481E+00</totfact>
</mgrwt>
</event>
<event>
12    1  0.1472088E-007  0.2552522E+04  0.7818608E-02  0.8384509E-01
         -1   -1    0    0    0  501 -0.00000000000E+00  0.00000000000E+00  0.12977036065E+04  0.12977036065E+04  0.00000000000E+00 0.  1.
          1   -1    0    0  501    0  0.00000000000E+00 -0.00000000000E+00 -0.12551730812E+04  0.12551730812E+04  0.00000000000E+00 0. -1.
         23    2    1    2    0    0  0.10475944384E+04  0.10644547591E+03 -0.30037912666E+03  0.10988699585E+04  0.92210732936E+02 0.  0.
        254    2    1    2    0    0 -0.10475944384E+04 -0.10644547591E+03  0.34290965197E+03  0.14540067293E+04  0.94221218026E+03 0.  0.
        -24    2    4    4    0    0 -0.39573914676E+02 -0.34344938990E+03  0.19489695029E+03  0.40494192665E+03  0.80433603554E+02 0.  0.
         24    2    4    4    0    0 -0.10080205237E+04  0.23700391400E+03  0.14801270168E+03  0.10490648026E+04  0.79705512600E+02 0.  0.
         11    1    3    3    0    0  0.83503504130E+03  0.11353526477E+03 -0.26400806519E+03  0.88310477013E+03  0.00000000000E+00 0. -1.
        -11    1    3    3    0    0  0.21255939709E+03 -0.70897888626E+01 -0.36371061462E+02  0.21576518836E+03  0.00000000000E+00 0.  1.
          4    1    6    6  502    0 -0.92412476602E+03  0.20011327931E+03  0.15015478546E+03  0.95739143893E+03  0.00000000000E+00 0. -1.
          1    1    5    5  503    0 -0.63470703339E+01 -0.18306676509E+03  0.59997556892E+02  0.19275225710E+03  0.00000000000E+00 0. -1.
         -2    1    5    5    0  503 -0.33226844342E+02 -0.16038262481E+03  0.13489939340E+03  0.21218966956E+03  0.00000000000E+00 0.  1.
         -3    1    6    6    0  502 -0.83895757689E+02  0.36890634687E+02 -0.21420837811E+01  0.91673363681E+02  0.00000000000E+00 0.  1.
<mgrwt>
<rscale>  0 0.25525224E+04</rscale>
<asrwt>0</asrwt>
<pdfrwt beam="1">  1        1 0.19310355E+00 0.25525224E+04</pdfrwt>
<pdfrwt beam="2">  1       -1 0.19964671E+00 0.25525224E+04</pdfrwt>
<totfact> 0.13040998E+00</totfact>
</mgrwt>
</event>
<event>
12    1  0.1472088E-007  0.1564883E+04  0.7818608E-02  0.8842417E-01
         -2   -1    0    0    0  501 -0.00000000000E+00  0.00000000000E+00  0.18263506859E+04  0.18263506859E+04  0.00000000000E+00 0.  1.
          2   -1    0    0  501    0  0.00000000000E+00 -0.00000000000E+00 -0.33521211541E+03  0.33521211541E+03  0.00000000000E+00 0. -1.
         23    2    1    2    0    0 -0.34904218405E+03 -0.20648393007E+03  0.65416853523E+02  0.42079849632E+03  0.91246644636E+02 0.  0.
        254    2    1    2    0    0  0.34904218405E+03  0.20648393007E+03  0.14257217170E+04  0.17407643050E+04  0.91274963254E+03 0.  0.
        -24    2    4    4    0    0  0.39755223832E+03 -0.26423978804E+03  0.48777301832E+03  0.68708036219E+03  0.79287192742E+02 0.  0.
         24    2    4    4    0    0 -0.48510054267E+02  0.47072371811E+03  0.93794869867E+03  0.10536839428E+04  0.81043481391E+02 0.  0.
         13    1    3    3    0    0 -0.32711361767E+03 -0.20017696030E+03  0.82523048149E+02  0.39228075122E+03  0.00000000000E+00 0. -1.
        -13    1    3    3    0    0 -0.21928566381E+02 -0.63069697715E+01 -0.17106194627E+02  0.28517745104E+02  0.00000000000E+00 0.  1.
          2    1    6    6  502    0  0.13966791984E+02  0.83540147131E+02  0.21736741711E+03  0.23328656516E+03  0.00000000000E+00 0. -1.
          1    1    5    5  503    0  0.19338896682E+03 -0.81678806189E+02  0.21806919387E+03  0.30269604091E+03  0.00000000000E+00 0. -1.
         -2    1    5    5    0  503  0.20416327150E+03 -0.18256098185E+03  0.26970382445E+03  0.38438432128E+03  0.00000000000E+00 0.  1.
         -1    1    6    6    0  502 -0.62476846252E+02  0.38718357098E+03  0.72058128156E+03  0.82039737767E+03  0.00000000000E+00 0.  1.
<mgrwt>
<rscale>  0 0.15648832E+04</rscale>
<asrwt>0</asrwt>
<pdfrwt beam="1">  1        2 0.51571096E-01 0.15648832E+04</pdfrwt>
<pdfrwt beam="2">  1       -2 0.28097702E+00 0.15648832E+04</pdfrwt>
<totfact> 0.38813286E+00</totfact>
</mgrwt>
</event>
<event>
12    1  0.1472088E-007  0.1992974E+04  0.7818608E-02  0.8609913E-01
         -2   -1    0    0    0  501 -0.00000000000E+00  0.00000000000E+00  0.54005397047E+03  0.54005397047E+03  0.00000000000E+00 0.  1.
          2   -1    0    0  501    0  0.00000000000E+00 -0.00000000000E+00 -0.18386796292E+04  0.18386796292E+04  0.00000000000E+00 0. -1.
         23    2    1    2    0    0  0.60099712603E+03 -0.28521125950E+03 -0.10355551661E+04  0.12335737076E+04  0.82380714885E+02 0.  0.
        254    2    1    2    0    0 -0.60099712603E+03  0.28521125950E+03 -0.26307049271E+03  0.11451598921E+04  0.89422708873E+03 0.  0.
        -24    2    4    4    0    0  0.22537514710E+03  0.71459166914E+02 -0.12798564964E+01  0.24893952686E+03  0.77903020049E+02 0.  0.
         24    2    4    4    0    0 -0.82637227313E+03  0.21375209259E+03 -0.26179063622E+03  0.89622036522E+03  0.78073778770E+02 0.  0.
         11    1    3    3    0    0  0.20231282261E+03 -0.13231027691E+03 -0.41575789487E+03  0.48092734869E+03  0.00000000000E+00 0.  1.
        -11    1    3    3    0    0  0.39868430342E+03 -0.15290098259E+03 -0.61979727120E+03  0.75264635896E+03  0.00000000000E+00 0. -1.
          2    1    6    6  502    0 -0.77031796077E+03  0.20045797835E+03 -0.22249311489E+03  0.82648433013E+03  0.00000000000E+00 0. -1.
          1    1    5    5  503    0  0.18618393604E+03  0.35038858467E+02 -0.23702912796E+02  0.19092932650E+03  0.00000000000E+00 0. -1.
         -2    1    5    5    0  503  0.39191211056E+02  0.36420308448E+02  0.22423056299E+02  0.58010200356E+02  0.00000000000E+00 0.  1.
         -1    1    6    6    0  502 -0.56054312357E+02  0.13294114239E+02 -0.39297521328E+02  0.69736035088E+02  0.00000000000E+00 0.  1.
<mgrwt>
<rscale>  0 0.19929739E+04</rscale>
<asrwt>0</asrwt>
<pdfrwt beam="1">  1        2 0.28287379E+00 0.19929739E+04</pdfrwt>
<pdfrwt beam="2">  1       -2 0.83085226E-01 0.19929739E+04</pdfrwt>
<totfact> 0.96870302E+00</totfact>
</mgrwt>
</event>
<event>
12    1  0.1472088E-007  0.2453334E+04  0.7818608E-02  0.8419802E-01
          1   -1    0    0  501    0  0.00000000000E+00  0.00000000000E+00  0.89427239739E+03  0.89427239739E+03  0.00000000000E+00 0. -1.
         -1   -1    0    0    0  501 -0.00000000000E+00 -0.00000000000E+00 -0.16826097921E+04  0.16826097921E+04  0.00000000000E+00 0.  1.
         23    2    1    2    0    0  0.70569961981E+03 -0.74920599199E+03 -0.59958686523E+03  0.11946336564E+04  0.91233722692E+02 0.  0.
        254    2    1    2    0    0 -0.70569961981E+03  0.74920599199E+03 -0.18875052953E+03  0.13822485332E+04  0.90314045041E+03 0.  0.
        -24    2    4    4    0    0 -0.64171204651E+02  0.65186951755E+03  0.10014353950E+03  0.66750413908E+03  0.80506122582E+02 0.  0.
         24    2    4    4    0    0 -0.64152841516E+03  0.97336474443E+02 -0.28889406903E+03  0.71474439407E+03  0.79791409434E+02 0.  0.
         13    1    3    3    0    0  0.39670859906E+03 -0.40015956395E+03 -0.37772410268E+03  0.67836633682E+03  0.00000000000E+00 0.  1.
        -13    1    3    3    0    0  0.30899102075E+03 -0.34904642804E+03 -0.22186276254E+03  0.51626731955E+03  0.00000000000E+00 0. -1.
          4    1    6    6  502    0 -0.42932523850E+03  0.32334284790E+02 -0.21164236446E+03  0.47974801388E+03  0.00000000000E+00 0. -1.
          3    1    5    5  503    0 -0.81680113747E+02  0.46409331261E+03  0.65474711017E+02  0.47575327805E+03  0.00000000000E+00 0. -1.
         -2    1    5    5    0  503  0.17508909096E+02  0.18777620494E+03  0.34668828485E+02  0.19175086103E+03  0.00000000000E+00 0.  1.
         -3    1    6    6    0  502 -0.21220317666E+03  0.65002189654E+02 -0.77251704569E+02  0.23499638019E+03  0.00000000000E+00 0.  1.
<mgrwt>
<rscale>  0 0.24533336E+04</rscale>
<asrwt>0</asrwt>
<pdfrwt beam="1">  1        1 0.13758037E+00 0.24533336E+04</pdfrwt>
<pdfrwt beam="2">  1       -1 0.25886304E+00 0.24533336E+04</pdfrwt>
<totfact> 0.10014027E+00</totfact>
</mgrwt>
</event>
<event>
12    1  0.1472088E-007  0.1227116E+04  0.7818608E-02  0.9089448E-01
          1   -1    0    0  501    0  0.00000000000E+00  0.00000000000E+00  0.12267841111E+04  0.12267841111E+04  0.00000000000E+00 0.  1.
         -1   -1    0    0    0  501 -0.00000000000E+00 -0.00000000000E+00 -0.30686188855E+03  0.30686188855E+03  0.00000000000E+00 0. -1.
         23    2    1    2    0    0 -0.19823743072E+02  0.24031001552E+03  0.38441870845E+03  0.46219058960E+03  0.87752568966E+02 0.  0.
        254    2    1    2    0    0  0.19823743072E+02 -0.24031001552E+03  0.53550351411E+03  0.10714554101E+04  0.89616449259E+03 0.  0.
        -24    2    4    4    0    0 -0.36046547797E+03 -0.20457672758E+03  0.16548005081E+02  0.42235176533E+03  0.79499553053E+02 0.  0.
         24    2    4    4    0    0  0.38028922104E+03 -0.35733287936E+02  0.51895550903E+03  0.64910364473E+03  0.78255745784E+02 0.  0.
         11    1    3    3    0    0 -0.39253493943E+02  0.22392126782E+03  0.36578276248E+03  0.43067226553E+03  0.00000000000E+00 0.  1.
        -11    1    3    3    0    0  0.19429750870E+02  0.16388747692E+02  0.18635945972E+02  0.31518324068E+02  0.00000000000E+00 0. -1.
          4    1    6    6  502    0  0.27371349604E+03  0.10623925634E+01  0.32651206984E+03  0.42606377263E+03  0.00000000000E+00 0. -1.
          1    1    5    5  503    0 -0.36008523399E+03 -0.18973517716E+03  0.13768009570E+02  0.40724730972E+03  0.00000000000E+00 0. -1.
         -2    1    5    5    0  503 -0.38024398123E+00 -0.14841550421E+02  0.27799955114E+01  0.15104455615E+02  0.00000000000E+00 0.  1.
         -3    1    6    6    0  502  0.10657572500E+03 -0.36795680500E+02  0.19244343919E+03  0.22303987210E+03  0.00000000000E+00 0.  1.
<mgrwt>
<rscale>  0 0.12271158E+04</rscale>
<asrwt>0</asrwt>
<pdfrwt beam="1">  1        1 0.18873601E+00 0.12271158E+04</pdfrwt>
<pdfrwt beam="2">  1       -1 0.47209522E-01 0.12271158E+04</pdfrwt>
<totfact> 0.45148887E+01</totfact>
</mgrwt>
</event>
<event>
12    1  0.1472088E-007  0.1245525E+04  0.7818608E-02  0.9073916E-01
          2   -1    0    0  501    0  0.00000000000E+00  0.00000000000E+00  0.26693967830E+04  0.26693967830E+04  0.00000000000E+00 0. -1.
         -2   -1    0    0    0  501 -0.00000000000E+00 -0.00000000000E+00 -0.14528868523E+03  0.14528868523E+03  0.00000000000E+00 0.  1.
         23    2    1    2    0    0 -0.17374449613E+03 -0.19888717034E+03  0.85511105899E+03  0.90196452960E+03  0.11216877008E+03 0.  0.
        254    2    1    2    0    0  0.17374449613E+03  0.19888717034E+03  0.16689970388E+04  0.19127209386E+04  0.89621817499E+03 0.  0.
        -24    2    4    4    0    0  0.11059519674E+03 -0.35043127363E+03  0.67589535120E+03  0.77331539402E+03  0.78414270274E+02 0.  0.
         24    2    4    4    0    0  0.63149299391E+02  0.54931844397E+03  0.99310168756E+03  0.11394055446E+04  0.79091379566E+02 0.  0.
         11    1    3    3    0    0 -0.18951912225E+03 -0.17335292451E+03  0.77139823997E+03  0.81303381157E+03  0.00000000000E+00 0. -1.
        -11    1    3    3    0    0  0.15774626123E+02 -0.25534245832E+02  0.83712819030E+02  0.88930718031E+02  0.00000000000E+00 0.  1.
          4    1    6    6  502    0  0.81489617356E+02  0.47111052854E+03  0.84151218954E+03  0.96784732938E+03  0.00000000000E+00 0. -1.
          3    1    5    5  503    0  0.73919044473E+02 -0.29411029617E+03  0.59750292265E+03  0.67005569472E+03  0.00000000000E+00 0. -1.
         -4    1    5    5    0  503  0.36676152265E+02 -0.56320977451E+02  0.78392428546E+02  0.10325969930E+03  0.00000000000E+00 0.  1.
         -3    1    6    6    0  502 -0.18340317965E+02  0.78207915424E+02  0.15158949802E+03  0.17155821521E+03  0.00000000000E+00 0.  1.
<mgrwt>
<rscale>  0 0.12455250E+04</rscale>
<asrwt>0</asrwt>
<pdfrwt beam="1">  1        2 0.41067639E+00 0.12455250E+04</pdfrwt>
<pdfrwt beam="2">  1       -2 0.22352107E-01 0.12455250E+04</pdfrwt>
<totfact> 0.48186912E+01</totfact>
</mgrwt>
</event>
<event>
12    1  0.1472088E-007  0.1819533E+04  0.7818608E-02  0.8695980E-01
         -2   -1    0    0    0  501 -0.00000000000E+00  0.00000000000E+00  0.40394107155E+03  0.40394107155E+03  0.00000000000E+00 0.  1.
          2   -1    0    0  501    0  0.00000000000E+00 -0.00000000000E+00 -0.20490006841E+04  0.20490006841E+04  0.00000000000E+00 0. -1.
         23    2    1    2    0    0  0.45785351008E+03  0.37053873464E+03 -0.15597376499E+03  0.61606239836E+03  0.90974022391E+02 0.  0.
        254    2    1    2    0    0 -0.45785351008E+03 -0.37053873464E+03 -0.14890858476E+04  0.18368793573E+04  0.89990017294E+03 0.  0.
        -24    2    4    4    0    0  0.50951427547E+02 -0.50314992404E+03 -0.51047763139E+03  0.72310819856E+03  0.80883624048E+02 0.  0.
         24    2    4    4    0    0 -0.50880493763E+03  0.13261118940E+03 -0.97860821618E+03  0.11137711587E+04  0.79648987091E+02 0.  0.
         13    1    3    3    0    0  0.34234792515E+03  0.31111930702E+03 -0.93612886234E+02  0.47197531452E+03  0.00000000000E+00 0.  1.
        -13    1    3    3    0    0  0.11550558494E+03  0.59419427623E+02 -0.62360878756E+02  0.14408708384E+03  0.00000000000E+00 0. -1.
          4    1    6    6  502    0 -0.89004085701E+02 -0.70489235649E+01 -0.17233482492E+03  0.19408942906E+03  0.00000000000E+00 0. -1.
          1    1    5    5  503    0  0.48108481893E+02 -0.13209099198E+03 -0.12619620155E+03  0.18891251276E+03  0.00000000000E+00 0. -1.
         -2    1    5    5    0  503  0.28429456530E+01 -0.37105893206E+03 -0.38428142984E+03  0.53419568580E+03  0.00000000000E+00 0.  1.
         -3    1    6    6    0  502 -0.41980085193E+03  0.13966011297E+03 -0.80627339126E+03  0.91968172967E+03  0.00000000000E+00 0.  1.
<mgrwt>
<rscale>  0 0.18195335E+04</rscale>
<asrwt>0</asrwt>
<pdfrwt beam="1">  1        2 0.31523087E+00 0.18195335E+04</pdfrwt>
<pdfrwt beam="2">  1       -2 0.62144781E-01 0.18195335E+04</pdfrwt>
<totfact> 0.14215825E+01</totfact>
</mgrwt>
</event>
<event>
12    1  0.1472088E-007  0.1166482E+04  0.7818608E-02  0.9142711E-01
         -1   -1    0    0    0  501 -0.00000000000E+00  0.00000000000E+00  0.40870973939E+03  0.40870973939E+03  0.00000000000E+00 0.  1.
          1   -1    0    0  501    0  0.00000000000E+00 -0.00000000000E+00 -0.83230274240E+03  0.83230274240E+03  0.00000000000E+00 0. -1.
         23    2    1    2    0    0  0.15220179887E+03  0.44022530309E+02  0.83884757571E+02  0.20125796579E+03  0.91458982538E+02 0.  0.
        254    2    1    2    0    0 -0.15220179887E+03 -0.44022530309E+02 -0.50747776058E+03  0.10397545160E+04  0.89356164045E+03 0.  0.
        -24    2    4    4    0    0  0.29429198535E+03 -0.25557599936E+03 -0.15471826847E+03  0.42693685573E+03  0.80065423867E+02 0.  0.
         24    2    4    4    0    0 -0.44649378422E+03  0.21155346905E+03 -0.35275949211E+03  0.61281766026E+03  0.83634059082E+02 0.  0.
         11    1    3    3    0    0 -0.92762193114E+01  0.13238369065E+02 -0.11020335150E+01  0.16202380630E+02  0.00000000000E+00 0. -1.
        -11    1    3    3    0    0  0.16147801818E+03  0.30784161243E+02  0.84986791086E+02  0.18505558516E+03  0.00000000000E+00 0.  1.
          2    1    6    6  502    0 -0.36883865562E+03  0.19040032235E+03 -0.25903694275E+03  0.48927944402E+03  0.00000000000E+00 0. -1.
          1    1    5    5  503    0  0.29886198391E+03 -0.25571026594E+03 -0.15335681340E+03  0.42216648108E+03  0.00000000000E+00 0. -1.
         -2    1    5    5    0  503 -0.45699985651E+01  0.13426658168E+00 -0.13614550716E+01  0.47703746512E+01  0.00000000000E+00 0.  1.
         -1    1    6    6    0  502 -0.77655128595E+02  0.21153146695E+02 -0.93722549356E+02  0.12353821623E+03  0.00000000000E+00 0.  1.
<mgrwt>
<rscale>  0 0.11664823E+04</rscale>
<asrwt>0</asrwt>
<pdfrwt beam="1">  1        1 0.12804657E+00 0.11664823E+04</pdfrwt>
<pdfrwt beam="2">  1       -1 0.62878423E-01 0.11664823E+04</pdfrwt>
<totfact> 0.52773731E+01</totfact>
</mgrwt>
</event>
<event>
12    1  0.1472088E-007  0.1471612E+04  0.7818608E-02  0.8903553E-01
         -1   -1    0    0    0  501 -0.00000000000E+00  0.00000000000E+00  0.33452395404E+03  0.33452395404E+03  0.00000000000E+00 0.  1.
          1   -1    0    0  501    0  0.00000000000E+00 -0.00000000000E+00 -0.16184512322E+04  0.16184512322E+04  0.00000000000E+00 0. -1.
         23    2    1    2    0    0  0.11942500315E+03 -0.40167428677E+03 -0.15559351725E+03  0.45623068700E+03  0.91282709867E+02 0.  0.
        254    2    1    2    0    0 -0.11942500315E+03  0.40167428677E+03 -0.11283337609E+04  0.14967444992E+04  0.88966423773E+03 0.  0.
        -24    2    4    4    0    0 -0.44956187874E+03  0.44772909882E+03 -0.70287199780E+03  0.95033792578E+03  0.80906731096E+02 0.  0.
         24    2    4    4    0    0  0.33013687559E+03 -0.46054812050E+02 -0.42546176307E+03  0.54640657340E+03  0.80193698565E+02 0.  0.
         11    1    3    3    0    0 -0.11463670078E+01 -0.17059906151E+02  0.10736909085E+02  0.20189991875E+02  0.00000000000E+00 0. -1.
        -11    1    3    3    0    0  0.12057137016E+03 -0.38461438062E+03 -0.16633042633E+03  0.43604069513E+03  0.00000000000E+00 0.  1.
          2    1    6    6  502    0  0.14628586473E+03 -0.40547845223E+02 -0.24831277513E+03  0.29103765438E+03  0.00000000000E+00 0. -1.
          1    1    5    5  503    0 -0.15292043829E+03  0.20668289232E+03 -0.26878447087E+03  0.37195103200E+03  0.00000000000E+00 0. -1.
         -2    1    5    5    0  503 -0.29664144045E+03  0.24104620651E+03 -0.43408752693E+03  0.57838689379E+03  0.00000000000E+00 0.  1.
         -1    1    6    6    0  502  0.18385101086E+03 -0.55069668265E+01 -0.17714898793E+03  0.25536891902E+03  0.00000000000E+00 0.  1.
<mgrwt>
<rscale>  0 0.14716123E+04</rscale>
<asrwt>0</asrwt>
<pdfrwt beam="1">  1        1 0.24899250E+00 0.14716123E+04</pdfrwt>
<pdfrwt beam="2">  1       -1 0.51465224E-01 0.14716123E+04</pdfrwt>
<totfact> 0.19958350E+01</totfact>
</mgrwt>
</event>
<event>
12    1  0.1472088E-007  0.3543582E+04  0.7818608E-02  0.8103539E-01
         -1   -1    0    0    0  501 -0.00000000000E+00  0.00000000000E+00  0.16455306865E+04  0.16455306865E+04  0.00000000000E+00 0.  1.
          1   -1    0    0  501    0  0.00000000000E+00 -0.00000000000E+00 -0.19077389008E+04  0.19077389008E+04  0.00000000000E+00 0. -1.
         23    2    1    2    0    0  0.27967343990E+03  0.14908515729E+04 -0.78396553469E+03  0.17099224762E+04  0.91527426638E+02 0.  0.
        254    2    1    2    0    0 -0.27967343990E+03 -0.14908515729E+04  0.52175732033E+03  0.18433471110E+04  0.90820824992E+03 0.  0.
        -24    2    4    4    0    0  0.13799420233E+03 -0.93266753666E+03  0.62535384583E+03  0.11341909152E+04  0.80065384308E+02 0.  0.
         24    2    4    4    0    0 -0.41766764223E+03 -0.55818403619E+03 -0.10359652550E+03  0.70915619587E+03  0.78451210411E+02 0.  0.
         13    1    3    3    0    0 -0.35511786887E+01  0.33505367404E+02 -0.28596042169E+02  0.44192240752E+02  0.00000000000E+00 0.  1.
        -13    1    3    3    0    0  0.28322461859E+03  0.14573462054E+04 -0.75536949252E+03  0.16657302355E+04  0.00000000000E+00 0. -1.
          4    1    6    6  502    0 -0.34432787741E+03 -0.46216213940E+03 -0.55087302408E+02  0.57895607877E+03  0.00000000000E+00 0. -1.
          3    1    5    5  503    0  0.11824348388E+03 -0.89561379098E+03  0.58718829565E+03  0.10774486896E+04  0.00000000000E+00 0. -1.
         -4    1    5    5    0  503  0.19750718453E+02 -0.37053745677E+02  0.38165550179E+02  0.56742225623E+02  0.00000000000E+00 0.  1.
         -3    1    6    6    0  502 -0.73339764820E+02 -0.96021896789E+02 -0.48509223091E+02  0.13020011710E+03  0.00000000000E+00 0.  1.
<mgrwt>
<rscale>  0 0.35435817E+04</rscale>
<asrwt>0</asrwt>
<pdfrwt beam="1">  1        1 0.29349829E+00 0.35435817E+04</pdfrwt>
<pdfrwt beam="2">  1       -1 0.25315857E+00 0.35435817E+04</pdfrwt>
<totfact> 0.18604115E-01</totfact>
</mgrwt>
</event>
<event>
12    1  0.1472088E-007  0.1209203E+04  0.7818608E-02  0.9104839E-01
         -4   -1    0    0    0  501 -0.00000000000E+00  0.00000000000E+00  0.29294536681E+03  0.29294536681E+03  0.00000000000E+00 0.  1.
          4   -1    0    0  501    0  0.00000000000E+00 -0.00000000000E+00 -0.12478205234E+04  0.12478205234E+04  0.00000000000E+00 0. -1.
         23    2    1    2    0    0  0.10343298743E+03 -0.23480536833E+02  0.90445414128E+02  0.16574530782E+03  0.89673940639E+02 0.  0.
        254    2    1    2    0    0 -0.10343298743E+03  0.23480536833E+02 -0.10453205707E+04  0.13750205824E+04  0.88698184193E+03 0.  0.
        -24    2    4    4    0    0 -0.15836403794E+03  0.25047206996E+03 -0.10820719594E+04  0.11248420014E+04  0.81082528949E+02 0.  0.
         24    2    4    4    0    0  0.54931050508E+02 -0.22699153313E+03  0.36751388713E+02  0.25017858094E+03  0.81829587341E+02 0.  0.
         11    1    3    3    0    0  0.95507668305E+02 -0.38385724845E+02  0.36487947720E+02  0.10920874006E+03  0.00000000000E+00 0. -1.
        -11    1    3    3    0    0  0.79253191231E+01  0.14905188012E+02  0.53957466408E+02  0.56536567760E+02  0.00000000000E+00 0.  1.
          2    1    6    6  502    0  0.39699497704E+02 -0.29793980220E+02  0.92563327607E+01  0.50491693094E+02  0.00000000000E+00 0. -1.
          1    1    5    5  503    0 -0.14059510132E+03  0.15369609102E+03 -0.76520430235E+03  0.79304923885E+03  0.00000000000E+00 0. -1.
         -2    1    5    5    0  503 -0.17768936612E+02  0.96775978942E+02 -0.31686765705E+03  0.33179276257E+03  0.00000000000E+00 0.  1.
         -1    1    6    6    0  502  0.15231552804E+02 -0.19719755291E+03  0.27495055952E+02  0.19968688784E+03  0.00000000000E+00 0.  1.
<mgrwt>
<rscale>  0 0.12092034E+04</rscale>
<asrwt>0</asrwt>
<pdfrwt beam="1">  1        4 0.19197239E+00 0.12092034E+04</pdfrwt>
<pdfrwt beam="2">  1       -4 0.45068519E-01 0.12092034E+04</pdfrwt>
<totfact> 0.14029815E+00</totfact>
</mgrwt>
</event>
<event>
12    1  0.1472088E-007  0.2010629E+04  0.7818608E-02  0.8601667E-01
          2   -1    0    0  501    0  0.00000000000E+00  0.00000000000E+00  0.34037001126E+04  0.34037001126E+04  0.00000000000E+00 0.  1.
         -2   -1    0    0    0  501 -0.00000000000E+00 -0.00000000000E+00 -0.29692893061E+03  0.29692893061E+03  0.00000000000E+00 0. -1.
         23    2    1    2    0    0 -0.64095632240E+03 -0.48045717533E+03  0.13273552678E+04  0.15528903647E+04  0.89063872348E+02 0.  0.
        254    2    1    2    0    0  0.64095632240E+03  0.48045717533E+03  0.17794159141E+04  0.21477386784E+04  0.89710441466E+03 0.  0.
        -24    2    4    4    0    0  0.52185315051E+03 -0.14447818581E+03  0.98551331152E+03  0.11272673180E+04  0.79312434632E+02 0.  0.
         24    2    4    4    0    0  0.11910317189E+03  0.62493536114E+03  0.79390260263E+03  0.10204713604E+04  0.79691177463E+02 0.  0.
         13    1    3    3    0    0 -0.19789467427E+03 -0.16836842078E+03  0.50677594453E+03  0.56950161122E+03  0.00000000000E+00 0. -1.
        -13    1    3    3    0    0 -0.44306164813E+03 -0.31208875455E+03  0.82057932326E+03  0.98338875351E+03  0.00000000000E+00 0.  1.
          2    1    6    6  502    0  0.13747668184E+02  0.27597512351E+03  0.35835499524E+03  0.45251471776E+03  0.00000000000E+00 0. -1.
          3    1    5    5  503    0  0.17326885000E+03 -0.16560601328E+02  0.27211244889E+03  0.32301939994E+03  0.00000000000E+00 0. -1.
         -4    1    5    5    0  503  0.34858430051E+03 -0.12791758449E+03  0.71340086263E+03  0.80424791811E+03  0.00000000000E+00 0.  1.
         -1    1    6    6    0  502  0.10535550371E+03  0.34896023764E+03  0.43554760739E+03  0.56795664264E+03  0.00000000000E+00 0.  1.
<mgrwt>
<rscale>  0 0.20106288E+04</rscale>
<asrwt>0</asrwt>
<pdfrwt beam="1">  1        2 0.52364614E+00 0.20106288E+04</pdfrwt>
<pdfrwt beam="2">  1       -2 0.45681376E-01 0.20106288E+04</pdfrwt>
<totfact> 0.40174099E+00</totfact>
</mgrwt>
</event>
<event>
12    1  0.1472088E-007  0.1626105E+04  0.7818608E-02  0.8804669E-01
          1   -1    0    0  501    0  0.00000000000E+00  0.00000000000E+00  0.80506186510E+03  0.80506186510E+03  0.00000000000E+00 0. -1.
         -1   -1    0    0    0  501 -0.00000000000E+00 -0.00000000000E+00 -0.82112276285E+03  0.82112276285E+03  0.00000000000E+00 0.  1.
         23    2    1    2    0    0  0.26340471639E+03  0.46194029836E+03 -0.19843087664E+03  0.57477387145E+03  0.90660391782E+02 0.  0.
        254    2    1    2    0    0 -0.26340471639E+03 -0.46194029836E+03  0.18236997889E+03  0.10514107565E+04  0.88850148329E+03 0.  0.
        -24    2    4    4    0    0  0.18223884410E+03 -0.53951876005E+03  0.12292926994E+03  0.58834898680E+03  0.82167123096E+02 0.  0.
         24    2    4    4    0    0 -0.44564356049E+03  0.77578461692E+02  0.59440708948E+02  0.46306176969E+03  0.79223758692E+02 0.  0.
         13    1    3    3    0    0  0.21773156209E+02  0.52202342410E+02  0.62930796007E+01  0.56910084654E+02  0.00000000000E+00 0. -1.
        -13    1    3    3    0    0  0.24163156018E+03  0.40973795595E+03 -0.20472395625E+03  0.51786378680E+03  0.00000000000E+00 0.  1.
          4    1    6    6  502    0 -0.18207009078E+03 -0.67234031809E+01  0.31927427012E+02  0.18497049144E+03  0.00000000000E+00 0. -1.
          1    1    5    5  503    0  0.14085391984E+03 -0.35848703304E+03  0.48180672570E+02  0.38816769160E+03  0.00000000000E+00 0. -1.
         -2    1    5    5    0  503  0.41384924267E+02 -0.18103172700E+03  0.74748597375E+02  0.20018129520E+03  0.00000000000E+00 0.  1.
         -3    1    6    6    0  502 -0.26357346972E+03  0.84301864873E+02  0.27513281936E+02  0.27809127826E+03  0.00000000000E+00 0.  1.
<mgrwt>
<rscale>  0 0.16261053E+04</rscale>
<asrwt>0</asrwt>
<pdfrwt beam="1">  1        1 0.12385567E+00 0.16261053E+04</pdfrwt>
<pdfrwt beam="2">  1       -1 0.12632658E+00 0.16261053E+04</pdfrwt>
<totfact> 0.11424632E+01</totfact>
</mgrwt>
</event>
<event>
12    1  0.1472088E-007  0.2745948E+04  0.7818608E-02  0.8320248E-01
         -1   -1    0    0    0  501 -0.00000000000E+00  0.00000000000E+00  0.10406444054E+04  0.10406444054E+04  0.00000000000E+00 0.  1.
          1   -1    0    0  501    0  0.00000000000E+00 -0.00000000000E+00 -0.18114335504E+04  0.18114335504E+04  0.00000000000E+00 0. -1.
         23    2    1    2    0    0  0.87032581145E+03  0.51199962595E+03  0.35063542113E+03  0.10728874466E+04  0.92366874664E+02 0.  0.
        254    2    1    2    0    0 -0.87032581145E+03 -0.51199962595E+03 -0.11214245660E+04  0.17791905092E+04  0.94250473501E+03 0.  0.
        -24    2    4    4    0    0  0.13725234335E+03 -0.28671961641E+03 -0.15415308177E+03  0.36213163622E+03  0.79560072563E+02 0.  0.
         24    2    4    4    0    0 -0.10075781548E+04 -0.22528000955E+03 -0.96727148428E+03  0.14170588729E+04  0.80479216955E+02 0.  0.
         13    1    3    3    0    0  0.85479182859E+02  0.83080706749E+02  0.32002556383E+02  0.12342308597E+03  0.00000000000E+00 0. -1.
        -13    1    3    3    0    0  0.78484662859E+03  0.42891891920E+03  0.31863286475E+03  0.94946436066E+03  0.00000000000E+00 0.  1.
          2    1    6    6  502    0 -0.33086249604E+03 -0.49375950343E+02 -0.27393479284E+03  0.43237512242E+03  0.00000000000E+00 0. -1.
          1    1    5    5  503    0  0.63832165613E+02 -0.57843540664E+02 -0.54461438486E+02  0.10191402673E+03  0.00000000000E+00 0. -1.
         -2    1    5    5    0  503  0.73420177734E+02 -0.22887607574E+03 -0.99691643282E+02  0.26021760948E+03  0.00000000000E+00 0.  1.
         -1    1    6    6    0  502 -0.67671565876E+03 -0.17590405920E+03 -0.69333669144E+03  0.98468375053E+03  0.00000000000E+00 0.  1.
<mgrwt>
<rscale>  0 0.27459484E+04</rscale>
<asrwt>0</asrwt>
<pdfrwt beam="1">  1        1 0.27868208E+00 0.27459484E+04</pdfrwt>
<pdfrwt beam="2">  1       -1 0.16009914E+00 0.27459484E+04</pdfrwt>
<totfact> 0.10153547E+00</totfact>
</mgrwt>
</event>
<event>
12    1  0.1472088E-007  0.1849141E+04  0.7818608E-02  0.8680595E-01
          1   -1    0    0  501    0  0.00000000000E+00  0.00000000000E+00  0.13603517930E+04  0.13603517930E+04  0.00000000000E+00 0.  1.
         -1   -1    0    0    0  501 -0.00000000000E+00 -0.00000000000E+00 -0.62838950358E+03  0.62838950358E+03  0.00000000000E+00 0. -1.
         23    2    1    2    0    0 -0.68409076561E+03 -0.61979795114E+02  0.12237844702E+03  0.70390127663E+03  0.93160358245E+02 0.  0.
        254    2    1    2    0    0  0.68409076561E+03  0.61979795114E+02  0.60958384245E+03  0.12848400200E+04  0.89855425291E+03 0.  0.
        -24    2    4    4    0    0  0.47070401321E+03  0.44544092566E+03  0.20945094654E+03  0.68568901642E+03  0.79497433469E+02 0.  0.
         24    2    4    4    0    0  0.21338675240E+03 -0.38346113054E+03  0.40013289591E+03  0.59915100358E+03  0.79367789218E+02 0.  0.
         11    1    3    3    0    0 -0.67387051902E+03 -0.47613627832E+02  0.11935952149E+03  0.68601401540E+03  0.00000000000E+00 0. -1.
        -11    1    3    3    0    0 -0.10220246589E+02 -0.14366167283E+02  0.30189255280E+01  0.17887261224E+02  0.00000000000E+00 0.  1.
          4    1    6    6  502    0  0.17476890848E+03 -0.33248867527E+03  0.37400929378E+03  0.53007154460E+03  0.00000000000E+00 0. -1.
          3    1    5    5  503    0  0.18963229292E+03  0.22373106421E+03  0.70194333432E+02  0.30156796922E+03  0.00000000000E+00 0. -1.
         -4    1    5    5    0  503  0.28107172029E+03  0.22170986145E+03  0.13925661311E+03  0.38412104721E+03  0.00000000000E+00 0.  1.
         -3    1    6    6    0  502  0.38617843918E+02 -0.50972455271E+02  0.26123602126E+02  0.69079458982E+02  0.00000000000E+00 0.  1.
<mgrwt>
<rscale>  0 0.18491412E+04</rscale>
<asrwt>0</asrwt>
<pdfrwt beam="1">  1        1 0.20928489E+00 0.18491412E+04</pdfrwt>
<pdfrwt beam="2">  1       -1 0.96675309E-01 0.18491412E+04</pdfrwt>
<totfact> 0.79257112E+00</totfact>
</mgrwt>
</event>
<event>
12    1  0.1472088E-007  0.1580314E+04  0.7818608E-02  0.8832734E-01
         -2   -1    0    0    0  501 -0.00000000000E+00  0.00000000000E+00  0.36098156392E+03  0.36098156392E+03  0.00000000000E+00 0.  1.
          2   -1    0    0  501    0  0.00000000000E+00 -0.00000000000E+00 -0.17295833467E+04  0.17295833467E+04  0.00000000000E+00 0. -1.
         23    2    1    2    0    0 -0.59426600670E+02 -0.45897188202E+03 -0.78622369499E+03  0.91676839824E+03  0.90165892085E+02 0.  0.
        254    2    1    2    0    0  0.59426600670E+02  0.45897188202E+03 -0.58237808781E+03  0.11737965124E+04  0.90799080723E+03 0.  0.
        -24    2    4    4    0    0 -0.28010036647E+03  0.35191653106E+03  0.33137972694E+02  0.45819841479E+03  0.80908602455E+02 0.  0.
         24    2    4    4    0    0  0.33952696714E+03  0.10705535096E+03 -0.61551606050E+03  0.71559809761E+03  0.80505943759E+02 0.  0.
         13    1    3    3    0    0 -0.42994022784E+02 -0.73108199335E+02 -0.15794428268E+03  0.17927546189E+03  0.00000000000E+00 0.  1.
        -13    1    3    3    0    0 -0.16432577886E+02 -0.38586368268E+03 -0.62827941231E+03  0.73749293635E+03  0.00000000000E+00 0. -1.
          4    1    6    6  502    0  0.28721967286E+03  0.11781188812E+03 -0.50366628890E+03  0.59165404760E+03  0.00000000000E+00 0. -1.
          1    1    5    5  503    0 -0.27415329057E+03  0.30667475765E+03  0.31006704762E+02  0.41251769592E+03  0.00000000000E+00 0. -1.
         -2    1    5    5    0  503 -0.59470759011E+01  0.45241773415E+02  0.21312679323E+01  0.45680718870E+02  0.00000000000E+00 0.  1.
         -3    1    6    6    0  502  0.52307294278E+02 -0.10756537160E+02 -0.11184977160E+03  0.12394405001E+03  0.00000000000E+00 0.  1.
<mgrwt>
<rscale>  0 0.15803135E+04</rscale>
<asrwt>0</asrwt>
<pdfrwt beam="1">  1        2 0.26608974E+00 0.15803135E+04</pdfrwt>
<pdfrwt beam="2">  1       -2 0.55535626E-01 0.15803135E+04</pdfrwt>
<totfact> 0.27625625E+01</totfact>
</mgrwt>
</event>
<event>
12    1  0.1472088E-007  0.3830968E+04  0.7818608E-02  0.8039542E-01
         -1   -1    0    0    0  501 -0.00000000000E+00  0.00000000000E+00  0.31600963660E+04  0.31600963660E+04  0.00000000000E+00 0.  1.
          1   -1    0    0  501    0  0.00000000000E+00 -0.00000000000E+00 -0.11610657679E+04  0.11610657679E+04  0.00000000000E+00 0. -1.
         23    2    1    2    0    0  0.14593465144E+04 -0.10614962292E+04  0.10715826957E+04  0.21007301859E+04  0.91166586284E+02 0.  0.
        254    2    1    2    0    0 -0.14593465144E+04  0.10614962292E+04  0.92744790239E+03  0.22204319481E+04  0.90204874078E+03 0.  0.
        -24    2    4    4    0    0 -0.74880655522E+03  0.41776309370E+03  0.91706084313E+03  0.12582228401E+04  0.82987141754E+02 0.  0.
         24    2    4    4    0    0 -0.71053995914E+03  0.64373313551E+03  0.10387059260E+02  0.96220910799E+03  0.80492814614E+02 0.  0.
         11    1    3    3    0    0  0.13242606377E+04 -0.93232431870E+03  0.94656189839E+03  0.18758662797E+04  0.00000000000E+00 0.  1.
        -11    1    3    3    0    0  0.13508587667E+03 -0.12917191051E+03  0.12502079729E+03  0.22486390617E+03  0.00000000000E+00 0. -1.
          4    1    6    6  502    0 -0.23665897472E+03  0.17948856226E+03 -0.23511088213E+02  0.29795366345E+03  0.00000000000E+00 0. -1.
          3    1    5    5  503    0 -0.12201510341E+03  0.10261202081E+03  0.18642405963E+03  0.24529745674E+03  0.00000000000E+00 0. -1.
         -4    1    5    5    0  503 -0.62679145182E+03  0.31515107289E+03  0.73063678351E+03  0.10129253833E+04  0.00000000000E+00 0.  1.
         -3    1    6    6    0  502 -0.47388098442E+03  0.46424457325E+03  0.33898147473E+02  0.66425544454E+03  0.00000000000E+00 0.  1.
<mgrwt>
<rscale>  0 0.38309684E+04</rscale>
<asrwt>0</asrwt>
<pdfrwt beam="1">  1        1 0.17862550E+00 0.38309684E+04</pdfrwt>
<pdfrwt beam="2">  1       -1 0.48616867E+00 0.38309684E+04</pdfrwt>
<totfact> 0.16641037E-02</totfact>
</mgrwt>
</event>
<event>
12    1  0.1472088E-007  0.2581105E+04  0.7818608E-02  0.8374648E-01
         -1   -1    0    0    0  501 -0.00000000000E+00  0.00000000000E+00  0.21694113575E+04  0.21694113575E+04  0.00000000000E+00 0.  1.
          1   -1    0    0  501    0  0.00000000000E+00 -0.00000000000E+00 -0.76773191154E+03  0.76773191154E+03  0.00000000000E+00 0. -1.
         23    2    1    2    0    0  0.69642906259E+03  0.65077234133E+03 -0.70051853878E+02  0.96010924348E+03  0.91566466229E+02 0.  0.
        254    2    1    2    0    0 -0.69642906259E+03 -0.65077234133E+03  0.14717312999E+04  0.19770340256E+04  0.91331946210E+03 0.  0.
        -24    2    4    4    0    0  0.18534500683E+03 -0.28009715678E+03  0.52642377826E+03  0.62967143125E+03  0.80974861652E+02 0.  0.
         24    2    4    4    0    0 -0.88177406942E+03 -0.37067518455E+03  0.94530752163E+03  0.13473625944E+04  0.82789179692E+02 0.  0.
         13    1    3    3    0    0  0.39883849272E+03  0.36497450779E+03 -0.84828550882E+02  0.54724255834E+03  0.00000000000E+00 0.  1.
        -13    1    3    3    0    0  0.29759056987E+03  0.28579783353E+03  0.14776697004E+02  0.41286668514E+03  0.00000000000E+00 0. -1.
          2    1    6    6  502    0 -0.13488966147E+03 -0.31999738179E+02  0.11225446752E+03  0.17838236879E+03  0.00000000000E+00 0. -1.
          1    1    5    5  503    0 -0.12938197318E+01 -0.37772509011E+02  0.80467065213E+02  0.88900984193E+02  0.00000000000E+00 0. -1.
         -2    1    5    5    0  503  0.18663882656E+03 -0.24232464776E+03  0.44595671305E+03  0.54077044706E+03  0.00000000000E+00 0.  1.
         -1    1    6    6    0  502 -0.74688440795E+03 -0.33867544637E+03  0.83305305411E+03  0.11689802256E+04  0.00000000000E+00 0.  1.
<mgrwt>
<rscale>  0 0.25811054E+04</rscale>
<asrwt>0</asrwt>
<pdfrwt beam="1">  1        1 0.11811260E+00 0.25811054E+04</pdfrwt>
<pdfrwt beam="2">  1       -1 0.33375559E+00 0.25811054E+04</pdfrwt>
<totfact> 0.41431821E-01</totfact>
</mgrwt>
</event>
<event>
12    1  0.1472088E-007  0.2012067E+04  0.7818608E-02  0.8601000E-01
         -2   -1    0    0    0  501 -0.00000000000E+00  0.00000000000E+00  0.63246071354E+03  0.63246071354E+03  0.00000000000E+00 0. -1.
          2   -1    0    0  501    0  0.00000000000E+00 -0.00000000000E+00 -0.16002624000E+04  0.16002624000E+04  0.00000000000E+00 0.  1.
         23    2    1    2    0    0 -0.77576056445E+03  0.18793287353E+03 -0.25506272838E+03  0.84299879747E+03  0.92014992420E+02 0.  0.
        254    2    1    2    0    0  0.77576056445E+03 -0.18793287353E+03 -0.71273895806E+03  0.13897243160E+04  0.88668688609E+03 0.  0.
        -24    2    4    4    0    0 -0.81807938019E+02 -0.26796480790E+03 -0.39151796490E+02  0.29373138484E+03  0.79041674306E+02 0.  0.
         24    2    4    4    0    0  0.85756850247E+03  0.80031934371E+02 -0.67358716157E+03  0.10959929312E+04  0.75179745059E+02 0.  0.
         11    1    3    3    0    0 -0.36201857770E+03  0.62528507915E+02 -0.15796289322E+03  0.39989941302E+03  0.00000000000E+00 0. -1.
        -11    1    3    3    0    0 -0.41374198675E+03  0.12540436561E+03 -0.97099835158E+02  0.44309938446E+03  0.00000000000E+00 0.  1.
          4    1    6    6  502    0  0.83988015425E+03  0.82808882329E+02 -0.67037364329E+03  0.10778018399E+04  0.00000000000E+00 0. -1.
          1    1    5    5  503    0 -0.83608847559E+02 -0.22144321225E+03 -0.57672925390E+02  0.24362615206E+03  0.00000000000E+00 0. -1.
         -2    1    5    5    0  503  0.18009095399E+01 -0.46521595644E+02  0.18521128900E+02  0.50105232783E+02  0.00000000000E+00 0.  1.
         -3    1    6    6    0  502  0.17688348213E+02 -0.27769479587E+01 -0.32135182786E+01  0.18191091286E+02  0.00000000000E+00 0.  1.
<mgrwt>
<rscale>  0 0.20120667E+04</rscale>
<asrwt>0</asrwt>
<pdfrwt beam="1">  1        2 0.24619422E+00 0.20120667E+04</pdfrwt>
<pdfrwt beam="2">  1       -2 0.97301648E-01 0.20120667E+04</pdfrwt>
<totfact> 0.91176018E+00</totfact>
</mgrwt>
</event>
<event>
12    1  0.2540078E-007  0.2724845E+04  0.7818608E-02  0.8326988E-01
          2   -1    0    0  501    0  0.00000000000E+00  0.00000000000E+00  0.19511769584E+04  0.19511769584E+04  0.00000000000E+00 0. -1.
         -2   -1    0    0    0  501 -0.00000000000E+00 -0.00000000000E+00 -0.95132070850E+03  0.95132070850E+03  0.00000000000E+00 0.  1.
         23    2    1    2    0    0  0.85123758175E+03  0.84430251813E+03  0.62783894786E+03  0.13555449591E+04  0.76604366439E+02 0.  0.
        254    2    1    2    0    0 -0.85123758175E+03 -0.84430251813E+03  0.37201730208E+03  0.15469527078E+04  0.90399869721E+03 0.  0.
        -24    2    4    4    0    0  0.94143625190E+02 -0.32388037906E+03 -0.10766108087E+03  0.36304824106E+03  0.80321820851E+02 0.  0.
         24    2    4    4    0    0 -0.94538120694E+03 -0.52042213907E+03  0.47967838294E+03  0.11839044668E+04  0.83388285323E+02 0.  0.
         11    1    3    3    0    0  0.83413991064E+03  0.80911656845E+03  0.61136163366E+03  0.13130963632E+04  0.00000000000E+00 0. -1.
        -11    1    3    3    0    0  0.17097671116E+02  0.35185949679E+02  0.16477314201E+02  0.42448595921E+02  0.00000000000E+00 0.  1.
          4    1    6    6  502    0 -0.40427342152E+02 -0.20078192015E+02  0.29343372570E+01  0.45233993005E+02  0.00000000000E+00 0. -1.
          3    1    5    5  503    0 -0.13601743198E+02 -0.38921979582E+02 -0.48232264101E+01  0.41511340928E+02  0.00000000000E+00 0. -1.
         -4    1    5    5    0  503  0.10774536839E+03 -0.28495839947E+03 -0.10283785446E+03  0.32153690014E+03  0.00000000000E+00 0.  1.
         -3    1    6    6    0  502 -0.90495386479E+03 -0.50034394706E+03  0.47674404568E+03  0.11386704738E+04  0.00000000000E+00 0.  1.
<mgrwt>
<rscale>  0 0.27248450E+04</rscale>
<asrwt>0</asrwt>
<pdfrwt beam="1">  1        2 0.30018107E+00 0.27248450E+04</pdfrwt>
<pdfrwt beam="2">  1       -2 0.14635703E+00 0.27248450E+04</pdfrwt>
<totfact> 0.19911981E+00</totfact>
</mgrwt>
</event>
<event>
12    1  0.1472088E-007  0.1250855E+04  0.7818608E-02  0.9069472E-01
          2   -1    0    0  501    0  0.00000000000E+00  0.00000000000E+00  0.59571726961E+03  0.59571726961E+03  0.00000000000E+00 0. -1.
         -2   -1    0    0    0  501 -0.00000000000E+00 -0.00000000000E+00 -0.65661967860E+03  0.65661967860E+03  0.00000000000E+00 0.  1.
         23    2    1    2    0    0 -0.30935221591E+03 -0.11461063471E+03  0.18641584112E+02  0.34327414563E+03  0.93033538680E+02 0.  0.
        254    2    1    2    0    0  0.30935221591E+03  0.11461063471E+03 -0.79543993104E+02  0.90906280258E+03  0.84334663165E+03 0.  0.
        -24    2    4    4    0    0 -0.96194105993E+02 -0.23677026803E+03 -0.22277179170E+03  0.34840498729E+03  0.80282614176E+02 0.  0.
         24    2    4    4    0    0  0.40554632191E+03  0.35138090274E+03  0.14322779859E+03  0.56065781529E+03  0.76724347733E+02 0.  0.
         13    1    3    3    0    0 -0.12412986683E+03  0.61647995687E+00 -0.21191940388E+01  0.12414948598E+03  0.00000000000E+00 0.  1.
        -13    1    3    3    0    0 -0.18522234908E+03 -0.11522711467E+03  0.20760778151E+02  0.21912465964E+03  0.00000000000E+00 0. -1.
          4    1    6    6  502    0  0.29287616376E+02  0.77225750018E+01 -0.31997639878E+01  0.30457201566E+02  0.00000000000E+00 0. -1.
          3    1    5    5  503    0 -0.57285250371E+02 -0.47015546467E+02 -0.65158129534E+02  0.98679498195E+02  0.00000000000E+00 0. -1.
         -4    1    5    5    0  503 -0.38908855622E+02 -0.18975472156E+03 -0.15761366216E+03  0.24972548909E+03  0.00000000000E+00 0.  1.
         -3    1    6    6    0  502  0.37625870553E+03  0.34365832774E+03  0.14642756258E+03  0.53020061372E+03  0.00000000000E+00 0.  1.
<mgrwt>
<rscale>  0 0.12508552E+04</rscale>
<asrwt>0</asrwt>
<pdfrwt beam="1">  1        2 0.91648811E-01 0.12508552E+04</pdfrwt>
<pdfrwt beam="2">  1       -2 0.10101841E+00 0.12508552E+04</pdfrwt>
<totfact> 0.39680550E+01</totfact>
</mgrwt>
</event>
<event>
12    1  0.1472088E-007  0.2642715E+04  0.7818608E-02  0.8353835E-01
          1   -1    0    0  501    0  0.00000000000E+00  0.00000000000E+00  0.23594878590E+04  0.23594878590E+04  0.00000000000E+00 0. -1.
         -1   -1    0    0    0  501 -0.00000000000E+00 -0.00000000000E+00 -0.73998510570E+03  0.73998510570E+03  0.00000000000E+00 0.  1.
         23    2    1    2    0    0 -0.25216073322E+02 -0.16376898519E+03 -0.63324531326E+03  0.66103236274E+03  0.92238966563E+02 0.  0.
        254    2    1    2    0    0  0.25216073322E+02  0.16376898519E+03  0.22527480666E+04  0.24384406020E+04  0.91851107074E+03 0.  0.
        -24    2    4    4    0    0  0.67857411253E+02 -0.32919436588E+03  0.14616138939E+04  0.15018958233E+04  0.80014564037E+02 0.  0.
         24    2    4    4    0    0 -0.42641337931E+02  0.49296335107E+03  0.79113417267E+03  0.93654477866E+03  0.79948071124E+02 0.  0.
         11    1    3    3    0    0  0.17159911094E+02 -0.59807828509E+02 -0.11486541100E+03  0.13063499356E+03  0.00000000000E+00 0. -1.
        -11    1    3    3    0    0 -0.42375984416E+02 -0.10396115668E+03 -0.51837990227E+03  0.53039736917E+03  0.00000000000E+00 0.  1.
          2    1    6    6  502    0  0.10499466899E+02  0.11495168368E+02  0.38240138102E+02  0.41287841588E+02  0.00000000000E+00 0. -1.
          3    1    5    5  503    0 -0.12915220010E+02 -0.11463307467E+03  0.54131366452E+03  0.55346908505E+03  0.00000000000E+00 0. -1.
         -4    1    5    5    0  503  0.80772631263E+02 -0.21456129121E+03  0.92030022938E+03  0.94842673826E+03  0.00000000000E+00 0.  1.
         -1    1    6    6    0  502 -0.53140804830E+02  0.48146818270E+03  0.75289403456E+03  0.89525693707E+03  0.00000000000E+00 0.  1.
<mgrwt>
<rscale>  0 0.26427152E+04</rscale>
<asrwt>0</asrwt>
<pdfrwt beam="1">  1        1 0.36299813E+00 0.26427152E+04</pdfrwt>
<pdfrwt beam="2">  1       -1 0.11384386E+00 0.26427152E+04</pdfrwt>
<totfact> 0.10450267E+00</totfact>
</mgrwt>
</event>
<event>
12    1  0.1472088E-007  0.1485862E+04  0.7818608E-02  0.8893909E-01
          2   -1    0    0  501    0  0.00000000000E+00  0.00000000000E+00  0.78260345569E+03  0.78260345569E+03  0.00000000000E+00 0. -1.
         -2   -1    0    0    0  501 -0.00000000000E+00 -0.00000000000E+00 -0.70526969636E+03  0.70526969636E+03  0.00000000000E+00 0.  1.
         23    2    1    2    0    0  0.40722574535E+03 -0.23315469029E+03  0.77391958538E+02  0.48420208306E+03  0.90929779005E+02 0.  0.
        254    2    1    2    0    0 -0.40722574535E+03  0.23315469029E+03 -0.58199215824E-01  0.10036710690E+04  0.88722133319E+03 0.  0.
        -24    2    4    4    0    0 -0.45497905620E+02  0.33857627259E+03 -0.34061722156E+03  0.48912616469E+03  0.80748755922E+02 0.  0.
         24    2    4    4    0    0 -0.36172783973E+03 -0.10542158230E+03  0.34055902234E+03  0.51454490431E+03  0.82554653404E+02 0.  0.
         13    1    3    3    0    0  0.31004909322E+03 -0.13199851843E+03  0.42418180325E+02  0.33963708734E+03  0.00000000000E+00 0.  1.
        -13    1    3    3    0    0  0.97176652131E+02 -0.10115617186E+03  0.34973778213E+02  0.14456499572E+03  0.00000000000E+00 0. -1.
          4    1    6    6  502    0 -0.30627400780E+03 -0.11258148235E+03  0.26394259634E+03  0.41969518961E+03  0.00000000000E+00 0. -1.
          1    1    5    5  503    0 -0.48614062900E+02  0.34243088614E+03 -0.33763155755E+03  0.48333974340E+03  0.00000000000E+00 0. -1.
         -2    1    5    5    0  503  0.31161572799E+01 -0.38546135465E+01 -0.29856640025E+01  0.57864212879E+01  0.00000000000E+00 0.  1.
         -3    1    6    6    0  502 -0.55453831931E+02  0.71599000428E+01  0.76616426001E+02  0.94849714695E+02  0.00000000000E+00 0.  1.
<mgrwt>
<rscale>  0 0.14858620E+04</rscale>
<asrwt>0</asrwt>
<pdfrwt beam="1">  1        2 0.12040053E+00 0.14858620E+04</pdfrwt>
<pdfrwt beam="2">  1       -2 0.10850303E+00 0.14858620E+04</pdfrwt>
<totfact> 0.23300596E+01</totfact>
</mgrwt>
</event>
<event>
12    1  0.1472088E-007  0.2203613E+04  0.7818608E-02  0.8516926E-01
          2   -1    0    0  501    0  0.00000000000E+00  0.00000000000E+00  0.96874057484E+03  0.96874057484E+03  0.00000000000E+00 0. -1.
         -2   -1    0    0    0  501 -0.00000000000E+00 -0.00000000000E+00 -0.12531505802E+04  0.12531505802E+04  0.00000000000E+00 0.  1.
         23    2    1    2    0    0 -0.81141298643E+03 -0.49445334020E+03 -0.69537527393E+02  0.95704826439E+03  0.90723604849E+02 0.  0.
        254    2    1    2    0    0  0.81141298643E+03  0.49445334020E+03 -0.21487247797E+03  0.12648428906E+04  0.80671073877E+03 0.  0.
        -24    2    4    4    0    0  0.30643567361E+03  0.64041428374E+03 -0.14094329512E+03  0.72823227690E+03  0.80149608884E+02 0.  0.
         24    2    4    4    0    0  0.50497731282E+03 -0.14596094354E+03 -0.73929182850E+02  0.53661061374E+03  0.78604982060E+02 0.  0.
         13    1    3    3    0    0 -0.33730436618E+03 -0.23657593720E+03 -0.66538623033E+02  0.41733655227E+03  0.00000000000E+00 0. -1.
        -13    1    3    3    0    0 -0.47410862025E+03 -0.25787740300E+03 -0.29989043596E+01  0.53971171212E+03  0.00000000000E+00 0.  1.
          2    1    6    6  502    0  0.46020826271E+03 -0.15204869726E+03 -0.79269038763E+02  0.49111509029E+03  0.00000000000E+00 0. -1.
          3    1    5    5  503    0  0.30807641409E+03  0.61692381715E+03 -0.14412654596E+03  0.70447039280E+03  0.00000000000E+00 0. -1.
         -4    1    5    5    0  503 -0.16407404841E+01  0.23490466590E+02  0.31832508410E+01  0.23761884098E+02  0.00000000000E+00 0.  1.
         -1    1    6    6    0  502  0.44769050111E+02  0.60877537218E+01  0.53398559126E+01  0.45495523455E+02  0.00000000000E+00 0.  1.
<mgrwt>
<rscale>  0 0.22036132E+04</rscale>
<asrwt>0</asrwt>
<pdfrwt beam="1">  1        2 0.14903701E+00 0.22036132E+04</pdfrwt>
<pdfrwt beam="2">  1       -2 0.19279240E+00 0.22036132E+04</pdfrwt>
<totfact> 0.35794799E+00</totfact>
</mgrwt>
</event>
<event>
12    1  0.1472088E-007  0.1349611E+04  0.7818608E-02  0.8991122E-01
         -1   -1    0    0    0  501 -0.00000000000E+00  0.00000000000E+00  0.60996019916E+03  0.60996019916E+03  0.00000000000E+00 0.  1.
          1   -1    0    0  501    0  0.00000000000E+00 -0.00000000000E+00 -0.74654479606E+03  0.74654479606E+03  0.00000000000E+00 0. -1.
         23    2    1    2    0    0 -0.63271576146E+02 -0.16300836910E+03  0.29599811705E+03  0.35502377035E+03  0.88611350697E+02 0.  0.
        254    2    1    2    0    0  0.63271576146E+02  0.16300836910E+03 -0.43258271395E+03  0.10014812249E+04  0.88614999781E+03 0.  0.
        -24    2    4    4    0    0 -0.39227865887E+03  0.10687044733E+03 -0.31561739732E+03  0.52038230104E+03  0.76678282638E+02 0.  0.
         24    2    4    4    0    0  0.45555023502E+03  0.56137921769E+02 -0.11696531663E+03  0.48109892383E+03  0.84248479715E+02 0.  0.
         11    1    3    3    0    0 -0.42807471354E+02 -0.18604864881E+02  0.10329544296E+03  0.11335152904E+03  0.00000000000E+00 0. -1.
        -11    1    3    3    0    0 -0.20464104792E+02 -0.14440350422E+03  0.19270267409E+03  0.24167224130E+03  0.00000000000E+00 0.  1.
          4    1    6    6  502    0  0.37245608785E+03  0.76842515810E+02 -0.10577420437E+03  0.39473597749E+03  0.00000000000E+00 0. -1.
          1    1    5    5  503    0 -0.36679736586E+03  0.91625200886E+02 -0.31254485561E+03  0.49053009266E+03  0.00000000000E+00 0. -1.
         -2    1    5    5    0  503 -0.25481293008E+02  0.15245246444E+02 -0.30725417125E+01  0.29852208379E+02  0.00000000000E+00 0.  1.
         -3    1    6    6    0  502  0.83094147166E+02 -0.20704594041E+02 -0.11191112254E+02  0.86362946343E+02  0.00000000000E+00 0.  1.
<mgrwt>
<rscale>  0 0.13496112E+04</rscale>
<asrwt>0</asrwt>
<pdfrwt beam="1">  1        1 0.11485305E+00 0.13496112E+04</pdfrwt>
<pdfrwt beam="2">  1       -1 0.93840031E-01 0.13496112E+04</pdfrwt>
<totfact> 0.26592258E+01</totfact>
</mgrwt>
</event>
<event>
12    1  0.1472088E-007  0.1587169E+04  0.7818608E-02  0.8828469E-01
          1   -1    0    0  501    0  0.00000000000E+00  0.00000000000E+00  0.16850954322E+04  0.16850954322E+04  0.00000000000E+00 0. -1.
         -1   -1    0    0    0  501 -0.00000000000E+00 -0.00000000000E+00 -0.37373353032E+03  0.37373353032E+03  0.00000000000E+00 0.  1.
         23    2    1    2    0    0 -0.45828803833E+03 -0.23823601109E+03  0.26857163812E+03  0.58923347450E+03  0.91000217650E+02 0.  0.
        254    2    1    2    0    0  0.45828803833E+03  0.23823601109E+03  0.10427902638E+04  0.14695954881E+04  0.89750489761E+03 0.  0.
        -24    2    4    4    0    0  0.46831685589E+03 -0.18753470116E+03  0.85832897920E+03  0.99851228665E+03  0.76211602772E+02 0.  0.
         24    2    4    4    0    0 -0.10028817564E+02  0.42577071225E+03  0.18446128460E+03  0.47108320143E+03  0.80697834935E+02 0.  0.
         11    1    3    3    0    0 -0.38809402481E+03 -0.22415052331E+03  0.25723044566E+03  0.51674745415E+03  0.00000000000E+00 0.  1.
        -11    1    3    3    0    0 -0.70194013517E+02 -0.14085487775E+02  0.11341192460E+02  0.72486020348E+02  0.00000000000E+00 0. -1.
          2    1    6    6  502    0  0.16238197928E+02  0.17909464724E+03  0.40738443118E+02  0.18438598778E+03  0.00000000000E+00 0. -1.
          1    1    5    5  503    0  0.79402776148E+02 -0.43835295185E+02  0.10606679191E+03  0.13955822552E+03  0.00000000000E+00 0. -1.
         -2    1    5    5    0  503  0.38891407974E+03 -0.14369940598E+03  0.75226218729E+03  0.85895406113E+03  0.00000000000E+00 0.  1.
         -1    1    6    6    0  502 -0.26267015492E+02  0.24667606500E+03  0.14372284148E+03  0.28669721365E+03  0.00000000000E+00 0.  1.
<mgrwt>
<rscale>  0 0.15871694E+04</rscale>
<asrwt>0</asrwt>
<pdfrwt beam="1">  1        1 0.25924545E+00 0.15871694E+04</pdfrwt>
<pdfrwt beam="2">  1       -1 0.57497467E-01 0.15871694E+04</pdfrwt>
<totfact> 0.14357488E+01</totfact>
</mgrwt>
</event>
<event>
12    1  0.1719450E-007  0.1506541E+04  0.7818608E-02  0.8880115E-01
         -2   -1    0    0    0  501 -0.00000000000E+00  0.00000000000E+00  0.41836395205E+03  0.41836395205E+03  0.00000000000E+00 0.  1.
          2   -1    0    0  501    0  0.00000000000E+00 -0.00000000000E+00 -0.13562742304E+04  0.13562742304E+04  0.00000000000E+00 0. -1.
         23    2    1    2    0    0  0.37658623476E+03  0.29769363918E+03 -0.30652121547E+03  0.57708868486E+03  0.92937611570E+02 0.  0.
        254    2    1    2    0    0 -0.37658623476E+03 -0.29769363918E+03 -0.63138906293E+03  0.11975494976E+04  0.89723684469E+03 0.  0.
        -24    2    4    4    0    0 -0.44483617204E+03 -0.51233846894E+03 -0.21107551734E+03  0.71514581067E+03  0.80689093292E+02 0.  0.
         24    2    4    4    0    0  0.68249937281E+02  0.21464482977E+03 -0.42031354559E+03  0.48240368697E+03  0.72934105255E+02 0.  0.
         11    1    3    3    0    0 -0.43790068273E+01  0.97736537207E+01 -0.11799478790E+02  0.15935109274E+02  0.00000000000E+00 0. -1.
        -11    1    3    3    0    0  0.38096524159E+03  0.28791998546E+03 -0.29472173668E+03  0.56115357559E+03  0.00000000000E+00 0.  1.
          2    1    6    6  502    0 -0.33658565819E+01 -0.37503619977E+01 -0.21681092867E+02  0.22259020498E+02  0.00000000000E+00 0. -1.
          3    1    5    5  503    0 -0.85552359438E+01 -0.32535510738E+02 -0.19755492719E+02  0.39013215884E+02  0.00000000000E+00 0. -1.
         -4    1    5    5    0  503 -0.43628093610E+03 -0.47980295820E+03 -0.19132002462E+03  0.67613259478E+03  0.00000000000E+00 0.  1.
         -1    1    6    6    0  502  0.71615793863E+02  0.21839519176E+03 -0.39863245272E+03  0.46014466647E+03  0.00000000000E+00 0.  1.
<mgrwt>
<rscale>  0 0.15065407E+04</rscale>
<asrwt>0</asrwt>
<pdfrwt beam="1">  1        2 0.20865758E+00 0.15065407E+04</pdfrwt>
<pdfrwt beam="2">  1       -2 0.64363684E-01 0.15065407E+04</pdfrwt>
<totfact> 0.33017050E+01</totfact>
</mgrwt>
</event>
<event>
12    1  0.1472088E-007  0.1465281E+04  0.7818608E-02  0.8907875E-01
          2   -1    0    0  501    0  0.00000000000E+00  0.00000000000E+00  0.39606906959E+03  0.39606906959E+03  0.00000000000E+00 0. -1.
         -2   -1    0    0    0  501 -0.00000000000E+00 -0.00000000000E+00 -0.13552226401E+04  0.13552226401E+04  0.00000000000E+00 0.  1.
         23    2    1    2    0    0 -0.10252412946E+03  0.35788706607E+03 -0.59779999868E+03  0.71020458390E+03  0.91822455799E+02 0.  0.
        254    2    1    2    0    0  0.10252412946E+03 -0.35788706607E+03 -0.36135357179E+03  0.10410871257E+04  0.90260270904E+03 0.  0.
        -24    2    4    4    0    0 -0.38669764789E+03 -0.13292238813E+03 -0.24876799739E+03  0.48531833021E+03  0.80280339847E+02 0.  0.
         24    2    4    4    0    0  0.48922177735E+03 -0.22496467794E+03 -0.11258557440E+03  0.55576879554E+03  0.79097337352E+02 0.  0.
         13    1    3    3    0    0 -0.34172469610E+02  0.96155114282E+02 -0.24676563926E+03  0.26703341439E+03  0.00000000000E+00 0.  1.
        -13    1    3    3    0    0 -0.68351659852E+02  0.26173195179E+03 -0.35103435943E+03  0.44317116952E+03  0.00000000000E+00 0. -1.
          2    1    6    6  502    0  0.36204616752E+03 -0.15110948066E+03 -0.11452729943E+03  0.40869059798E+03  0.00000000000E+00 0. -1.
          1    1    5    5  503    0 -0.34335889195E+03 -0.11069163336E+03 -0.18605471604E+03  0.40591171914E+03  0.00000000000E+00 0. -1.
         -2    1    5    5    0  503 -0.43338755937E+02 -0.22230754774E+02 -0.62713281347E+02  0.79406611068E+02  0.00000000000E+00 0.  1.
         -1    1    6    6    0  502  0.12717560983E+03 -0.73855197282E+02  0.19417250325E+01  0.14707819756E+03  0.00000000000E+00 0.  1.
<mgrwt>
<rscale>  0 0.14652805E+04</rscale>
<asrwt>0</asrwt>
<pdfrwt beam="1">  1        2 0.60933702E-01 0.14652805E+04</pdfrwt>
<pdfrwt beam="2">  1       -2 0.20849579E+00 0.14652805E+04</pdfrwt>
<totfact> 0.91131422E+00</totfact>
</mgrwt>
</event>
