<event>
12    1  0.2404191E-008  0.1310030E+04  0.7818608E-02  0.9021649E-01
          2   -1    0    0  501    0  0.00000000000E+00  0.00000000000E+00  0.18775234814E+04  0.18775234814E+04  0.00000000000E+00 0.  1.
         -2   -1    0    0    0  501 -0.00000000000E+00 -0.00000000000E+00 -0.22851613480E+03  0.22851613480E+03  0.00000000000E+00 0. -1.
         23    2    1    2    0    0  0.10525312666E+03  0.29449499243E+02  0.97653471628E+03  0.98696436267E+03  0.92374820169E+02 0.  0.
        254    2    1    2    0    0 -0.10525312666E+03 -0.29449499243E+02  0.67247263036E+03  0.11190752536E+04  0.88778628672E+03 0.  0.
        -24    2    4    4    0    0 -0.48723334349E+02  0.41669214511E+03  0.38694732325E+03  0.57655212492E+03  0.81717896931E+02 0.  0.
         24    2    4    4    0    0 -0.56529792310E+02 -0.44614164435E+03  0.28552530711E+03  0.54252312865E+03  0.10280398763E+03 0.  0.
         11    1    3    3    0    0  0.45586120175E+02 -0.11552501968E+02  0.14844575248E+03  0.15571671741E+03  0.00000000000E+00 0. -1.
        -11    1    3    3    0    0  0.59667006484E+02  0.41002001211E+02  0.82808896380E+03  0.83124764525E+03  0.00000000000E+00 0.  1.
          2    1    6    6  502    0  0.37938212924E+01 -0.64716730432E+02  0.86470853439E+02  0.10807338605E+03  0.00000000000E+00 0. -1.
          3    1    5    5  503    0 -0.29260733746E+02  0.37772775268E+02  0.37645748156E+02  0.60829067435E+02  0.00000000000E+00 0. -1.
         -4    1    5    5    0  503 -0.19462600603E+02  0.37891936984E+03  0.34930157509E+03  0.51572305748E+03  0.00000000000E+00 0.  1.
         -1    1    6    6    0  502 -0.60323613603E+02 -0.38142491392E+03  0.19905445367E+03  0.43444974260E+03  0.00000000000E+00 0.  1.
<mgrwt>
<rscale>  0 0.13100296E+04</rscale>
<asrwt>0</asrwt>
<pdfrwt beam="1">  1        2 0.28884976E+00 0.13100296E+04</pdfrwt>
<pdfrwt beam="2">  1       -2 0.35156330E-01 0.13100296E+04</pdfrwt>
<totfact> 0.58161268E+01</totfact>
</mgrwt>
</event>
<event>
11    1  0.2404191E-008  0.1940935E+04  0.7818608E-02  0.8634744E-01
         -1   -1    0    0    0  501 -0.00000000000E+00  0.00000000000E+00  0.73208433258E+03  0.73208433258E+03  0.00000000000E+00 0.  1.
          1   -1    0    0  501    0  0.00000000000E+00 -0.00000000000E+00 -0.12864741864E+04  0.12864741864E+04  0.00000000000E+00 0. -1.
         23    2    1    2    0    0 -0.22127107404E+03 -0.37511055707E+03  0.42497198369E+03  0.61523493659E+03  0.90796597141E+02 0.  0.
        254    2    1    2    0    0  0.22127107404E+03  0.37511055707E+03 -0.97936183752E+03  0.14033235824E+04  0.90581380530E+03 0.  0.
        -24    2    4    4    0    0  0.14341189882E+03 -0.21381476861E+03 -0.24908718440E+03  0.36762715691E+03  0.82592814881E+02 0.  0.
         11    1    3    3    0    0 -0.16633606636E+01  0.48597711201E+01  0.10002605141E+02  0.11244387651E+02  0.00000000000E+00 0. -1.
        -11    1    3    3    0    0 -0.21960771338E+03 -0.37997032819E+03  0.41496937855E+03  0.60399054894E+03  0.00000000000E+00 0.  1.
          4    1    4    4  502    0 -0.49701650031E+02  0.56051596744E+03 -0.70592440961E+03  0.90276113997E+03  0.00000000000E+00 0. -1.
          1    1    5    5  503    0  0.13294906084E+03 -0.13992422584E+03 -0.15506104000E+03  0.24758466811E+03  0.00000000000E+00 0. -1.
         -2    1    5    5    0  503  0.10462837984E+02 -0.73890542763E+02 -0.94026144394E+02  0.12004248880E+03  0.00000000000E+00 0.  1.
         -3    1    4    4    0  502  0.12756082525E+03  0.28409358241E+02 -0.24350243517E+02  0.13293528551E+03  0.00000000000E+00 0.  1.
<mgrwt>
<rscale>  0 0.19409354E+04</rscale>
<asrwt>0</asrwt>
<pdfrwt beam="1">  1        1 0.19791910E+00 0.19409354E+04</pdfrwt>
<pdfrwt beam="2">  1       -1 0.11262836E+00 0.19409354E+04</pdfrwt>
<totfact> 0.62228921E+00</totfact>
</mgrwt>
</event>
<event>
11    1  0.2404191E-008  0.1375829E+04  0.7818608E-02  0.8971503E-01
         -2   -1    0    0    0  501 -0.00000000000E+00  0.00000000000E+00  0.88070823183E+03  0.88070823183E+03  0.00000000000E+00 0.  1.
          2   -1    0    0  501    0  0.00000000000E+00 -0.00000000000E+00 -0.53732472201E+03  0.53732472201E+03  0.00000000000E+00 0. -1.
         23    2    1    2    0    0  0.19670702419E+03  0.26279417929E+03  0.29366079369E+03  0.44727248967E+03  0.77856176621E+02 0.  0.
        254    2    1    2    0    0 -0.19670702419E+03 -0.26279417929E+03  0.49722716128E+02  0.97076046417E+03  0.91222206521E+03 0.  0.
        -24    2    4    4    0    0 -0.24949177899E+03 -0.60266724916E+02 -0.38460504802E+03  0.46871029603E+03  0.76746809216E+02 0.  0.
         13    1    3    3    0    0  0.92172640608E+02  0.83452787473E+02  0.14996207001E+03  0.19480448110E+03  0.00000000000E+00 0.  1.
        -13    1    3    3    0    0  0.10453438358E+03  0.17934139182E+03  0.14369872368E+03  0.25246800858E+03  0.00000000000E+00 0. -1.
          2    1    4    4  502    0  0.37419993453E+02  0.32219682377E+01  0.29798662965E+02  0.47943688885E+02  0.00000000000E+00 0. -1.
          1    1    5    5  503    0 -0.16325028720E+02 -0.69605132288E+01 -0.25041470022E+01  0.17922780458E+02  0.00000000000E+00 0. -1.
         -2    1    5    5    0  503 -0.23316675027E+03 -0.53306211687E+02 -0.38210090102E+03  0.45078751557E+03  0.00000000000E+00 0.  1.
         -1    1    4    4    0  502  0.15364761350E+02 -0.20574942261E+03  0.40452910118E+03  0.45410647925E+03  0.00000000000E+00 0.  1.
<mgrwt>
<rscale>  0 0.13758289E+04</rscale>
<asrwt>0</asrwt>
<pdfrwt beam="1">  1        2 0.82665342E-01 0.13758289E+04</pdfrwt>
<pdfrwt beam="2">  1       -2 0.13549357E+00 0.13758289E+04</pdfrwt>
<totfact> 0.21553041E+01</totfact>
</mgrwt>
</event>
<event>
12    1  0.2404191E-008  0.1192670E+04  0.7818608E-02  0.9119297E-01
         -2   -1    0    0    0  501 -0.00000000000E+00  0.00000000000E+00  0.22155138919E+03  0.22155138919E+03  0.00000000000E+00 0. -1.
          2   -1    0    0  501    0  0.00000000000E+00 -0.00000000000E+00 -0.16051144962E+04  0.16051144962E+04  0.00000000000E+00 0.  1.
         23    2    1    2    0    0  0.44713132782E+02  0.21399666191E+03 -0.44234485511E+03  0.50147757042E+03  0.89537406934E+02 0.  0.
        254    2    1    2    0    0 -0.44713132782E+02 -0.21399666191E+03 -0.94121825189E+03  0.13251883150E+04  0.90688391588E+03 0.  0.
        -24    2    4    4    0    0 -0.37645029412E+03 -0.26951076692E+03 -0.21189814411E+03  0.51538193528E+03  0.79792470284E+02 0.  0.
         24    2    4    4    0    0  0.33173716133E+03  0.55514105005E+02 -0.72932010778E+03  0.80980637968E+03  0.10366866883E+03 0.  0.
         13    1    3    3    0    0 -0.97475242947E+01  0.80752010953E+02 -0.92491679948E+02  0.12316903979E+03  0.00000000000E+00 0. -1.
        -13    1    3    3    0    0  0.54460657077E+02  0.13324465096E+03 -0.34985317516E+03  0.37830853063E+03  0.00000000000E+00 0.  1.
          4    1    6    6  502    0  0.21786002844E+03  0.29668138356E+02 -0.57980255203E+03  0.62009208168E+03  0.00000000000E+00 0. -1.
          1    1    5    5  503    0 -0.16893984478E+03 -0.99797945829E+02 -0.12885116221E+03  0.23474011832E+03  0.00000000000E+00 0. -1.
         -2    1    5    5    0  503 -0.20751044934E+03 -0.16971282109E+03 -0.83046981898E+02  0.28064181696E+03  0.00000000000E+00 0.  1.
         -3    1    6    6    0  502  0.11387713289E+03  0.25845966650E+02 -0.14951755575E+03  0.18971429800E+03  0.00000000000E+00 0.  1.
<mgrwt>
<rscale>  0 0.11926699E+04</rscale>
<asrwt>0</asrwt>
<pdfrwt beam="1">  1        2 0.24694069E+00 0.11926699E+04</pdfrwt>
<pdfrwt beam="2">  1       -2 0.34084830E-01 0.11926699E+04</pdfrwt>
<totfact> 0.88101994E+01</totfact>
</mgrwt>
</event>
<event>
12    1  0.2404191E-008  0.2442169E+04  0.7818608E-02  0.8423883E-01
          2   -1    0    0  501    0  0.00000000000E+00  0.00000000000E+00  0.74971018357E+03  0.74971018357E+03  0.00000000000E+00 0.  1.
         -2   -1    0    0    0  501 -0.00000000000E+00 -0.00000000000E+00 -0.19888311602E+04  0.19888311602E+04  0.00000000000E+00 0. -1.
         23    2    1    2    0    0 -0.10002028671E+04  0.22524601159E+03 -0.27100028805E+03  0.10643808931E+04  0.91235893293E+02 0.  0.
        254    2    1    2    0    0  0.10002028671E+04 -0.22524601159E+03 -0.96812068860E+03  0.16741604507E+04  0.90244889378E+03 0.  0.
        -24    2    4    4    0    0  0.92177828805E+03 -0.51457231131E+03 -0.75582073458E+03  0.13008218961E+04  0.80079626898E+02 0.  0.
         24    2    4    4    0    0  0.78424579095E+02  0.28932629972E+03 -0.21229995401E+03  0.37333855463E+03  0.66710445787E+02 0.  0.
         11    1    3    3    0    0 -0.70437997868E+03  0.18395814870E+03 -0.22628226484E+03  0.76236173712E+03  0.00000000000E+00 0. -1.
        -11    1    3    3    0    0 -0.29582288847E+03  0.41287862886E+02 -0.44718023209E+02  0.30201915595E+03  0.00000000000E+00 0.  1.
          2    1    6    6  502    0  0.37218558473E+02  0.14376716053E+03 -0.64718550675E+02  0.16199601336E+03  0.00000000000E+00 0. -1.
          1    1    5    5  503    0  0.50615559058E+03 -0.29653967430E+03 -0.46620152329E+03  0.74931510103E+03  0.00000000000E+00 0. -1.
         -2    1    5    5    0  503  0.41562269747E+03 -0.21803263701E+03 -0.28961921129E+03  0.55150679507E+03  0.00000000000E+00 0.  1.
         -1    1    6    6    0  502  0.41206020622E+02  0.14555913919E+03 -0.14758140334E+03  0.21134254127E+03  0.00000000000E+00 0.  1.
<mgrwt>
<rscale>  0 0.24421687E+04</rscale>
<asrwt>0</asrwt>
<pdfrwt beam="1">  1        2 0.11534003E+00 0.24421687E+04</pdfrwt>
<pdfrwt beam="2">  1       -2 0.30597402E+00 0.24421687E+04</pdfrwt>
<totfact> 0.98246495E-01</totfact>
</mgrwt>
</event>
<event>
12    1  0.2404191E-008  0.1882805E+04  0.7818608E-02  0.8663463E-01
          2   -1    0    0  501    0  0.00000000000E+00  0.00000000000E+00  0.91828293804E+03  0.91828293804E+03  0.00000000000E+00 0. -1.
         -2   -1    0    0    0  501 -0.00000000000E+00 -0.00000000000E+00 -0.96510397707E+03  0.96510397707E+03  0.00000000000E+00 0.  1.
         23    2    1    2    0    0  0.79879186525E+02  0.52630125783E+03  0.46611232439E+03  0.71326060233E+03  0.90034934712E+02 0.  0.
        254    2    1    2    0    0 -0.79879186525E+02 -0.52630125783E+03 -0.51293336342E+03  0.11701263128E+04  0.90703983050E+03 0.  0.
        -24    2    4    4    0    0  0.26239277050E+03 -0.17550835133E+03 -0.58532731794E+03  0.67002636314E+03  0.81695231066E+02 0.  0.
         24    2    4    4    0    0 -0.34227195702E+03 -0.35079290650E+03  0.72393954521E+02  0.50009994964E+03  0.68215241400E+02 0.  0.
         13    1    3    3    0    0  0.68300035355E+01  0.82954201076E+02  0.12021330593E+03  0.14621657685E+03  0.00000000000E+00 0. -1.
        -13    1    3    3    0    0  0.73049182990E+02  0.44334705675E+03  0.34589901846E+03  0.56704402548E+03  0.00000000000E+00 0.  1.
          4    1    6    6  502    0 -0.62970216536E+02 -0.76035008622E+02 -0.11603799891E+02  0.99404320222E+02  0.00000000000E+00 0. -1.
          1    1    5    5  503    0  0.12965926595E+03 -0.13447525239E+03 -0.35082310367E+03  0.39745687668E+03  0.00000000000E+00 0. -1.
         -2    1    5    5    0  503  0.13273350455E+03 -0.41033098943E+02 -0.23450421426E+03  0.27256948646E+03  0.00000000000E+00 0.  1.
         -3    1    6    6    0  502 -0.27930174049E+03 -0.27475789788E+03  0.83997754412E+02  0.40069562941E+03  0.00000000000E+00 0.  1.
<mgrwt>
<rscale>  0 0.18828048E+04</rscale>
<asrwt>0</asrwt>
<pdfrwt beam="1">  1        2 0.14127430E+00 0.18828048E+04</pdfrwt>
<pdfrwt beam="2">  1       -2 0.14847753E+00 0.18828048E+04</pdfrwt>
<totfact> 0.82265135E+00</totfact>
</mgrwt>
</event>
<event>
12    1  0.2404191E-008  0.2285313E+04  0.7818608E-02  0.8483734E-01
          2   -1    0    0  501    0  0.00000000000E+00  0.00000000000E+00  0.24065740909E+04  0.24065740909E+04  0.00000000000E+00 0.  1.
         -2   -1    0    0    0  501 -0.00000000000E+00 -0.00000000000E+00 -0.54254064480E+03  0.54254064480E+03  0.00000000000E+00 0. -1.
         23    2    1    2    0    0  0.93641289740E+03 -0.26186514900E+03  0.97120797885E+03  0.13770256010E+04  0.86672353870E+02 0.  0.
        254    2    1    2    0    0 -0.93641289740E+03  0.26186514900E+03  0.89282546730E+03  0.15720891347E+04  0.85374730562E+03 0.  0.
        -24    2    4    4    0    0 -0.60022966478E+03 -0.25067353945E+03  0.32534352711E+03  0.73164876547E+03  0.79678300206E+02 0.  0.
         24    2    4    4    0    0 -0.33618323262E+03  0.51253868845E+03  0.56748194019E+03  0.84044036928E+03  0.92677876606E+02 0.  0.
         11    1    3    3    0    0  0.90433392557E+02 -0.19808318932E+02  0.60068667295E+02  0.11035765845E+03  0.00000000000E+00 0. -1.
        -11    1    3    3    0    0  0.84597950485E+03 -0.24205683007E+03  0.91113931156E+03  0.12666679425E+04  0.00000000000E+00 0.  1.
          4    1    6    6  502    0 -0.27503323594E+03  0.46099025254E+03  0.46320013759E+03  0.70902021218E+03  0.00000000000E+00 0. -1.
          3    1    5    5  503    0 -0.41517326790E+03 -0.21191587040E+03  0.22478697272E+03  0.51750010784E+03  0.00000000000E+00 0. -1.
         -4    1    5    5    0  503 -0.18505639688E+03 -0.38757669046E+02  0.10055655439E+03  0.21414865764E+03  0.00000000000E+00 0.  1.
         -3    1    6    6    0  502 -0.61149996688E+02  0.51548435910E+02  0.10428180260E+03  0.13142015710E+03  0.00000000000E+00 0.  1.
<mgrwt>
<rscale>  0 0.22853133E+04</rscale>
<asrwt>0</asrwt>
<pdfrwt beam="1">  1        2 0.37024216E+00 0.22853133E+04</pdfrwt>
<pdfrwt beam="2">  1       -2 0.83467793E-01 0.22853133E+04</pdfrwt>
<totfact> 0.44921472E+00</totfact>
</mgrwt>
</event>
<event>
11    1  0.2404191E-008  0.1813613E+04  0.7818608E-02  0.8699094E-01
          1   -1    0    0  501    0  0.00000000000E+00  0.00000000000E+00  0.11663753947E+04  0.11663753947E+04  0.00000000000E+00 0. -1.
         -1   -1    0    0    0  501 -0.00000000000E+00 -0.00000000000E+00 -0.70500261647E+03  0.70500261647E+03  0.00000000000E+00 0.  1.
         23    2    1    2    0    0  0.28638858296E+03  0.59977598105E+02 -0.45696300827E+03  0.55008823878E+03  0.90366734999E+02 0.  0.
        254    2    1    2    0    0 -0.28638858296E+03 -0.59977598105E+02  0.91833578650E+03  0.13212897724E+04  0.90379771693E+03 0.  0.
        -24    2    4    4    0    0 -0.38414401669E+03  0.29027115849E+03  0.63445150642E+03  0.80037904327E+03  0.79081779786E+02 0.  0.
         13    1    3    3    0    0  0.11206481924E+03  0.57337833409E+02 -0.24658731439E+03  0.27685999074E+03  0.00000000000E+00 0. -1.
        -13    1    3    3    0    0  0.17432376372E+03  0.26397646953E+01 -0.21037569388E+03  0.27322824805E+03  0.00000000000E+00 0.  1.
          4    1    4    4  502    0 -0.77613824500E+02 -0.15562319011E+03  0.97239596984E+02  0.19924362543E+03  0.00000000000E+00 0. -1.
          1    1    5    5  503    0 -0.20652635658E+03  0.16489002585E+03  0.41082109033E+03  0.48848318789E+03  0.00000000000E+00 0. -1.
         -2    1    5    5    0  503 -0.17761766011E+03  0.12538113264E+03  0.22363041610E+03  0.31189585539E+03  0.00000000000E+00 0.  1.
         -3    1    4    4    0  502  0.17536925823E+03 -0.19462556649E+03  0.18664468309E+03  0.32166710368E+03  0.00000000000E+00 0.  1.
<mgrwt>
<rscale>  0 0.18136126E+04</rscale>
<asrwt>0</asrwt>
<pdfrwt beam="1">  1        1 0.17944237E+00 0.18136126E+04</pdfrwt>
<pdfrwt beam="2">  1       -1 0.10846194E+00 0.18136126E+04</pdfrwt>
<totfact> 0.84130491E+00</totfact>
</mgrwt>
</event>
<event>
11    1  0.2404191E-008  0.1698894E+04  0.7818608E-02  0.8761995E-01
          1   -1    0    0  501    0  0.00000000000E+00  0.00000000000E+00  0.29143473844E+04  0.29143473844E+04  0.00000000000E+00 0. -1.
         -1   -1    0    0    0  501 -0.00000000000E+00 -0.00000000000E+00 -0.24758909423E+03  0.24758909423E+03  0.00000000000E+00 0.  1.
         23    2    1    2    0    0 -0.59399135747E+03  0.11455609954E+02  0.11322054423E+04  0.12819035828E+04  0.91818669745E+02 0.  0.
        254    2    1    2    0    0  0.59399135747E+03 -0.11455609954E+02  0.15345528478E+04  0.18800328958E+04  0.90923829823E+03 0.  0.
        -24    2    4    4    0    0  0.29155824351E+03  0.23181506235E+03  0.13099130347E+04  0.13641139332E+04  0.78678027088E+02 0.  0.
         13    1    3    3    0    0 -0.52106460772E+03 -0.20237583903E+02  0.97146016052E+03  0.11025664282E+04  0.00000000000E+00 0.  1.
        -13    1    3    3    0    0 -0.72926749749E+02  0.31693193857E+02  0.16074528182E+03  0.17933715453E+03  0.00000000000E+00 0. -1.
          2    1    4    4  502    0  0.32464173546E+03 -0.22026453212E+03  0.12572726067E+03  0.41196609641E+03  0.00000000000E+00 0. -1.
          3    1    5    5  503    0  0.29407203711E+03  0.22876290311E+03  0.13073486488E+04  0.13594010881E+04  0.00000000000E+00 0. -1.
         -4    1    5    5    0  503 -0.25137936049E+01  0.30521592415E+01  0.25643859035E+01  0.47128451476E+01  0.00000000000E+00 0.  1.
         -1    1    4    4    0  502 -0.22208621502E+02 -0.23006140183E+02  0.98912552481E+02  0.10395286621E+03  0.00000000000E+00 0.  1.
<mgrwt>
<rscale>  0 0.16988945E+04</rscale>
<asrwt>0</asrwt>
<pdfrwt beam="1">  1        1 0.44836111E+00 0.16988945E+04</pdfrwt>
<pdfrwt beam="2">  1       -1 0.38090632E-01 0.16988945E+04</pdfrwt>
<totfact> 0.43875347E+00</totfact>
</mgrwt>
</event>
<event>
11    1  0.2404191E-008  0.1836689E+04  0.7818608E-02  0.8687028E-01
         -1   -1    0    0    0  501 -0.00000000000E+00  0.00000000000E+00  0.59065831241E+03  0.59065831241E+03  0.00000000000E+00 0.  1.
          1   -1    0    0  501    0  0.00000000000E+00 -0.00000000000E+00 -0.14278254463E+04  0.14278254463E+04  0.00000000000E+00 0. -1.
         23    2    1    2    0    0  0.46557294661E+03 -0.32925227445E+03  0.94134405475E+02  0.58502773556E+03  0.90724507365E+02 0.  0.
        254    2    1    2    0    0 -0.46557294661E+03  0.32925227445E+03 -0.93130153934E+03  0.14334560231E+04  0.92860561285E+03 0.  0.
        -24    2    4    4    0    0 -0.15911624153E+03  0.60677933359E+03 -0.59459864392E+03  0.86803913106E+03  0.80282300078E+02 0.  0.
         11    1    3    3    0    0  0.14616518599E+03 -0.79752316910E+02  0.64769559788E+02  0.17866110244E+03  0.00000000000E+00 0. -1.
        -11    1    3    3    0    0  0.31940776062E+03 -0.24949995754E+03  0.29364845686E+02  0.40636663313E+03  0.00000000000E+00 0.  1.
          2    1    4    4  502    0 -0.24554299284E+03 -0.29613328283E+03 -0.31779128550E+03  0.49897653620E+03  0.00000000000E+00 0. -1.
          1    1    5    5  503    0 -0.15938149356E+03  0.55332719921E+03 -0.51732320926E+03  0.77407800170E+03  0.00000000000E+00 0. -1.
         -2    1    5    5    0  503  0.26525202744E+00  0.53452134376E+02 -0.77275434663E+02  0.93961129359E+02  0.00000000000E+00 0.  1.
         -1    1    4    4    0  502 -0.60913712241E+02  0.18606223691E+02 -0.18911609914E+02  0.66440355873E+02  0.00000000000E+00 0.  1.
<mgrwt>
<rscale>  0 0.18366894E+04</rscale>
<asrwt>0</asrwt>
<pdfrwt beam="1">  1        1 0.21966545E+00 0.18366894E+04</pdfrwt>
<pdfrwt beam="2">  1       -1 0.90870511E-01 0.18366894E+04</pdfrwt>
<totfact> 0.81698319E+00</totfact>
</mgrwt>
</event>
<event>
12    1  0.2404191E-008  0.1100887E+04  0.7818608E-02  0.9204328E-01
         -1   -1    0    0    0  501 -0.00000000000E+00  0.00000000000E+00  0.55968791328E+03  0.55968791328E+03  0.00000000000E+00 0.  1.
          1   -1    0    0  501    0  0.00000000000E+00 -0.00000000000E+00 -0.54135160827E+03  0.54135160827E+03  0.00000000000E+00 0. -1.
         23    2    1    2    0    0  0.36047698627E+02  0.48191830573E+01 -0.17672795488E+03  0.20178934443E+03  0.90352135485E+02 0.  0.
        254    2    1    2    0    0 -0.36047698627E+02 -0.48191830573E+01  0.19506425990E+03  0.89925017712E+03  0.87708503263E+03 0.  0.
        -24    2    4    4    0    0 -0.61495508739E+02 -0.22238893984E+03  0.47354193182E+03  0.53277860541E+03  0.79828209505E+02 0.  0.
         24    2    4    4    0    0  0.25447810111E+02  0.21756975679E+03 -0.27847767192E+03  0.36647157171E+03  0.93634443477E+02 0.  0.
         11    1    3    3    0    0 -0.60903764479E+01  0.40013194070E+02 -0.55324960251E+02  0.68549249534E+02  0.00000000000E+00 0. -1.
        -11    1    3    3    0    0  0.42138075075E+02 -0.35194011012E+02 -0.12140299463E+03  0.13324009490E+03  0.00000000000E+00 0.  1.
          2    1    6    6  502    0 -0.25240366101E+02  0.13966508891E+03 -0.19745639803E+03  0.24317163129E+03  0.00000000000E+00 0. -1.
          3    1    5    5  503    0  0.99182380888E+01 -0.68272620820E+02  0.19138085509E+03  0.20343587171E+03  0.00000000000E+00 0. -1.
         -4    1    5    5    0  503 -0.71413746827E+02 -0.15411631902E+03  0.28216107673E+03  0.32934273371E+03  0.00000000000E+00 0.  1.
         -1    1    6    6    0  502  0.50688176213E+02  0.77904667873E+02 -0.81021273893E+02  0.12329994042E+03  0.00000000000E+00 0.  1.
<mgrwt>
<rscale>  0 0.11008868E+04</rscale>
<asrwt>0</asrwt>
<pdfrwt beam="1">  1        1 0.83284863E-01 0.11008868E+04</pdfrwt>
<pdfrwt beam="2">  1       -1 0.86105833E-01 0.11008868E+04</pdfrwt>
<totfact> 0.52646567E+01</totfact>
</mgrwt>
</event>
<event>
11    1  0.2404191E-008  0.1260822E+04  0.7818608E-02  0.9061224E-01
          1   -1    0    0  501    0  0.00000000000E+00  0.00000000000E+00  0.33740650495E+03  0.33740650495E+03  0.00000000000E+00 0. -1.
         -1   -1    0    0    0  501 -0.00000000000E+00 -0.00000000000E+00 -0.11778619510E+04  0.11778619510E+04  0.00000000000E+00 0.  1.
         23    2    1    2    0    0 -0.23948229833E+03  0.12856935927E+03 -0.34870794961E+03  0.45135431703E+03  0.90783445792E+02 0.  0.
        254    2    1    2    0    0  0.23948229833E+03 -0.12856935927E+03 -0.49174749643E+03  0.10639141389E+04  0.90344664665E+03 0.  0.
        -24    2    4    4    0    0  0.35524933987E+03  0.24634483811E+03 -0.34333674173E+03  0.55791942307E+03  0.80660347587E+02 0.  0.
         11    1    3    3    0    0 -0.14897150764E+03  0.40829579645E+02 -0.14537600353E+03  0.21211729553E+03  0.00000000000E+00 0. -1.
        -11    1    3    3    0    0 -0.90510790686E+02  0.87739779629E+02 -0.20333194608E+03  0.23923702150E+03  0.00000000000E+00 0.  1.
          2    1    4    4  502    0 -0.55568982843E+02 -0.48719217315E+01 -0.11719167238E+03  0.12979035230E+03  0.00000000000E+00 0. -1.
          1    1    5    5  503    0  0.20869742435E+02 -0.11106075705E+01 -0.44510406612E+01  0.21367998536E+02  0.00000000000E+00 0. -1.
         -2    1    5    5    0  503  0.33437959743E+03  0.24745544568E+03 -0.33888570107E+03  0.53655142453E+03  0.00000000000E+00 0.  1.
         -1    1    4    4    0  502 -0.60198058698E+02 -0.37004227565E+03 -0.31219082312E+02  0.37620436353E+03  0.00000000000E+00 0.  1.
<mgrwt>
<rscale>  0 0.12608224E+04</rscale>
<asrwt>0</asrwt>
<pdfrwt beam="1">  1        1 0.51908694E-01 0.12608224E+04</pdfrwt>
<pdfrwt beam="2">  1       -1 0.18120953E+00 0.12608224E+04</pdfrwt>
<totfact> 0.15106995E+01</totfact>
</mgrwt>
</event>
<event>
11    1  0.2404191E-008  0.2212482E+04  0.7818608E-02  0.8513251E-01
          1   -1    0    0  501    0  0.00000000000E+00  0.00000000000E+00  0.20647435260E+04  0.20647435260E+04  0.00000000000E+00 0. -1.
         -1   -1    0    0    0  501 -0.00000000000E+00 -0.00000000000E+00 -0.59269763362E+03  0.59269763362E+03  0.00000000000E+00 0.  1.
         23    2    1    2    0    0 -0.63522268658E+03  0.51350437933E+03  0.78834118366E+03  0.11388371078E+04  0.90958931014E+02 0.  0.
        254    2    1    2    0    0  0.63522268658E+03 -0.51350437933E+03  0.68370470872E+03  0.15186040518E+04  0.10823638613E+04 0.  0.
        -24    2    4    4    0    0  0.29660241395E+03 -0.78729505649E+03  0.34555928032E+03  0.91306424403E+03  0.80427604563E+02 0.  0.
         11    1    3    3    0    0 -0.93134835939E+02  0.91684858432E+02  0.85960583865E+02  0.15642708496E+03  0.00000000000E+00 0. -1.
        -11    1    3    3    0    0 -0.54208785064E+03  0.42181952090E+03  0.70238059979E+03  0.98241002285E+03  0.00000000000E+00 0.  1.
          2    1    4    4  502    0  0.33202964572E+03  0.20558524329E+03  0.36248063322E+03  0.53282378640E+03  0.00000000000E+00 0. -1.
          3    1    5    5  503    0  0.20645263088E+03 -0.50501587466E+03  0.18539799685E+03  0.57622577145E+03  0.00000000000E+00 0. -1.
         -4    1    5    5    0  503  0.90149783072E+02 -0.28227918183E+03  0.16016128347E+03  0.33683847257E+03  0.00000000000E+00 0.  1.
         -1    1    4    4    0  502  0.65906269117E+01  0.68205433866E+02 -0.24335204815E+02  0.72716021380E+02  0.00000000000E+00 0.  1.
<mgrwt>
<rscale>  0 0.22124815E+04</rscale>
<asrwt>0</asrwt>
<pdfrwt beam="1">  1        1 0.31765285E+00 0.22124815E+04</pdfrwt>
<pdfrwt beam="2">  1       -1 0.91184252E-01 0.22124815E+04</pdfrwt>
<totfact> 0.28775776E+00</totfact>
</mgrwt>
</event>
<event>
12    1  0.2404191E-008  0.1569820E+04  0.7818608E-02  0.8839306E-01
         -2   -1    0    0    0  501 -0.00000000000E+00  0.00000000000E+00  0.26376998391E+03  0.26376998391E+03  0.00000000000E+00 0.  1.
          2   -1    0    0  501    0  0.00000000000E+00 -0.00000000000E+00 -0.23356863558E+04  0.23356863558E+04  0.00000000000E+00 0. -1.
         23    2    1    2    0    0  0.41837694748E+02 -0.51832722490E+03 -0.68617641938E+03  0.86558648252E+03  0.89377712183E+02 0.  0.
        254    2    1    2    0    0 -0.41837694748E+02  0.51832722490E+03 -0.13857399525E+04  0.17338698571E+04  0.90311458900E+03 0.  0.
        -24    2    4    4    0    0 -0.37256180792E+03  0.15852350503E+03 -0.22397629121E+03  0.46972226633E+03  0.80880319600E+02 0.  0.
         24    2    4    4    0    0  0.33072411317E+03  0.35980371987E+03 -0.11617636613E+04  0.12641475908E+04  0.97658439810E+02 0.  0.
         13    1    3    3    0    0  0.97500008814E+01 -0.18257160471E+01 -0.16605211124E+02  0.19342409176E+02  0.00000000000E+00 0. -1.
        -13    1    3    3    0    0  0.32087693866E+02 -0.51650150885E+03 -0.66957120825E+03  0.84624407334E+03  0.00000000000E+00 0.  1.
          4    1    6    6  502    0  0.19148254112E+03  0.13809449836E+03 -0.57862964561E+03  0.62493833360E+03  0.00000000000E+00 0. -1.
          3    1    5    5  503    0 -0.37493383422E+03  0.16214506109E+03 -0.22242945580E+03  0.46512499792E+03  0.00000000000E+00 0. -1.
         -4    1    5    5    0  503  0.23720263045E+01 -0.36215560616E+01 -0.15468354168E+01  0.45972684176E+01  0.00000000000E+00 0.  1.
         -3    1    6    6    0  502  0.13924157205E+03  0.22170922151E+03 -0.58313401565E+03  0.63920925721E+03  0.00000000000E+00 0.  1.
<mgrwt>
<rscale>  0 0.15698203E+04</rscale>
<asrwt>0</asrwt>
<pdfrwt beam="1">  1        2 0.35933637E+00 0.15698203E+04</pdfrwt>
<pdfrwt beam="2">  1       -2 0.40579996E-01 0.15698203E+04</pdfrwt>
<totfact> 0.23943196E+01</totfact>
</mgrwt>
</event>
<event>
12    1  0.2404191E-008  0.1285327E+04  0.7818608E-02  0.9041282E-01
          1   -1    0    0  501    0  0.00000000000E+00  0.00000000000E+00  0.18993995209E+04  0.18993995209E+04  0.00000000000E+00 0. -1.
         -1   -1    0    0    0  501 -0.00000000000E+00 -0.00000000000E+00 -0.21744589179E+03  0.21744589179E+03  0.00000000000E+00 0.  1.
         23    2    1    2    0    0 -0.97220535770E+02  0.19248120796E+03  0.81581388465E+03  0.84906300838E+03  0.94100211502E+02 0.  0.
        254    2    1    2    0    0  0.97220535770E+02 -0.19248120796E+03  0.86613974441E+03  0.12677824043E+04  0.90031845464E+03 0.  0.
        -24    2    4    4    0    0 -0.15635691240E+03  0.36656853084E+02  0.89493672652E+03  0.91275073690E+03  0.80068435068E+02 0.  0.
         24    2    4    4    0    0  0.25357744817E+03 -0.22913806104E+03 -0.28796982113E+02  0.35503166738E+03  0.91719384151E+02 0.  0.
         13    1    3    3    0    0 -0.77273940340E+02  0.18633218306E+03  0.61657835192E+03  0.64873708724E+03  0.00000000000E+00 0. -1.
        -13    1    3    3    0    0 -0.19946595430E+02  0.61490248980E+01  0.19923553273E+03  0.20032592114E+03  0.00000000000E+00 0.  1.
          2    1    6    6  502    0  0.16527310021E+03 -0.20239151758E+03 -0.27648852413E+02  0.26275841201E+03  0.00000000000E+00 0. -1.
          1    1    5    5  503    0 -0.15374745385E+03  0.37568169538E+02  0.89593859137E+03  0.90981075309E+03  0.00000000000E+00 0. -1.
         -2    1    5    5    0  503 -0.26094585503E+01 -0.91131645371E+00 -0.10018648505E+01  0.29399838066E+01  0.00000000000E+00 0.  1.
         -1    1    6    6    0  502  0.88304347958E+02 -0.26746543458E+02 -0.11481297004E+01  0.92273255373E+02  0.00000000000E+00 0.  1.
<mgrwt>
<rscale>  0 0.12853274E+04</rscale>
<asrwt>0</asrwt>
<pdfrwt beam="1">  1        1 0.29221530E+00 0.12853274E+04</pdfrwt>
<pdfrwt beam="2">  1       -1 0.33453215E-01 0.12853274E+04</pdfrwt>
<totfact> 0.28885670E+01</totfact>
</mgrwt>
</event>
<event>
12    1  0.2404191E-008  0.2595598E+04  0.7818608E-02  0.8369698E-01
          2   -1    0    0  501    0  0.00000000000E+00  0.00000000000E+00  0.16514617312E+04  0.16514617312E+04  0.00000000000E+00 0. -1.
         -2   -1    0    0    0  501 -0.00000000000E+00 -0.00000000000E+00 -0.10198736315E+04  0.10198736315E+04  0.00000000000E+00 0.  1.
         23    2    1    2    0    0  0.47967817103E+03  0.79007411531E+03 -0.41125658727E+03  0.10150818386E+04  0.83372075870E+02 0.  0.
        254    2    1    2    0    0 -0.47967817103E+03 -0.79007411531E+03  0.10428446869E+04  0.16562535241E+04  0.89517732302E+03 0.  0.
        -24    2    4    4    0    0  0.11683720239E+03 -0.62124204812E+03  0.35933503629E+03  0.73151383644E+03  0.79988814098E+02 0.  0.
         24    2    4    4    0    0 -0.59651537341E+03 -0.16883206719E+03  0.68350965062E+03  0.92473968767E+03  0.60192938393E+02 0.  0.
         13    1    3    3    0    0  0.28957014489E+02  0.74481288230E+02 -0.57081652454E+02  0.98205325881E+02  0.00000000000E+00 0. -1.
        -13    1    3    3    0    0  0.45072115654E+03  0.71559282708E+03 -0.35417493481E+03  0.91687651272E+03  0.00000000000E+00 0.  1.
          4    1    6    6  502    0 -0.64861454496E+01 -0.59625560512E+01  0.26720783361E+01  0.92066367416E+01  0.00000000000E+00 0. -1.
          1    1    5    5  503    0  0.27647137659E+02 -0.22010913714E+03  0.16772467202E+03  0.27810782455E+03  0.00000000000E+00 0. -1.
         -2    1    5    5    0  503  0.89190064726E+02 -0.40113291098E+03  0.19161036427E+03  0.45340601188E+03  0.00000000000E+00 0.  1.
         -3    1    6    6    0  502 -0.59002922796E+03 -0.16286951114E+03  0.68083757228E+03  0.91553305093E+03  0.00000000000E+00 0.  1.
<mgrwt>
<rscale>  0 0.25955980E+04</rscale>
<asrwt>0</asrwt>
<pdfrwt beam="1">  1        2 0.25407104E+00 0.25955980E+04</pdfrwt>
<pdfrwt beam="2">  1       -2 0.15690364E+00 0.25955980E+04</pdfrwt>
<totfact> 0.24536338E+00</totfact>
</mgrwt>
</event>
<event>
12    1  0.2404191E-008  0.2996396E+04  0.7818608E-02  0.8244761E-01
          2   -1    0    0  501    0  0.00000000000E+00  0.00000000000E+00  0.26688511839E+04  0.26688511839E+04  0.00000000000E+00 0. -1.
         -2   -1    0    0    0  501 -0.00000000000E+00 -0.00000000000E+00 -0.84103521598E+03  0.84103521598E+03  0.00000000000E+00 0.  1.
         23    2    1    2    0    0  0.30519787626E+03 -0.35781462795E+03  0.23316057051E+04  0.23802869014E+04  0.90573270409E+02 0.  0.
        254    2    1    2    0    0 -0.30519787626E+03  0.35781462795E+03 -0.50378973713E+03  0.11295994985E+04  0.89499378554E+03 0.  0.
        -24    2    4    4    0    0 -0.61120912249E+03  0.28369780007E+03 -0.37867723411E+03  0.77713707693E+03  0.80526737948E+02 0.  0.
         24    2    4    4    0    0  0.30601124624E+03  0.74116827883E+02 -0.12511250302E+03  0.35246242158E+03  0.97161891789E+02 0.  0.
         11    1    3    3    0    0  0.30952562472E+03 -0.35217525792E+03  0.23179211977E+04  0.23648662126E+04  0.00000000000E+00 0. -1.
        -11    1    3    3    0    0 -0.43277484653E+01 -0.56393700290E+01  0.13684507375E+02  0.15420688804E+02  0.00000000000E+00 0.  1.
          2    1    6    6  502    0  0.31249853961E+03  0.69167086021E+02 -0.12655899110E+03  0.34417524791E+03  0.00000000000E+00 0. -1.
          1    1    5    5  503    0 -0.49291567928E+03  0.21766654548E+03 -0.33637697865E+03  0.63521182582E+03  0.00000000000E+00 0. -1.
         -2    1    5    5    0  503 -0.11829344322E+03  0.66031254587E+02 -0.42300255462E+02  0.14192525111E+03  0.00000000000E+00 0.  1.
         -1    1    6    6    0  502 -0.64872933696E+01  0.49497418616E+01  0.14464880740E+01  0.82871736743E+01  0.00000000000E+00 0.  1.
<mgrwt>
<rscale>  0 0.29963964E+04</rscale>
<asrwt>0</asrwt>
<pdfrwt beam="1">  1        2 0.41059249E+00 0.29963964E+04</pdfrwt>
<pdfrwt beam="2">  1       -2 0.12939003E+00 0.29963964E+04</pdfrwt>
<totfact> 0.10425611E+00</totfact>
</mgrwt>
</event>
<event>
12    1  0.2404191E-008  0.1284422E+04  0.7818608E-02  0.9042011E-01
         -1   -1    0    0    0  501 -0.00000000000E+00  0.00000000000E+00  0.28437298883E+03  0.28437298883E+03  0.00000000000E+00 0.  1.
          1   -1    0    0  501    0  0.00000000000E+00 -0.00000000000E+00 -0.14503310300E+04  0.14503310300E+04  0.00000000000E+00 0. -1.
         23    2    1    2    0    0 -0.91290780266E+01  0.15575641941E+03 -0.66536522337E+03  0.68931518368E+03  0.90006331629E+02 0.  0.
        254    2    1    2    0    0  0.91290780266E+01 -0.15575641941E+03 -0.50059281785E+03  0.10453888352E+04  0.90437892788E+03 0.  0.
        -24    2    4    4    0    0  0.36206778001E+03  0.91250458502E+02 -0.61024489170E+01  0.38179994536E+03  0.79462160151E+02 0.  0.
         24    2    4    4    0    0 -0.35293870199E+03 -0.24700687791E+03 -0.49449036893E+03  0.66358888982E+03  0.10124902289E+03 0.  0.
         11    1    3    3    0    0  0.10102558348E+02  0.88706382066E+02 -0.20364801127E+03  0.22235871110E+03  0.00000000000E+00 0. -1.
        -11    1    3    3    0    0 -0.19231636375E+02  0.67050037340E+02 -0.46171721209E+03  0.46695647258E+03  0.00000000000E+00 0.  1.
          4    1    6    6  502    0 -0.27245015974E+03 -0.13439125349E+03 -0.32803374878E+03  0.44709757201E+03  0.00000000000E+00 0. -1.
          1    1    5    5  503    0  0.20937391632E+03  0.76807132372E+02  0.27737545351E+02  0.22473572000E+03  0.00000000000E+00 0. -1.
         -2    1    5    5    0  503  0.15269386369E+03  0.14443326130E+02 -0.33839994268E+02  0.15706422537E+03  0.00000000000E+00 0.  1.
         -3    1    6    6    0  502 -0.80488542244E+02 -0.11261562442E+03 -0.16645662016E+03  0.21649131782E+03  0.00000000000E+00 0.  1.
<mgrwt>
<rscale>  0 0.12844220E+04</rscale>
<asrwt>0</asrwt>
<pdfrwt beam="1">  1        1 0.22312785E+00 0.12844220E+04</pdfrwt>
<pdfrwt beam="2">  1       -1 0.43749691E-01 0.12844220E+04</pdfrwt>
<totfact> 0.35959619E+01</totfact>
</mgrwt>
</event>
<event>
12    1  0.2404191E-008  0.1268117E+04  0.7818608E-02  0.9055238E-01
          2   -1    0    0  501    0  0.00000000000E+00  0.00000000000E+00  0.31429854892E+04  0.31429854892E+04  0.00000000000E+00 0.  1.
         -2   -1    0    0    0  501 -0.00000000000E+00 -0.00000000000E+00 -0.12791337209E+03  0.12791337209E+03  0.00000000000E+00 0. -1.
         23    2    1    2    0    0  0.55702362795E+02  0.28190911491E+03  0.10011164516E+04  0.10455780900E+04  0.91781754296E+02 0.  0.
        254    2    1    2    0    0 -0.55702362795E+02 -0.28190911491E+03  0.20139556656E+04  0.22253207713E+04  0.90191995767E+03 0.  0.
        -24    2    4    4    0    0  0.21030736407E+03 -0.34970108677E+03  0.18565158482E+04  0.19025088507E+04  0.79804729976E+02 0.  0.
         24    2    4    4    0    0 -0.26600972687E+03  0.67791971862E+02  0.15743981735E+03  0.32281192059E+03  0.63744127158E+02 0.  0.
         11    1    3    3    0    0  0.63664480181E+02  0.17633809084E+03  0.74957117146E+03  0.77266113491E+03  0.00000000000E+00 0.  1.
        -11    1    3    3    0    0 -0.79621173860E+01  0.10557102407E+03  0.25154528011E+03  0.27291695510E+03  0.00000000000E+00 0. -1.
          4    1    6    6  502    0 -0.22052186756E+03  0.78400808265E+02  0.12038568862E+03  0.26319060552E+03  0.00000000000E+00 0. -1.
          3    1    5    5  503    0  0.17508068118E+03 -0.33292646895E+03  0.17103248801E+04  0.17512008663E+04  0.00000000000E+00 0. -1.
         -4    1    5    5    0  503  0.35226682887E+02 -0.16774617820E+02  0.14619096814E+03  0.15130798445E+03  0.00000000000E+00 0.  1.
         -3    1    6    6    0  502 -0.45487859308E+02 -0.10608836403E+02  0.37054128733E+02  0.59621315068E+02  0.00000000000E+00 0.  1.
<mgrwt>
<rscale>  0 0.12681165E+04</rscale>
<asrwt>0</asrwt>
<pdfrwt beam="1">  1        2 0.48353617E+00 0.12681165E+04</pdfrwt>
<pdfrwt beam="2">  1       -2 0.19678983E-01 0.12681165E+04</pdfrwt>
<totfact> 0.30960939E+01</totfact>
</mgrwt>
</event>
<event>
12    1  0.2404191E-008  0.3721832E+04  0.7818608E-02  0.8063141E-01
          1   -1    0    0  501    0  0.00000000000E+00  0.00000000000E+00  0.21216709015E+04  0.21216709015E+04  0.00000000000E+00 0. -1.
         -1   -1    0    0    0  501 -0.00000000000E+00 -0.00000000000E+00 -0.16322078334E+04  0.16322078334E+04  0.00000000000E+00 0.  1.
         23    2    1    2    0    0 -0.17499239623E+04  0.21547757555E+02  0.30363488282E+03  0.17785260369E+04  0.90898526840E+02 0.  0.
        254    2    1    2    0    0  0.17499239623E+04 -0.21547757555E+02  0.18582818532E+03  0.19753526980E+04  0.89709976442E+03 0.  0.
        -24    2    4    4    0    0  0.47282738405E+03 -0.11209867459E+03  0.45007328020E+03  0.66710036376E+03  0.79530433382E+02 0.  0.
         24    2    4    4    0    0  0.12770965783E+04  0.90550917032E+02 -0.26424509487E+03  0.13082523342E+04  0.50235058449E+02 0.  0.
         11    1    3    3    0    0 -0.14472298163E+03 -0.22958880048E+02  0.29641781114E+02  0.14950079188E+03  0.00000000000E+00 0.  1.
        -11    1    3    3    0    0 -0.16052009807E+04  0.44506637604E+02  0.27399310171E+03  0.16290252450E+04  0.00000000000E+00 0. -1.
          4    1    6    6  502    0  0.81447008935E+03  0.40001148774E+02 -0.15141979573E+03  0.82939108560E+03  0.00000000000E+00 0. -1.
          1    1    5    5  503    0  0.23414335957E+03 -0.57187994993E+02  0.27710758211E+03  0.36726310959E+03  0.00000000000E+00 0. -1.
         -2    1    5    5    0  503  0.23868402448E+03 -0.54910679594E+02  0.17296569808E+03  0.29983725417E+03  0.00000000000E+00 0.  1.
         -3    1    6    6    0  502  0.46262648892E+03  0.50549768258E+02 -0.11282529915E+03  0.47886124864E+03  0.00000000000E+00 0.  1.
<mgrwt>
<rscale>  0 0.37218317E+04</rscale>
<asrwt>0</asrwt>
<pdfrwt beam="1">  1        1 0.32641091E+00 0.37218317E+04</pdfrwt>
<pdfrwt beam="2">  1       -1 0.25110890E+00 0.37218317E+04</pdfrwt>
<totfact> 0.13528033E-01</totfact>
</mgrwt>
</event>
<event>
11    1  0.2404191E-008  0.2591785E+04  0.7818608E-02  0.8370997E-01
          1   -1    0    0  501    0  0.00000000000E+00  0.00000000000E+00  0.12782355888E+04  0.12782355888E+04  0.00000000000E+00 0. -1.
         -1   -1    0    0    0  501 -0.00000000000E+00 -0.00000000000E+00 -0.13137931229E+04  0.13137931229E+04  0.00000000000E+00 0.  1.
         23    2    1    2    0    0  0.62477820000E+03  0.94703494943E+03  0.84260621121E+02  0.11414087149E+04  0.92146663141E+02 0.  0.
        254    2    1    2    0    0 -0.62477820000E+03 -0.94703494943E+03 -0.11981815520E+03  0.14506199968E+04  0.89594586338E+03 0.  0.
        -24    2    4    4    0    0  0.37079316385E+02 -0.44545640046E+03  0.24383964754E+03  0.51486388584E+03  0.76293950126E+02 0.  0.
         11    1    3    3    0    0  0.43079811067E+02  0.71683455525E+02  0.30528720945E+02  0.89030279793E+02  0.00000000000E+00 0. -1.
        -11    1    3    3    0    0  0.58169838893E+03  0.87535149390E+03  0.53731900176E+02  0.10523784351E+04  0.00000000000E+00 0.  1.
          2    1    4    4  502    0 -0.31081186890E+03 -0.32127673636E+03 -0.91267560025E+02  0.45623735784E+03  0.00000000000E+00 0. -1.
          1    1    5    5  503    0 -0.18457338617E+02 -0.49584736362E+02  0.38704823795E+02  0.65554426349E+02  0.00000000000E+00 0. -1.
         -2    1    5    5    0  503  0.55536655002E+02 -0.39587166409E+03  0.20513482374E+03  0.44930945950E+03  0.00000000000E+00 0.  1.
         -1    1    4    4    0  502 -0.35104564749E+03 -0.18030181261E+03 -0.27239024271E+03  0.47951875310E+03  0.00000000000E+00 0.  1.
<mgrwt>
<rscale>  0 0.25917848E+04</rscale>
<asrwt>0</asrwt>
<pdfrwt beam="1">  1        1 0.19665163E+00 0.25917848E+04</pdfrwt>
<pdfrwt beam="2">  1       -1 0.20212202E+00 0.25917848E+04</pdfrwt>
<totfact> 0.12026723E+00</totfact>
</mgrwt>
</event>
<event>
12    1  0.2404191E-008  0.2849740E+04  0.7818608E-02  0.8287990E-01
          2   -1    0    0  501    0  0.00000000000E+00  0.00000000000E+00  0.24955352026E+04  0.24955352026E+04  0.00000000000E+00 0. -1.
         -2   -1    0    0    0  501 -0.00000000000E+00 -0.00000000000E+00 -0.81355488468E+03  0.81355488468E+03  0.00000000000E+00 0.  1.
         23    2    1    2    0    0  0.50380733953E+03 -0.91443443867E+03 -0.10419531096E+03  0.10536819894E+04  0.96834363302E+02 0.  0.
        254    2    1    2    0    0 -0.50380733953E+03  0.91443443867E+03  0.17861756289E+04  0.22554080979E+04  0.89801455048E+03 0.  0.
        -24    2    4    4    0    0 -0.68180672922E+03  0.94168268979E+03  0.15783474245E+04  0.19619403144E+04  0.80015627496E+02 0.  0.
         24    2    4    4    0    0  0.17799938969E+03 -0.27248251116E+02  0.20782820441E+03  0.29346778351E+03  0.10249159718E+03 0.  0.
         13    1    3    3    0    0  0.21349280652E+03 -0.36680398896E+03  0.43096461693E+01  0.42443246554E+03  0.00000000000E+00 0. -1.
        -13    1    3    3    0    0  0.29031453301E+03 -0.54763044971E+03 -0.10850495713E+03  0.62924952383E+03  0.00000000000E+00 0.  1.
          2    1    6    6  502    0  0.34592667089E+02  0.10991384449E+01  0.11549092631E+03  0.12056539628E+03  0.00000000000E+00 0. -1.
          1    1    5    5  503    0 -0.15343033498E+03  0.22687469150E+03  0.42887415004E+03  0.50886739914E+03  0.00000000000E+00 0. -1.
         -2    1    5    5    0  503 -0.52837639423E+03  0.71480799829E+03  0.11494732745E+04  0.14530729153E+04  0.00000000000E+00 0.  1.
         -1    1    6    6    0  502  0.14340672260E+03 -0.28347389561E+02  0.92337278100E+02  0.17290238723E+03  0.00000000000E+00 0.  1.
<mgrwt>
<rscale>  0 0.28497402E+04</rscale>
<asrwt>0</asrwt>
<pdfrwt beam="1">  1        2 0.38392849E+00 0.28497402E+04</pdfrwt>
<pdfrwt beam="2">  1       -2 0.12516229E+00 0.28497402E+04</pdfrwt>
<totfact> 0.14500958E+00</totfact>
</mgrwt>
</event>
<event>
11    1  0.2404191E-008  0.1351889E+04  0.7818608E-02  0.8989399E-01
         -1   -1    0    0    0  501 -0.00000000000E+00  0.00000000000E+00  0.26990125968E+03  0.26990125968E+03  0.00000000000E+00 0.  1.
          1   -1    0    0  501    0  0.00000000000E+00 -0.00000000000E+00 -0.16928456571E+04  0.16928456571E+04  0.00000000000E+00 0. -1.
         23    2    1    2    0    0  0.24612581775E+03 -0.27662959853E+03 -0.35436747949E+03  0.52118003244E+03  0.94606885295E+02 0.  0.
        254    2    1    2    0    0 -0.24612581775E+03  0.27662959853E+03 -0.10685769180E+04  0.14415668844E+04  0.89395559152E+03 0.  0.
        -24    2    4    4    0    0 -0.27289665117E+03  0.47163620238E+03 -0.10332271172E+04  0.11709243397E+04  0.81192635386E+02 0.  0.
         13    1    3    3    0    0  0.24841143112E+01 -0.47415628817E+02 -0.39002268798E+02  0.61445826965E+02  0.00000000000E+00 0.  1.
        -13    1    3    3    0    0  0.24364170344E+03 -0.22921396971E+03 -0.31536521069E+03  0.45973420547E+03  0.00000000000E+00 0. -1.
          2    1    4    4  502    0  0.27565969281E+02  0.28255410960E+02 -0.25833326514E+02  0.47176388900E+02  0.00000000000E+00 0. -1.
          1    1    5    5  503    0 -0.44667617928E+02  0.61637545678E+02 -0.20976301815E+03  0.22314772442E+03  0.00000000000E+00 0. -1.
         -2    1    5    5    0  503 -0.22822903324E+03  0.40999865670E+03 -0.82346409902E+03  0.94777661529E+03  0.00000000000E+00 0.  1.
         -1    1    4    4    0  502 -0.79513586368E+00 -0.22326201481E+03 -0.95164742845E+01  0.22346615578E+03  0.00000000000E+00 0.  1.
<mgrwt>
<rscale>  0 0.13518893E+04</rscale>
<asrwt>0</asrwt>
<pdfrwt beam="1">  1        1 0.26043779E+00 0.13518893E+04</pdfrwt>
<pdfrwt beam="2">  1       -1 0.41523272E-01 0.13518893E+04</pdfrwt>
<totfact> 0.26827466E+01</totfact>
</mgrwt>
</event>
<event>
11    1  0.2404191E-008  0.1359224E+04  0.7818608E-02  0.8983875E-01
          1   -1    0    0  501    0  0.00000000000E+00  0.00000000000E+00  0.26029902350E+04  0.26029902350E+04  0.00000000000E+00 0. -1.
         -1   -1    0    0    0  501 -0.00000000000E+00 -0.00000000000E+00 -0.17743911784E+03  0.17743911784E+03  0.00000000000E+00 0.  1.
         23    2    1    2    0    0  0.13500302417E+03  0.32620664345E+03  0.97060587141E+03  0.10364515905E+04  0.86715345141E+02 0.  0.
        254    2    1    2    0    0 -0.13500302417E+03 -0.32620664345E+03  0.14549452457E+04  0.17439777623E+04  0.89440269265E+03 0.  0.
        -24    2    4    4    0    0 -0.48009756600E+03 -0.27763640657E+02  0.80921233050E+03  0.94472151959E+03  0.80060359221E+02 0.  0.
         11    1    3    3    0    0  0.86553425051E+02  0.21339470144E+03  0.50668610306E+03  0.55656050976E+03  0.00000000000E+00 0. -1.
        -11    1    3    3    0    0  0.48449599118E+02  0.11281194201E+03  0.46391976835E+03  0.47989108075E+03  0.00000000000E+00 0.  1.
          2    1    4    4  502    0  0.27371686316E+03 -0.19933816330E+03  0.39436893234E+03  0.51979176534E+03  0.00000000000E+00 0. -1.
          3    1    5    5  503    0 -0.31144808556E+03 -0.30991251716E+02  0.45323455538E+03  0.55080117090E+03  0.00000000000E+00 0. -1.
         -4    1    5    5    0  503 -0.16864948044E+03  0.32276110587E+01  0.35597777512E+03  0.39392034868E+03  0.00000000000E+00 0.  1.
         -1    1    4    4    0  502  0.71377678670E+02 -0.99104839490E+02  0.25136398290E+03  0.27946447739E+03  0.00000000000E+00 0.  1.
<mgrwt>
<rscale>  0 0.13592237E+04</rscale>
<asrwt>0</asrwt>
<pdfrwt beam="1">  1        1 0.40046001E+00 0.13592237E+04</pdfrwt>
<pdfrwt beam="2">  1       -1 0.27298328E-01 0.13592237E+04</pdfrwt>
<totfact> 0.13580269E+01</totfact>
</mgrwt>
</event>
<event>
11    1  0.2404191E-008  0.1636165E+04  0.7818608E-02  0.8798634E-01
          2   -1    0    0  501    0  0.00000000000E+00  0.00000000000E+00  0.17455213202E+04  0.17455213202E+04  0.00000000000E+00 0.  1.
         -2   -1    0    0    0  501 -0.00000000000E+00 -0.00000000000E+00 -0.38341473974E+03  0.38341473974E+03  0.00000000000E+00 0. -1.
         23    2    1    2    0    0  0.33159571259E+03  0.10377183996E+03  0.96589856887E+03  0.10305046715E+04  0.90859898833E+02 0.  0.
        254    2    1    2    0    0 -0.33159571259E+03 -0.10377183996E+03  0.39620801155E+03  0.10984313884E+04  0.96376678470E+03 0.  0.
        -24    2    4    4    0    0  0.10665466719E+03 -0.23667334989E+03  0.51497481867E+03  0.58157343813E+03  0.75093991085E+02 0.  0.
         13    1    3    3    0    0  0.53489492434E+02  0.12542115065E+02  0.76499571775E+02  0.94183942012E+02  0.00000000000E+00 0. -1.
        -13    1    3    3    0    0  0.27810622016E+03  0.91229724894E+02  0.88939899709E+03  0.93632072947E+03  0.00000000000E+00 0.  1.
          2    1    4    4  502    0 -0.28901678580E+03  0.18619566885E+03 -0.94444566235E+02  0.35653794422E+03  0.00000000000E+00 0. -1.
          3    1    5    5  503    0  0.78589431804E+02 -0.22047012372E+03  0.47917631732E+03  0.53328539950E+03  0.00000000000E+00 0. -1.
         -4    1    5    5    0  503  0.28065235390E+02 -0.16203226178E+02  0.35798501346E+02  0.48288038629E+02  0.00000000000E+00 0.  1.
         -1    1    4    4    0  502 -0.14923359398E+03 -0.53294158921E+02 -0.24322240878E+02  0.16032000608E+03  0.00000000000E+00 0.  1.
<mgrwt>
<rscale>  0 0.16361645E+04</rscale>
<asrwt>0</asrwt>
<pdfrwt beam="1">  1        2 0.26854174E+00 0.16361645E+04</pdfrwt>
<pdfrwt beam="2">  1       -2 0.58986884E-01 0.16361645E+04</pdfrwt>
<totfact> 0.23750497E+01</totfact>
</mgrwt>
</event>
<event>
12    1  0.2404191E-008  0.1813095E+04  0.7818608E-02  0.8699366E-01
         -1   -1    0    0    0  501 -0.00000000000E+00  0.00000000000E+00  0.41439303945E+03  0.41439303945E+03  0.00000000000E+00 0.  1.
          1   -1    0    0  501    0  0.00000000000E+00 -0.00000000000E+00 -0.19832108573E+04  0.19832108573E+04  0.00000000000E+00 0. -1.
         23    2    1    2    0    0 -0.54314439735E+03  0.25751071335E+03 -0.19123934448E+03  0.63724631023E+03  0.90513916941E+02 0.  0.
        254    2    1    2    0    0  0.54314439735E+03 -0.25751071335E+03 -0.13775784734E+04  0.17603575865E+04  0.91641626910E+03 0.  0.
        -24    2    4    4    0    0  0.43670625636E+03 -0.58462928042E+03 -0.87768536258E+03  0.11441744836E+04  0.79371930419E+02 0.  0.
         24    2    4    4    0    0  0.10643814098E+03  0.32711856706E+03 -0.49989311078E+03  0.61618310292E+03  0.10701803283E+03 0.  0.
         11    1    3    3    0    0 -0.44519995105E+03  0.23355876888E+03 -0.13001954525E+03  0.51928583370E+03  0.00000000000E+00 0. -1.
        -11    1    3    3    0    0 -0.97944446290E+02  0.23951944478E+02 -0.61219799235E+02  0.11796047652E+03  0.00000000000E+00 0.  1.
          2    1    6    6  502    0 -0.17195640287E+02  0.30418066909E+02 -0.25951096877E+02  0.43524800614E+02  0.00000000000E+00 0. -1.
          1    1    5    5  503    0  0.10367029115E+03 -0.18231430449E+03 -0.29097239487E+03  0.35867948013E+03  0.00000000000E+00 0. -1.
         -2    1    5    5    0  503  0.33303596521E+03 -0.40231497593E+03 -0.58671296771E+03  0.78549500346E+03  0.00000000000E+00 0.  1.
         -1    1    6    6    0  502  0.12363378127E+03  0.29670050016E+03 -0.47394201390E+03  0.57265830231E+03  0.00000000000E+00 0.  1.
<mgrwt>
<rscale>  0 0.18130954E+04</rscale>
<asrwt>0</asrwt>
<pdfrwt beam="1">  1        1 0.30510936E+00 0.18130954E+04</pdfrwt>
<pdfrwt beam="2">  1       -1 0.63752776E-01 0.18130954E+04</pdfrwt>
<totfact> 0.71955739E+00</totfact>
</mgrwt>
</event>
<event>
12    1  0.2404191E-008  0.1744757E+04  0.7818608E-02  0.8736242E-01
         -2   -1    0    0    0  501 -0.00000000000E+00  0.00000000000E+00  0.52862066930E+03  0.52862066930E+03  0.00000000000E+00 0. -1.
          2   -1    0    0  501    0  0.00000000000E+00 -0.00000000000E+00 -0.14396788405E+04  0.14396788405E+04  0.00000000000E+00 0.  1.
         23    2    1    2    0    0 -0.57496225781E+03 -0.11063669107E+03 -0.61949782139E+03  0.85711902770E+03  0.89740746654E+02 0.  0.
        254    2    1    2    0    0  0.57496225781E+03  0.11063669107E+03 -0.29156034976E+03  0.11111804821E+04  0.89827198043E+03 0.  0.
        -24    2    4    4    0    0  0.57974819834E+03 -0.22140361770E+03 -0.41518477773E+03  0.75086699915E+03  0.79343023247E+02 0.  0.
         24    2    4    4    0    0 -0.47859405313E+01  0.33204030877E+03  0.12362442797E+03  0.36031348291E+03  0.65338617217E+02 0.  0.
         11    1    3    3    0    0 -0.27627116521E+03 -0.74213212180E+02 -0.24445764921E+03  0.37628832011E+03  0.00000000000E+00 0.  1.
        -11    1    3    3    0    0 -0.29869109260E+03 -0.36423478890E+02 -0.37504017218E+03  0.48083070759E+03  0.00000000000E+00 0. -1.
          4    1    6    6  502    0 -0.24827850548E+02  0.52198218185E+02  0.24102279515E+02  0.62625841490E+02  0.00000000000E+00 0. -1.
          1    1    5    5  503    0  0.91590520274E+02 -0.11396403968E+02 -0.83311139098E+02  0.12433602585E+03  0.00000000000E+00 0. -1.
         -2    1    5    5    0  503  0.48815767807E+03 -0.21000721373E+03 -0.33187363863E+03  0.62653097329E+03  0.00000000000E+00 0.  1.
         -3    1    6    6    0  502  0.20041910017E+02  0.27984209058E+03  0.99522148453E+02  0.29768764142E+03  0.00000000000E+00 0.  1.
<mgrwt>
<rscale>  0 0.17447567E+04</rscale>
<asrwt>0</asrwt>
<pdfrwt beam="1">  1        2 0.22148905E+00 0.17447567E+04</pdfrwt>
<pdfrwt beam="2">  1       -2 0.81326257E-01 0.17447567E+04</pdfrwt>
<totfact> 0.17347230E+01</totfact>
</mgrwt>
</event>
<event>
12    1  0.2404191E-008  0.1257252E+04  0.7818608E-02  0.9064169E-01
          1   -1    0    0  501    0  0.00000000000E+00  0.00000000000E+00  0.89466901680E+03  0.89466901680E+03  0.00000000000E+00 0. -1.
         -1   -1    0    0    0  501 -0.00000000000E+00 -0.00000000000E+00 -0.44169499857E+03  0.44169499857E+03  0.00000000000E+00 0.  1.
         23    2    1    2    0    0 -0.56676082936E+01 -0.13797789464E+02 -0.20486285954E+03  0.22426641243E+03  0.90022951213E+02 0.  0.
        254    2    1    2    0    0  0.56676082936E+01  0.13797789464E+02  0.65783687777E+03  0.11120976030E+04  0.89654292701E+03 0.  0.
        -24    2    4    4    0    0  0.19071738141E+02 -0.24538785616E+03 -0.11982366546E+03  0.28572205170E+03  0.81856269615E+02 0.  0.
         24    2    4    4    0    0 -0.13404129847E+02  0.25918564563E+03  0.77766054323E+03  0.82637555125E+03  0.10384489209E+03 0.  0.
         13    1    3    3    0    0  0.58674468959E+01 -0.27098974480E+02 -0.20479158602E+03  0.20666004707E+03  0.00000000000E+00 0.  1.
        -13    1    3    3    0    0 -0.11535055189E+02  0.13301185016E+02 -0.71273519870E-01  0.17606365353E+02  0.00000000000E+00 0. -1.
          4    1    6    6  502    0 -0.18063258139E+02  0.26834148310E+03  0.75566702482E+03  0.80210104429E+03  0.00000000000E+00 0. -1.
          1    1    5    5  503    0  0.35642197970E+02 -0.17699658454E+03 -0.51763254219E+02  0.18782329914E+03  0.00000000000E+00 0. -1.
         -2    1    5    5    0  503 -0.16570459829E+02 -0.68391271626E+02 -0.68060411244E+02  0.97898752557E+02  0.00000000000E+00 0.  1.
         -3    1    6    6    0  502  0.46591282924E+01 -0.91558374735E+01  0.21993518407E+02  0.24274506961E+02  0.00000000000E+00 0.  1.
<mgrwt>
<rscale>  0 0.12572523E+04</rscale>
<asrwt>0</asrwt>
<pdfrwt beam="1">  1        1 0.13764139E+00 0.12572523E+04</pdfrwt>
<pdfrwt beam="2">  1       -1 0.67953077E-01 0.12572523E+04</pdfrwt>
<totfact> 0.39732822E+01</totfact>
</mgrwt>
</event>
<event>
12    1  0.2404191E-008  0.1250628E+04  0.7818608E-02  0.9069661E-01
         -2   -1    0    0    0  501 -0.00000000000E+00  0.00000000000E+00  0.26159686145E+03  0.26159686145E+03  0.00000000000E+00 0.  1.
          2   -1    0    0  501    0  0.00000000000E+00 -0.00000000000E+00 -0.14947337279E+04  0.14947337279E+04  0.00000000000E+00 0. -1.
         23    2    1    2    0    0  0.53122111346E+01 -0.28867810260E+03 -0.51443592173E+03  0.59706203816E+03  0.92062442578E+02 0.  0.
        254    2    1    2    0    0 -0.53122111346E+01  0.28867810260E+03 -0.71870094468E+03  0.11592685512E+04  0.86255971348E+03 0.  0.
        -24    2    4    4    0    0 -0.14898056673E+03  0.56553256528E+03 -0.46822589526E+03  0.75345886621E+03  0.80265075964E+02 0.  0.
         24    2    4    4    0    0  0.14366835560E+03 -0.27685446268E+03 -0.25047504942E+03  0.40580968495E+03  0.68225802405E+02 0.  0.
         11    1    3    3    0    0  0.54078794237E+01 -0.84220719438E+02 -0.77171870426E+02  0.11435852538E+03  0.00000000000E+00 0.  1.
        -11    1    3    3    0    0 -0.95668289090E-01 -0.20445738316E+03 -0.43726405130E+03  0.48270351277E+03  0.00000000000E+00 0. -1.
          2    1    6    6  502    0 -0.24435023856E+01 -0.14650284716E+02  0.19816917692E-01  0.14852674469E+02  0.00000000000E+00 0. -1.
          1    1    5    5  503    0 -0.29985527404E+02  0.93528644511E+02 -0.43417313435E+02  0.10738622958E+03  0.00000000000E+00 0. -1.
         -2    1    5    5    0  503 -0.11899503933E+03  0.47200392077E+03 -0.42480858182E+03  0.64607263663E+03  0.00000000000E+00 0.  1.
         -1    1    6    6    0  502  0.14611185798E+03 -0.26220417796E+03 -0.25049486634E+03  0.39095701049E+03  0.00000000000E+00 0.  1.
<mgrwt>
<rscale>  0 0.12506281E+04</rscale>
<asrwt>0</asrwt>
<pdfrwt beam="1">  1        2 0.22995903E+00 0.12506281E+04</pdfrwt>
<pdfrwt beam="2">  1       -2 0.40245671E-01 0.12506281E+04</pdfrwt>
<totfact> 0.73418451E+01</totfact>
</mgrwt>
</event>
<event>
11    1  0.2404191E-008  0.1510528E+04  0.7818608E-02  0.8877482E-01
         -2   -1    0    0    0  501 -0.00000000000E+00  0.00000000000E+00  0.34935402845E+03  0.34935402845E+03  0.00000000000E+00 0.  1.
          2   -1    0    0  501    0  0.00000000000E+00 -0.00000000000E+00 -0.16327963343E+04  0.16327963343E+04  0.00000000000E+00 0. -1.
         23    2    1    2    0    0  0.19482614555E+03  0.39371406253E+03 -0.69847754244E+03  0.83014187451E+03  0.91086028041E+02 0.  0.
        254    2    1    2    0    0 -0.19482614555E+03 -0.39371406253E+03 -0.58496476337E+03  0.11520084882E+04  0.88992797038E+03 0.  0.
        -24    2    4    4    0    0 -0.44135487250E+03 -0.29250635155E+03 -0.73086398609E+02  0.54050754960E+03  0.80328701812E+02 0.  0.
         11    1    3    3    0    0  0.14461067159E+03  0.27661220674E+03 -0.56583586303E+03  0.64621728787E+03  0.00000000000E+00 0. -1.
        -11    1    3    3    0    0  0.50215473962E+02  0.11710185578E+03 -0.13264167941E+03  0.18392458664E+03  0.00000000000E+00 0.  1.
          2    1    4    4  502    0  0.28036734346E+03 -0.96802421902E+02 -0.42597198391E+03  0.51906520519E+03  0.00000000000E+00 0. -1.
          3    1    5    5  503    0 -0.42336930044E+03 -0.27825558295E+03 -0.86459003360E+02  0.51394833715E+03  0.00000000000E+00 0. -1.
         -4    1    5    5    0  503 -0.17985572060E+02 -0.14250768601E+02  0.13372604751E+02  0.26559212448E+02  0.00000000000E+00 0.  1.
         -3    1    4    4    0  502 -0.33838616514E+02 -0.44052890724E+01 -0.85906380846E+02  0.92435733401E+02  0.00000000000E+00 0.  1.
<mgrwt>
<rscale>  0 0.15105284E+04</rscale>
<asrwt>0</asrwt>
<pdfrwt beam="1">  1        2 0.25119944E+00 0.15105284E+04</pdfrwt>
<pdfrwt beam="2">  1       -2 0.53746774E-01 0.15105284E+04</pdfrwt>
<totfact> 0.33656451E+01</totfact>
</mgrwt>
</event>
<event>
12    1  0.2404191E-008  0.2055564E+04  0.7818608E-02  0.8581074E-01
          1   -1    0    0  501    0  0.00000000000E+00  0.00000000000E+00  0.66245099253E+03  0.66245099253E+03  0.00000000000E+00 0. -1.
         -1   -1    0    0    0  501 -0.00000000000E+00 -0.00000000000E+00 -0.15945872771E+04  0.15945872771E+04  0.00000000000E+00 0.  1.
         23    2    1    2    0    0  0.52111675677E+03 -0.90709386298E+02  0.31298169015E+03  0.62122981893E+03  0.90432751856E+02 0.  0.
        254    2    1    2    0    0 -0.52111675677E+03  0.90709386298E+02 -0.12451179747E+04  0.16358084507E+04  0.91965191756E+03 0.  0.
        -24    2    4    4    0    0  0.12683922388E+02  0.35141826138E+03 -0.15733377219E+03  0.39261645136E+03  0.75750153063E+02 0.  0.
         24    2    4    4    0    0 -0.53380067916E+03 -0.26070887508E+03 -0.10877842025E+04  0.12431919993E+04  0.96641571469E+02 0.  0.
         13    1    3    3    0    0  0.21797200694E+03  0.70701965004E+01  0.12960712472E+03  0.25369231417E+03  0.00000000000E+00 0.  1.
        -13    1    3    3    0    0  0.30314474983E+03 -0.97779582798E+02  0.18337456543E+03  0.36753750476E+03  0.00000000000E+00 0. -1.
          4    1    6    6  502    0 -0.52763079978E+03 -0.24691342290E+03 -0.10285877440E+04  0.11820969700E+04  0.00000000000E+00 0. -1.
          1    1    5    5  503    0  0.25163271074E+02  0.34320866023E+03 -0.15527006680E+03  0.37753697609E+03  0.00000000000E+00 0. -1.
         -2    1    5    5    0  503 -0.12479348686E+02  0.82096011497E+01 -0.20637053954E+01  0.15079475277E+02  0.00000000000E+00 0.  1.
         -3    1    6    6    0  502 -0.61698793795E+01 -0.13795452185E+02 -0.59196458535E+02  0.61095029385E+02  0.00000000000E+00 0.  1.
<mgrwt>
<rscale>  0 0.20555641E+04</rscale>
<asrwt>0</asrwt>
<pdfrwt beam="1">  1        1 0.10191554E+00 0.20555641E+04</pdfrwt>
<pdfrwt beam="2">  1       -1 0.24532112E+00 0.20555641E+04</pdfrwt>
<totfact> 0.20448141E+00</totfact>
</mgrwt>
</event>
<event>
11    1  0.2404191E-008  0.1808905E+04  0.7818608E-02  0.8701578E-01
         -2   -1    0    0    0  501 -0.00000000000E+00  0.00000000000E+00  0.34413114939E+03  0.34413114939E+03  0.00000000000E+00 0.  1.
          2   -1    0    0  501    0  0.00000000000E+00 -0.00000000000E+00 -0.23770999432E+04  0.23770999432E+04  0.00000000000E+00 0. -1.
         23    2    1    2    0    0 -0.68717835057E+02 -0.34788988535E+03  0.99872147260E+02  0.37950088751E+03  0.91087675536E+02 0.  0.
        254    2    1    2    0    0  0.68717835057E+02  0.34788988535E+03 -0.21328409411E+04  0.23417302051E+04  0.89941111865E+03 0.  0.
        -24    2    4    4    0    0  0.43705624571E+03  0.91191191356E+02 -0.13963601072E+04  0.14682213212E+04  0.80736012096E+02 0.  0.
         13    1    3    3    0    0  0.29309983160E+00 -0.28654768333E+01 -0.10380992502E+02  0.10773201489E+02  0.00000000000E+00 0. -1.
        -13    1    3    3    0    0 -0.69010934888E+02 -0.34502440852E+03  0.11025313976E+03  0.36872768602E+03  0.00000000000E+00 0.  1.
          2    1    4    4  502    0 -0.17126331211E+03  0.20268199340E+03 -0.41535806760E+03  0.49288278205E+03  0.00000000000E+00 0. -1.
          1    1    5    5  503    0  0.12738058190E+03 -0.85681940380E+01 -0.35792785514E+03  0.38001523138E+03  0.00000000000E+00 0. -1.
         -2    1    5    5    0  503  0.30967566381E+03  0.99759385394E+02 -0.10384322521E+04  0.10882060898E+04  0.00000000000E+00 0.  1.
         -1    1    4    4    0  502 -0.19707509854E+03  0.54016700600E+02 -0.32112276627E+03  0.38062610188E+03  0.00000000000E+00 0.  1.
<mgrwt>
<rscale>  0 0.18089048E+04</rscale>
<asrwt>0</asrwt>
<pdfrwt beam="1">  1        2 0.36570769E+00 0.18089048E+04</pdfrwt>
<pdfrwt beam="2">  1       -2 0.52943253E-01 0.18089048E+04</pdfrwt>
<totfact> 0.13015496E+01</totfact>
</mgrwt>
</event>
<event>
12    1  0.2404191E-008  0.1734087E+04  0.7818608E-02  0.8742159E-01
         -2   -1    0    0    0  501 -0.00000000000E+00  0.00000000000E+00  0.38869428380E+03  0.38869428380E+03  0.00000000000E+00 0. -1.
          2   -1    0    0  501    0  0.00000000000E+00 -0.00000000000E+00 -0.19340758904E+04  0.19340758904E+04  0.00000000000E+00 0.  1.
         23    2    1    2    0    0  0.57728668964E+03  0.19140478986E+03 -0.35751290704E+03  0.71172800393E+03  0.94050822739E+02 0.  0.
        254    2    1    2    0    0 -0.57728668964E+03 -0.19140478986E+03 -0.11878686995E+04  0.16110421703E+04  0.90251266549E+03 0.  0.
        -24    2    4    4    0    0 -0.75795019880E+03 -0.95386386647E+02 -0.58241733560E+03  0.96401361778E+03  0.80778931819E+02 0.  0.
         24    2    4    4    0    0  0.18066350916E+03 -0.96018403216E+02 -0.60545136394E+03  0.64702855248E+03  0.10107302471E+03 0.  0.
         11    1    3    3    0    0  0.36459498497E+03  0.72503406407E+02 -0.21352237609E+03  0.42869342437E+03  0.00000000000E+00 0. -1.
        -11    1    3    3    0    0  0.21269170467E+03  0.11890138346E+03 -0.14399053095E+03  0.28303457956E+03  0.00000000000E+00 0.  1.
          2    1    6    6  502    0 -0.23040465374E+00 -0.22053929307E+02 -0.19831736662E+02  0.29660186500E+02  0.00000000000E+00 0. -1.
          1    1    5    5  503    0 -0.17389367635E+02 -0.40743037648E+01 -0.68452795126E+00  0.17873405843E+02  0.00000000000E+00 0. -1.
         -2    1    5    5    0  503 -0.74056083117E+03 -0.91312082882E+02 -0.58173280765E+03  0.94614021193E+03  0.00000000000E+00 0.  1.
         -1    1    6    6    0  502  0.18089391381E+03 -0.73964473909E+02 -0.58561962728E+03  0.61736836598E+03  0.00000000000E+00 0.  1.
<mgrwt>
<rscale>  0 0.17340868E+04</rscale>
<asrwt>0</asrwt>
<pdfrwt beam="1">  1        2 0.29755014E+00 0.17340868E+04</pdfrwt>
<pdfrwt beam="2">  1       -2 0.59799120E-01 0.17340868E+04</pdfrwt>
<totfact> 0.17995025E+01</totfact>
</mgrwt>
</event>
<event>
11    1  0.2404191E-008  0.1163383E+04  0.7818608E-02  0.9145526E-01
         -2   -1    0    0    0  501 -0.00000000000E+00  0.00000000000E+00  0.29871868305E+03  0.29871868305E+03  0.00000000000E+00 0.  1.
          2   -1    0    0  501    0  0.00000000000E+00 -0.00000000000E+00 -0.11327203473E+04  0.11327203473E+04  0.00000000000E+00 0. -1.
         23    2    1    2    0    0  0.14628977697E+03 -0.11767951448E+02 -0.25769621082E+02  0.16832299976E+03  0.78290327313E+02 0.  0.
        254    2    1    2    0    0 -0.14628977697E+03  0.11767951448E+02 -0.80823204319E+03  0.12631160306E+04  0.95952273950E+03 0.  0.
        -24    2    4    4    0    0 -0.19898440591E+03 -0.33815446946E+03 -0.76098247213E+03  0.86027953562E+03  0.83924475003E+02 0.  0.
         11    1    3    3    0    0  0.12883861640E+03  0.38201919023E+01  0.58015914391E+01  0.12902573932E+03  0.00000000000E+00 0.  1.
        -11    1    3    3    0    0  0.17451160561E+02 -0.15588143350E+02 -0.31571212521E+02  0.39297260440E+02  0.00000000000E+00 0. -1.
          2    1    4    4  502    0  0.81561622885E+02  0.34475765278E+03 -0.86746299911E+01  0.35438028541E+03  0.00000000000E+00 0. -1.
          1    1    5    5  503    0 -0.64291704906E+02 -0.17986490980E+03 -0.41137256560E+03  0.45355506482E+03  0.00000000000E+00 0. -1.
         -2    1    5    5    0  503 -0.13469270101E+03 -0.15828955966E+03 -0.34960990653E+03  0.40672447080E+03  0.00000000000E+00 0.  1.
         -1    1    4    4    0  502 -0.28866993937E+02  0.51647681290E+01 -0.38574941065E+02  0.48456209581E+02  0.00000000000E+00 0.  1.
<mgrwt>
<rscale>  0 0.11633825E+04</rscale>
<asrwt>0</asrwt>
<pdfrwt beam="1">  1        2 0.17426467E+00 0.11633825E+04</pdfrwt>
<pdfrwt beam="2">  1       -2 0.45956720E-01 0.11633825E+04</pdfrwt>
<totfact> 0.92322877E+01</totfact>
</mgrwt>
</event>
<event>
11    1  0.2404191E-008  0.1920163E+04  0.7818608E-02  0.8644884E-01
         -2   -1    0    0    0  501 -0.00000000000E+00  0.00000000000E+00  0.65930435292E+03  0.65930435292E+03  0.00000000000E+00 0. -1.
          2   -1    0    0  501    0  0.00000000000E+00 -0.00000000000E+00 -0.13980745603E+04  0.13980745603E+04  0.00000000000E+00 0.  1.
         23    2    1    2    0    0 -0.40650464392E+03 -0.21185315078E+03  0.34007020680E+03  0.57788596601E+03  0.90424892218E+02 0.  0.
        254    2    1    2    0    0  0.40650464392E+03  0.21185315078E+03 -0.10788404142E+04  0.14794929472E+04  0.90270424754E+03 0.  0.
        -24    2    4    4    0    0  0.31895448935E+03 -0.19337110382E+03 -0.11315913847E+03  0.39819540071E+03  0.81426263930E+02 0.  0.
         13    1    3    3    0    0 -0.43387630610E+02  0.18804198227E+01  0.50606638802E+02  0.66686238157E+02  0.00000000000E+00 0.  1.
        -13    1    3    3    0    0 -0.36311701331E+03 -0.21373357060E+03  0.28946356800E+03  0.51119972786E+03  0.00000000000E+00 0. -1.
          4    1    4    4  502    0  0.39386430639E+02  0.16228783853E+03 -0.13578803439E+03  0.21523713373E+03  0.00000000000E+00 0. -1.
          3    1    5    5  503    0  0.63116237021E+02 -0.66017908046E+02 -0.54803622439E+02  0.10651507213E+03  0.00000000000E+00 0. -1.
         -4    1    5    5    0  503  0.25583825233E+03 -0.12735319577E+03 -0.58355516032E+02  0.29168032858E+03  0.00000000000E+00 0.  1.
         -3    1    4    4    0  502  0.48163723932E+02  0.24293641607E+03 -0.82989324134E+03  0.86606041278E+03  0.00000000000E+00 0.  1.
<mgrwt>
<rscale>  0 0.19201632E+04</rscale>
<asrwt>0</asrwt>
<pdfrwt beam="1">  1        2 0.21508839E+00 0.19201632E+04</pdfrwt>
<pdfrwt beam="2">  1       -2 0.10143144E+00 0.19201632E+04</pdfrwt>
<totfact> 0.10833722E+01</totfact>
</mgrwt>
</event>
<event>
11    1  0.2404191E-008  0.1587626E+04  0.7818608E-02  0.8828186E-01
          1   -1    0    0  501    0  0.00000000000E+00  0.00000000000E+00  0.14890323141E+04  0.14890323141E+04  0.00000000000E+00 0. -1.
         -1   -1    0    0    0  501 -0.00000000000E+00 -0.00000000000E+00 -0.42318702782E+03  0.42318702782E+03  0.00000000000E+00 0.  1.
         23    2    1    2    0    0 -0.42284708204E+03 -0.30733830011E+03  0.22657204744E+03  0.58122655854E+03  0.11503449122E+03 0.  0.
        254    2    1    2    0    0  0.42284708204E+03  0.30733830011E+03  0.83927323887E+03  0.13309927834E+04  0.89101388009E+03 0.  0.
        -24    2    4    4    0    0  0.55893729869E+03  0.21673567261E+02  0.80266941155E+03  0.98149134342E+03  0.78526591592E+02 0.  0.
         11    1    3    3    0    0 -0.35226216271E+02 -0.30627799344E+02 -0.12514817954E+02  0.48327725726E+02  0.00000000000E+00 0.  1.
        -11    1    3    3    0    0 -0.38762086577E+03 -0.27671050077E+03  0.23908686540E+03  0.53289883282E+03  0.00000000000E+00 0. -1.
          4    1    4    4  502    0 -0.82804695020E+02  0.34623158504E+02  0.22235531913E+02  0.92465125867E+02  0.00000000000E+00 0. -1.
          3    1    5    5  503    0  0.26429022673E+03  0.43311935669E+02  0.34505271170E+03  0.43679127918E+03  0.00000000000E+00 0. -1.
         -4    1    5    5    0  503  0.29464707196E+03 -0.21638368407E+02  0.45761669986E+03  0.54470006425E+03  0.00000000000E+00 0.  1.
         -3    1    4    4    0  502 -0.53285521631E+02  0.25104157434E+03  0.14368295401E+02  0.25703631412E+03  0.00000000000E+00 0.  1.
<mgrwt>
<rscale>  0 0.15876261E+04</rscale>
<asrwt>0</asrwt>
<pdfrwt beam="1">  1        1 0.22908189E+00 0.15876261E+04</pdfrwt>
<pdfrwt beam="2">  1       -1 0.65105697E-01 0.15876261E+04</pdfrwt>
<totfact> 0.15293656E+01</totfact>
</mgrwt>
</event>
<event>
12    1  0.2404191E-008  0.1469280E+04  0.7818608E-02  0.8905142E-01
         -2   -1    0    0    0  501 -0.00000000000E+00  0.00000000000E+00  0.13217508184E+03  0.13217508184E+03  0.00000000000E+00 0.  1.
          2   -1    0    0  501    0  0.00000000000E+00 -0.00000000000E+00 -0.40831885563E+04  0.40831885563E+04  0.00000000000E+00 0. -1.
         23    2    1    2    0    0  0.14266901087E+03 -0.26027530588E+03 -0.24990981991E+03  0.39890178438E+03  0.92574478002E+02 0.  0.
        254    2    1    2    0    0 -0.14266901087E+03  0.26027530588E+03 -0.37011036545E+04  0.38164618537E+04  0.88267499007E+03 0.  0.
        -24    2    4    4    0    0 -0.26449559755E+02 -0.30674924645E+03 -0.88275480908E+03  0.93847355040E+03  0.81742721046E+02 0.  0.
         24    2    4    4    0    0 -0.11621945111E+03  0.56702455233E+03 -0.28183488454E+04  0.28779883033E+04  0.68575912849E+02 0.  0.
         13    1    3    3    0    0  0.32825431774E+02 -0.69627853021E+02 -0.17661247659E+02  0.78977633267E+02  0.00000000000E+00 0.  1.
        -13    1    3    3    0    0  0.10984357909E+03 -0.19064745286E+03 -0.23224857226E+03  0.31992415111E+03  0.00000000000E+00 0. -1.
          4    1    6    6  502    0 -0.11282729467E+03  0.46937098108E+03 -0.24342859532E+04  0.24816903953E+04  0.00000000000E+00 0. -1.
          1    1    5    5  503    0  0.72356214207E+01 -0.19865040498E+03 -0.46632539785E+03  0.50692574831E+03  0.00000000000E+00 0. -1.
         -2    1    5    5    0  503 -0.33685181176E+02 -0.10809884148E+03 -0.41642941123E+03  0.43154780210E+03  0.00000000000E+00 0.  1.
         -3    1    6    6    0  502 -0.33921564382E+01  0.97653571255E+02 -0.38406289226E+03  0.39629790803E+03  0.00000000000E+00 0.  1.
<mgrwt>
<rscale>  0 0.14692798E+04</rscale>
<asrwt>0</asrwt>
<pdfrwt beam="1">  1        2 0.62818289E+00 0.14692798E+04</pdfrwt>
<pdfrwt beam="2">  1       -2 0.20334627E-01 0.14692798E+04</pdfrwt>
<totfact> 0.60368076E+00</totfact>
</mgrwt>
</event>
<event>
11    1  0.2404191E-008  0.1243416E+04  0.7818608E-02  0.9075681E-01
          2   -1    0    0  501    0  0.00000000000E+00  0.00000000000E+00  0.86466783266E+03  0.86466783266E+03  0.00000000000E+00 0. -1.
         -2   -1    0    0    0  501 -0.00000000000E+00 -0.00000000000E+00 -0.44701631144E+03  0.44701631144E+03  0.00000000000E+00 0.  1.
         23    2    1    2    0    0  0.22661157970E+03  0.58965591794E+02  0.28241836723E+03  0.37783534830E+03  0.90386211378E+02 0.  0.
        254    2    1    2    0    0 -0.22661157970E+03 -0.58965591794E+02  0.13523315399E+03  0.93384879580E+03  0.89384328515E+03 0.  0.
        -24    2    4    4    0    0 -0.48103619965E+02  0.24188461427E+03  0.39234794416E+03  0.47055203207E+03  0.81609930305E+02 0.  0.
         11    1    3    3    0    0  0.19580658097E+03  0.42255931007E+02  0.17899385974E+03  0.26863466396E+03  0.00000000000E+00 0. -1.
        -11    1    3    3    0    0  0.30804998725E+02  0.16709660786E+02  0.10342450749E+03  0.10920068434E+03  0.00000000000E+00 0.  1.
          4    1    4    4  502    0 -0.70448134993E+02 -0.24015295553E+03 -0.22182964352E+03  0.33443201479E+03  0.00000000000E+00 0. -1.
          1    1    5    5  503    0 -0.58580488921E+02  0.16769137566E+03  0.22099593798E+03  0.28353355314E+03  0.00000000000E+00 0. -1.
         -2    1    5    5    0  503  0.10476868956E+02  0.74193238601E+02  0.17135200618E+03  0.18701847892E+03  0.00000000000E+00 0.  1.
         -3    1    4    4    0  502 -0.10805982474E+03 -0.60697250526E+02 -0.35285146649E+02  0.12886474894E+03  0.00000000000E+00 0.  1.
<mgrwt>
<rscale>  0 0.12434157E+04</rscale>
<asrwt>0</asrwt>
<pdfrwt beam="1">  1        2 0.13302582E+00 0.12434157E+04</pdfrwt>
<pdfrwt beam="2">  1       -2 0.68771740E-01 0.12434157E+04</pdfrwt>
<totfact> 0.58958981E+01</totfact>
</mgrwt>
</event>
<event>
12    1  0.2404191E-008  0.2497360E+04  0.7818608E-02  0.8403927E-01
         -2   -1    0    0    0  501 -0.00000000000E+00  0.00000000000E+00  0.62300358517E+03  0.62300358517E+03  0.00000000000E+00 0. -1.
          2   -1    0    0  501    0  0.00000000000E+00 -0.00000000000E+00 -0.25027167014E+04  0.25027167014E+04  0.00000000000E+00 0.  1.
         23    2    1    2    0    0 -0.10022726979E+04  0.26274808878E+03 -0.12152566968E+04  0.15999441798E+04  0.96878378432E+02 0.  0.
        254    2    1    2    0    0  0.10022726979E+04 -0.26274808878E+03 -0.66445641940E+03  0.15257761068E+04  0.90161148819E+03 0.  0.
        -24    2    4    4    0    0  0.23559223252E+03 -0.46873401072E+03 -0.83362588504E+02  0.53737617243E+03  0.81293029828E+02 0.  0.
         24    2    4    4    0    0  0.76668046535E+03  0.20598592194E+03 -0.58109383089E+03  0.98839993433E+03  0.95053952592E+02 0.  0.
         13    1    3    3    0    0 -0.55927287154E+03  0.18188822984E+03 -0.63597971561E+03  0.86622149111E+03  0.00000000000E+00 0. -1.
        -13    1    3    3    0    0 -0.44299982633E+03  0.80859858942E+02 -0.57927698118E+03  0.73372268865E+03  0.00000000000E+00 0.  1.
          4    1    6    6  502    0  0.67589231263E+03  0.20752758102E+03 -0.53455201304E+03  0.88636559601E+03  0.00000000000E+00 0. -1.
          1    1    5    5  503    0  0.14886897489E+03 -0.27816635612E+03 -0.10447531701E+02  0.31567015107E+03  0.00000000000E+00 0. -1.
         -2    1    5    5    0  503  0.86723257632E+02 -0.19056765460E+03 -0.72915056804E+02  0.22170602135E+03  0.00000000000E+00 0.  1.
         -3    1    6    6    0  502  0.90788152724E+02 -0.15416590745E+01 -0.46541817851E+02  0.10203433832E+03  0.00000000000E+00 0.  1.
<mgrwt>
<rscale>  0 0.24973598E+04</rscale>
<asrwt>0</asrwt>
<pdfrwt beam="1">  1        2 0.38503334E+00 0.24973598E+04</pdfrwt>
<pdfrwt beam="2">  1       -2 0.95846706E-01 0.24973598E+04</pdfrwt>
<totfact> 0.28239998E+00</totfact>
</mgrwt>
</event>
<event>
11    1  0.2404191E-008  0.1507954E+04  0.7818608E-02  0.8879181E-01
          2   -1    0    0  501    0  0.00000000000E+00  0.00000000000E+00  0.19882155281E+04  0.19882155281E+04  0.00000000000E+00 0. -1.
         -2   -1    0    0    0  501 -0.00000000000E+00 -0.00000000000E+00 -0.28592543522E+03  0.28592543522E+03  0.00000000000E+00 0.  1.
         23    2    1    2    0    0  0.19378239114E+03  0.46347555392E+02 -0.10628161665E+03  0.24318320988E+03  0.90236248402E+02 0.  0.
        254    2    1    2    0    0 -0.19378239114E+03 -0.46347555392E+02  0.18085717095E+04  0.20309577534E+04  0.90230707448E+03 0.  0.
        -24    2    4    4    0    0 -0.18185835019E+03 -0.82455861791E+02  0.14353022741E+04  0.14513015140E+04  0.79448334646E+02 0.  0.
         13    1    3    3    0    0  0.90738921540E+02 -0.24092928036E+02 -0.43746840843E+02  0.10357512803E+03  0.00000000000E+00 0. -1.
        -13    1    3    3    0    0  0.10304346960E+03  0.70440483429E+02 -0.62534775812E+02  0.13960808185E+03  0.00000000000E+00 0.  1.
          2    1    4    4  502    0  0.33475316721E+01 -0.89442490956E+02  0.43130941071E+03  0.44049855042E+03  0.00000000000E+00 0. -1.
          1    1    5    5  503    0 -0.69801800641E+02  0.72013181188E+01  0.54675187101E+03  0.55123657245E+03  0.00000000000E+00 0. -1.
         -2    1    5    5    0  503 -0.11205654955E+03 -0.89657179910E+02  0.88855040312E+03  0.90006494160E+03  0.00000000000E+00 0.  1.
         -1    1    4    4    0  502 -0.15271572614E+02  0.12555079735E+03 -0.58039975347E+02  0.13915768892E+03  0.00000000000E+00 0.  1.
<mgrwt>
<rscale>  0 0.15079541E+04</rscale>
<asrwt>0</asrwt>
<pdfrwt beam="1">  1        2 0.30587930E+00 0.15079541E+04</pdfrwt>
<pdfrwt beam="2">  1       -2 0.43988530E-01 0.15079541E+04</pdfrwt>
<totfact> 0.32109762E+01</totfact>
</mgrwt>
</event>
<event>
12    1  0.2404191E-008  0.1804269E+04  0.7818608E-02  0.8704032E-01
         -1   -1    0    0    0  501 -0.00000000000E+00  0.00000000000E+00  0.76992278145E+03  0.76992278145E+03  0.00000000000E+00 0.  1.
          1   -1    0    0  501    0  0.00000000000E+00 -0.00000000000E+00 -0.10570501074E+04  0.10570501074E+04  0.00000000000E+00 0. -1.
         23    2    1    2    0    0  0.33947872401E+03  0.50440120191E+03  0.10572797403E+03  0.62337078301E+03  0.88013363038E+02 0.  0.
        254    2    1    2    0    0 -0.33947872401E+03 -0.50440120191E+03 -0.39285529998E+03  0.12036021058E+04  0.96159053964E+03 0.  0.
        -24    2    4    4    0    0 -0.49715377597E+02 -0.29344169255E+03  0.29392845327E+03  0.42587181410E+03  0.79957618192E+02 0.  0.
         24    2    4    4    0    0 -0.28976334641E+03 -0.21095950936E+03 -0.68678375325E+03  0.77773029174E+03  0.68744246676E+02 0.  0.
         11    1    3    3    0    0  0.16692243736E+03  0.31498188406E+03  0.83839938395E+02  0.36620461855E+03  0.00000000000E+00 0. -1.
        -11    1    3    3    0    0  0.17255628665E+03  0.18941931785E+03  0.21888035639E+02  0.25716616446E+03  0.00000000000E+00 0.  1.
          4    1    6    6  502    0 -0.11511044050E+03 -0.12461117152E+03 -0.29980654047E+03  0.34447397476E+03  0.00000000000E+00 0. -1.
          3    1    5    5  503    0  0.10043045977E+02 -0.57995616628E+02  0.95660659285E+02  0.11231792402E+03  0.00000000000E+00 0. -1.
         -4    1    5    5    0  503 -0.59758423573E+02 -0.23544607592E+03  0.19826779399E+03  0.31355389008E+03  0.00000000000E+00 0.  1.
         -3    1    6    6    0  502 -0.17465290592E+03 -0.86348337840E+02 -0.38697721278E+03  0.43325631698E+03  0.00000000000E+00 0.  1.
<mgrwt>
<rscale>  0 0.18042693E+04</rscale>
<asrwt>0</asrwt>
<pdfrwt beam="1">  1        1 0.16262309E+00 0.18042693E+04</pdfrwt>
<pdfrwt beam="2">  1       -1 0.11844966E+00 0.18042693E+04</pdfrwt>
<totfact> 0.82410829E+00</totfact>
</mgrwt>
</event>
<event>
11    1  0.2404191E-008  0.1457611E+04  0.7818608E-02  0.8913141E-01
         -1   -1    0    0    0  501 -0.00000000000E+00  0.00000000000E+00  0.81256614409E+03  0.81256614409E+03  0.00000000000E+00 0.  1.
          1   -1    0    0  501    0  0.00000000000E+00 -0.00000000000E+00 -0.65367876848E+03  0.65367876848E+03  0.00000000000E+00 0. -1.
         23    2    1    2    0    0  0.35683620977E+03  0.79412659728E+02  0.31645185005E+03  0.49187982298E+03  0.90363353862E+02 0.  0.
        254    2    1    2    0    0 -0.35683620977E+03 -0.79412659728E+02 -0.15756447444E+03  0.97436508958E+03  0.88933813202E+03 0.  0.
        -24    2    4    4    0    0  0.12049313890E+03  0.12402228489E+03  0.23807447096E+03  0.30495703349E+03  0.80120003004E+02 0.  0.
         13    1    3    3    0    0  0.11556373626E+03  0.41735293635E+02  0.16050834727E+03  0.20213792671E+03  0.00000000000E+00 0.  1.
        -13    1    3    3    0    0  0.24127247351E+03  0.37677366093E+02  0.15594350279E+03  0.28974189627E+03  0.00000000000E+00 0. -1.
          2    1    4    4  502    0 -0.41145356445E+03 -0.12693688887E+03 -0.36337151674E+03  0.56342334761E+03  0.00000000000E+00 0. -1.
          3    1    5    5  503    0  0.96281480869E+02  0.88066773979E+02  0.22426634648E+03  0.25946343558E+03  0.00000000000E+00 0. -1.
         -4    1    5    5    0  503  0.24211658028E+02  0.35955510912E+02  0.13808124477E+02  0.45493597912E+02  0.00000000000E+00 0.  1.
         -3    1    4    4    0  502 -0.65875784218E+02 -0.76498055752E+02 -0.32267428661E+02  0.10598470848E+03  0.00000000000E+00 0.  1.
<mgrwt>
<rscale>  0 0.14576107E+04</rscale>
<asrwt>0</asrwt>
<pdfrwt beam="1">  1        1 0.10056596E+00 0.14576107E+04</pdfrwt>
<pdfrwt beam="2">  1       -1 0.12501018E+00 0.14576107E+04</pdfrwt>
<totfact> 0.16407397E+01</totfact>
</mgrwt>
</event>
<event>
11    1  0.2404191E-008  0.1620378E+04  0.7818608E-02  0.8808126E-01
          2   -1    0    0  501    0  0.00000000000E+00  0.00000000000E+00  0.31297032946E+04  0.31297032946E+04  0.00000000000E+00 0. -1.
         -2   -1    0    0    0  501 -0.00000000000E+00 -0.00000000000E+00 -0.20973420351E+03  0.20973420351E+03  0.00000000000E+00 0.  1.
         23    2    1    2    0    0 -0.32618631377E+02  0.14662837100E+03 -0.87848206125E+02  0.19540306276E+03  0.88888668117E+02 0.  0.
        254    2    1    2    0    0  0.32618631377E+02 -0.14662837100E+03  0.30078172972E+04  0.31440344353E+04  0.90300818545E+03 0.  0.
        -24    2    4    4    0    0  0.34648324215E+03  0.17674454135E+03  0.14163427102E+04  0.14708715543E+04  0.78403994972E+02 0.  0.
         13    1    3    3    0    0 -0.41677900913E+02  0.13994872838E+03 -0.47561249235E+02  0.15357332590E+03  0.00000000000E+00 0.  1.
        -13    1    3    3    0    0  0.90592695360E+01  0.66796426257E+01 -0.40286956890E+02  0.41829736858E+02  0.00000000000E+00 0. -1.
          4    1    4    4  502    0  0.14541341843E+02  0.30166622244E+02  0.12036127494E+03  0.12493323107E+03  0.00000000000E+00 0. -1.
          3    1    5    5  503    0  0.19507683888E+03  0.89075483075E+02  0.91778358882E+03  0.94250524172E+03  0.00000000000E+00 0. -1.
         -4    1    5    5    0  503  0.15140640326E+03  0.87669058275E+02  0.49855912141E+03  0.52836631258E+03  0.00000000000E+00 0.  1.
         -3    1    4    4    0  502 -0.32840595261E+03 -0.35353953460E+03  0.14711133120E+04  0.15482296500E+04  0.00000000000E+00 0.  1.
<mgrwt>
<rscale>  0 0.16203775E+04</rscale>
<asrwt>0</asrwt>
<pdfrwt beam="1">  1        2 0.48149278E+00 0.16203775E+04</pdfrwt>
<pdfrwt beam="2">  1       -2 0.32266803E-01 0.16203775E+04</pdfrwt>
<totfact> 0.12418209E+01</totfact>
</mgrwt>
</event>
<event>
11    1  0.2404191E-008  0.1043558E+04  0.7818608E-02  0.9262020E-01
         -1   -1    0    0    0  501 -0.00000000000E+00  0.00000000000E+00  0.18839391825E+03  0.18839391825E+03  0.00000000000E+00 0.  1.
          1   -1    0    0  501    0  0.00000000000E+00 -0.00000000000E+00 -0.14451283596E+04  0.14451283596E+04  0.00000000000E+00 0. -1.
         23    2    1    2    0    0  0.27067826416E+02  0.50057269700E+02 -0.28672056171E+03  0.30663341359E+03  0.92611944963E+02 0.  0.
        254    2    1    2    0    0 -0.27067826416E+02 -0.50057269700E+02 -0.97001387964E+03  0.13268888643E+04  0.90358659458E+03 0.  0.
        -24    2    4    4    0    0 -0.10650358898E+02 -0.27244217571E+03 -0.10179616337E+04  0.10567063553E+04  0.77744867732E+02 0.  0.
         13    1    3    3    0    0 -0.17234120672E+02  0.51478147828E-01 -0.62762467983E+01  0.18341451394E+02  0.00000000000E+00 0.  1.
        -13    1    3    3    0    0  0.44301947088E+02  0.50005791552E+02 -0.28044431491E+03  0.28829196220E+03  0.00000000000E+00 0. -1.
          4    1    4    4  502    0 -0.44218150305E+02  0.13351027506E+03 -0.35597185309E+02  0.14507721381E+03  0.00000000000E+00 0. -1.
          1    1    5    5  503    0  0.12379797723E+02 -0.37637030845E+01 -0.67586456284E+02  0.68813907937E+02  0.00000000000E+00 0. -1.
         -2    1    5    5    0  503 -0.23030156621E+02 -0.26867847263E+03 -0.95037517737E+03  0.98789244735E+03  0.00000000000E+00 0.  1.
         -3    1    4    4    0  502  0.27800682787E+02  0.88874630951E+02  0.83544939323E+02  0.12510529516E+03  0.00000000000E+00 0.  1.
<mgrwt>
<rscale>  0 0.10435581E+04</rscale>
<asrwt>0</asrwt>
<pdfrwt beam="1">  1        1 0.22232745E+00 0.10435581E+04</pdfrwt>
<pdfrwt beam="2">  1       -1 0.28983679E-01 0.10435581E+04</pdfrwt>
<totfact> 0.77400895E+01</totfact>
</mgrwt>
</event>
<event>
11    1  0.2404191E-008  0.1947109E+04  0.7818608E-02  0.8631756E-01
         -1   -1    0    0    0  501 -0.00000000000E+00  0.00000000000E+00  0.36751338886E+03  0.36751338886E+03  0.00000000000E+00 0.  1.
          1   -1    0    0  501    0  0.00000000000E+00 -0.00000000000E+00 -0.25789770850E+04  0.25789770850E+04  0.00000000000E+00 0. -1.
         23    2    1    2    0    0 -0.64345124255E+03 -0.37557594196E+03 -0.10881151122E+04  0.13219868600E+04  0.92563334700E+02 0.  0.
        254    2    1    2    0    0  0.64345124255E+03  0.37557594196E+03 -0.11233485840E+04  0.16245036139E+04  0.90664941442E+03 0.  0.
        -24    2    4    4    0    0  0.24624835826E+03 -0.15647630063E+03 -0.82232685452E+03  0.87656289461E+03  0.83773300803E+02 0.  0.
         11    1    3    3    0    0 -0.26276559198E+03 -0.13376568006E+03 -0.35773033259E+03  0.46358386981E+03  0.00000000000E+00 0.  1.
        -11    1    3    3    0    0 -0.38068565057E+03 -0.24181026189E+03 -0.73038477959E+03  0.85840299019E+03  0.00000000000E+00 0. -1.
          4    1    4    4  502    0  0.36311635526E+02  0.16312734056E+03 -0.52810775677E+02  0.17526563308E+03  0.00000000000E+00 0. -1.
          3    1    5    5  503    0  0.13307694078E+03 -0.82465964394E+02 -0.31839064212E+03  0.35479953276E+03  0.00000000000E+00 0. -1.
         -4    1    5    5    0  503  0.11317141748E+03 -0.74010336239E+02 -0.50393621240E+03  0.52176336185E+03  0.00000000000E+00 0.  1.
         -3    1    4    4    0  502  0.36089124876E+03  0.36892490203E+03 -0.24821095379E+03  0.57267508620E+03  0.00000000000E+00 0.  1.
<mgrwt>
<rscale>  0 0.19471093E+04</rscale>
<asrwt>0</asrwt>
<pdfrwt beam="1">  1        1 0.39676569E+00 0.19471093E+04</pdfrwt>
<pdfrwt beam="2">  1       -1 0.56540523E-01 0.19471093E+04</pdfrwt>
<totfact> 0.35241481E+00</totfact>
</mgrwt>
</event>
<event>
11    1  0.2404191E-008  0.1103659E+04  0.7818608E-02  0.9201633E-01
          1   -1    0    0  501    0  0.00000000000E+00  0.00000000000E+00  0.12573798302E+04  0.12573798302E+04  0.00000000000E+00 0. -1.
         -1   -1    0    0    0  501 -0.00000000000E+00 -0.00000000000E+00 -0.24218275191E+03  0.24218275191E+03  0.00000000000E+00 0.  1.
         23    2    1    2    0    0 -0.74180926306E+01 -0.15380593427E+03  0.82365301815E+02  0.19676315919E+03  0.90666445596E+02 0.  0.
        254    2    1    2    0    0  0.74180926306E+01  0.15380593427E+03  0.93283177645E+03  0.13027994229E+04  0.89632578879E+03 0.  0.
        -24    2    4    4    0    0 -0.35450906783E+03 -0.51479790777E+02  0.12664042086E+03  0.38842403337E+03  0.80675804786E+02 0.  0.
         11    1    3    3    0    0 -0.46491697508E+02 -0.11039777760E+03  0.48364738196E+02  0.12918318442E+03  0.00000000000E+00 0.  1.
        -11    1    3    3    0    0  0.39073604878E+02 -0.43408156668E+02  0.34000563620E+02  0.67579974770E+02  0.00000000000E+00 0. -1.
          4    1    4    4  502    0  0.12545887491E+02 -0.14090313687E+02  0.33246925406E+02  0.38226879048E+02  0.00000000000E+00 0. -1.
          3    1    5    5  503    0 -0.49083932358E+02  0.54893234941E+01 -0.75994820657E+01  0.49971163843E+02  0.00000000000E+00 0. -1.
         -4    1    5    5    0  503 -0.30542513547E+03 -0.56969114271E+02  0.13423990293E+03  0.33845286953E+03  0.00000000000E+00 0.  1.
         -3    1    4    4    0  502  0.34938127297E+03  0.21937603873E+03  0.77294443018E+03  0.87614851048E+03  0.00000000000E+00 0.  1.
<mgrwt>
<rscale>  0 0.11036588E+04</rscale>
<asrwt>0</asrwt>
<pdfrwt beam="1">  1        1 0.19344305E+00 0.11036588E+04</pdfrwt>
<pdfrwt beam="2">  1       -1 0.37258886E-01 0.11036588E+04</pdfrwt>
<totfact> 0.66988937E+01</totfact>
</mgrwt>
</event>
<event>
12    1  0.2404191E-008  0.2715650E+04  0.7818608E-02  0.8329945E-01
         -2   -1    0    0    0  501 -0.00000000000E+00  0.00000000000E+00  0.11033850898E+04  0.11033850898E+04  0.00000000000E+00 0.  1.
          2   -1    0    0  501    0  0.00000000000E+00 -0.00000000000E+00 -0.16709386644E+04  0.16709386644E+04  0.00000000000E+00 0. -1.
         23    2    1    2    0    0  0.64036883635E+03 -0.35642574914E+03  0.71317895886E+03  0.10274364115E+04  0.99447428403E+02 0.  0.
        254    2    1    2    0    0 -0.64036883635E+03  0.35642574914E+03 -0.12807325334E+04  0.17468873428E+04  0.93500160695E+03 0.  0.
        -24    2    4    4    0    0 -0.65160099606E+03  0.62491638777E+03 -0.90712583612E+03  0.12823367640E+04  0.80037141280E+02 0.  0.
         24    2    4    4    0    0  0.11232159718E+02 -0.26849063863E+03 -0.37360669726E+03  0.46455057875E+03  0.63339494278E+02 0.  0.
         13    1    3    3    0    0  0.47588061832E+02  0.28773907549E+00  0.51502037327E+02  0.70122509022E+02  0.00000000000E+00 0. -1.
        -13    1    3    3    0    0  0.59278077451E+03 -0.35671348821E+03  0.66167692154E+03  0.95731390244E+03  0.00000000000E+00 0.  1.
          2    1    6    6  502    0  0.27138405862E+02 -0.10685380588E+03 -0.18776016658E+03  0.21773403285E+03  0.00000000000E+00 0. -1.
          3    1    5    5  503    0 -0.47799781822E+03  0.41003884774E+03 -0.61386320870E+03  0.87945540527E+03  0.00000000000E+00 0. -1.
         -4    1    5    5    0  503 -0.17360317785E+03  0.21487754003E+03 -0.29326262743E+03  0.40288135873E+03  0.00000000000E+00 0.  1.
         -1    1    6    6    0  502 -0.15906246144E+02 -0.16163683275E+03 -0.18584653068E+03  0.24681654590E+03  0.00000000000E+00 0.  1.
<mgrwt>
<rscale>  0 0.27156501E+04</rscale>
<asrwt>0</asrwt>
<pdfrwt beam="1">  1        2 0.25706749E+00 0.27156501E+04</pdfrwt>
<pdfrwt beam="2">  1       -2 0.16975155E+00 0.27156501E+04</pdfrwt>
<totfact> 0.19089964E+00</totfact>
</mgrwt>
</event>
<event>
12    1  0.2404191E-008  0.1103755E+04  0.7818608E-02  0.9201540E-01
          1   -1    0    0  501    0  0.00000000000E+00  0.00000000000E+00  0.90897561271E+03  0.90897561271E+03  0.00000000000E+00 0. -1.
         -1   -1    0    0    0  501 -0.00000000000E+00 -0.00000000000E+00 -0.33506814207E+03  0.33506814207E+03  0.00000000000E+00 0.  1.
         23    2    1    2    0    0 -0.21381657413E+02  0.12701278695E+03 -0.20696890759E+02  0.16238326461E+03  0.96698190345E+02 0.  0.
        254    2    1    2    0    0  0.21381657413E+02 -0.12701278695E+03  0.59460436140E+03  0.10816604902E+04  0.89434090038E+03 0.  0.
        -24    2    4    4    0    0 -0.31400926023E+03  0.13130156584E+03  0.53967957542E+03  0.64327847823E+03  0.81922156492E+02 0.  0.
         24    2    4    4    0    0  0.33539091764E+03 -0.25831435279E+03  0.54924785972E+02  0.43838201195E+03  0.99743088945E+02 0.  0.
         11    1    3    3    0    0 -0.31888201191E+02  0.35486860418E+02  0.30851292122E+02  0.56815287231E+02  0.00000000000E+00 0. -1.
        -11    1    3    3    0    0  0.10506543778E+02  0.91525926528E+02 -0.51548182881E+02  0.10556797738E+03  0.00000000000E+00 0.  1.
          4    1    6    6  502    0  0.28452433222E+03 -0.16570904064E+03  0.42832989057E+02  0.33203651415E+03  0.00000000000E+00 0. -1.
          1    1    5    5  503    0 -0.31331408571E+03  0.13797163893E+03  0.52081817825E+03  0.62326035030E+03  0.00000000000E+00 0. -1.
         -2    1    5    5    0  503 -0.69517451397E+00 -0.66700730914E+01  0.18861397172E+02  0.20018127932E+02  0.00000000000E+00 0.  1.
         -3    1    6    6    0  502  0.50866585423E+02 -0.92605312141E+02  0.12091796914E+02  0.10634549780E+03  0.00000000000E+00 0.  1.
<mgrwt>
<rscale>  0 0.11037550E+04</rscale>
<asrwt>0</asrwt>
<pdfrwt beam="1">  1        1 0.13984240E+00 0.11037550E+04</pdfrwt>
<pdfrwt beam="2">  1       -1 0.51548945E-01 0.11037550E+04</pdfrwt>
<totfact> 0.67468957E+01</totfact>
</mgrwt>
</event>
<event>
11    1  0.2404191E-008  0.3172144E+04  0.7818608E-02  0.8196213E-01
         -2   -1    0    0    0  501 -0.00000000000E+00  0.00000000000E+00  0.17031546458E+04  0.17031546458E+04  0.00000000000E+00 0. -1.
          2   -1    0    0  501    0  0.00000000000E+00 -0.00000000000E+00 -0.14770382128E+04  0.14770382128E+04  0.00000000000E+00 0.  1.
         23    2    1    2    0    0 -0.52021755644E+03  0.53740319000E+03 -0.11470715172E+04  0.13748157012E+04  0.12213374654E+03 0.  0.
        254    2    1    2    0    0  0.52021755644E+03 -0.53740319000E+03  0.13731879502E+04  0.18053771575E+04  0.90239295188E+03 0.  0.
        -24    2    4    4    0    0  0.61527251924E+03 -0.65161801453E+03  0.99236752222E+03  0.13395031675E+04  0.79430012080E+02 0.  0.
         13    1    3    3    0    0 -0.31903715664E+03  0.34646497119E+03 -0.61326414322E+03  0.77325001968E+03  0.00000000000E+00 0.  1.
        -13    1    3    3    0    0 -0.20118039980E+03  0.19093821881E+03 -0.53380737397E+03  0.60156568151E+03  0.00000000000E+00 0. -1.
          4    1    4    4  502    0  0.42231111589E+00 -0.57099058174E+02  0.16328676127E+03  0.17298279451E+03  0.00000000000E+00 0. -1.
          3    1    5    5  503    0  0.38260813830E+03 -0.41388523964E+03  0.56663944325E+03  0.79923102901E+03  0.00000000000E+00 0. -1.
         -4    1    5    5    0  503  0.23266438093E+03 -0.23773277489E+03  0.42572807897E+03  0.54027213850E+03  0.00000000000E+00 0.  1.
         -3    1    4    4    0  502 -0.95477273912E+02  0.17131388270E+03  0.21753366669E+03  0.29289119547E+03  0.00000000000E+00 0.  1.
<mgrwt>
<rscale>  0 0.31721441E+04</rscale>
<asrwt>0</asrwt>
<pdfrwt beam="1">  1        2 0.22723665E+00 0.31721441E+04</pdfrwt>
<pdfrwt beam="2">  1       -2 0.26202379E+00 0.31721441E+04</pdfrwt>
<totfact> 0.59858538E-01</totfact>
</mgrwt>
</event>
<event>
11    1  0.2404191E-008  0.1623316E+04  0.7818608E-02  0.8806351E-01
         -2   -1    0    0    0  501 -0.00000000000E+00  0.00000000000E+00  0.35085637013E+03  0.35085637013E+03  0.00000000000E+00 0.  1.
          2   -1    0    0  501    0  0.00000000000E+00 -0.00000000000E+00 -0.18776597629E+04  0.18776597629E+04  0.00000000000E+00 0. -1.
         23    2    1    2    0    0  0.46707658769E+03 -0.12300374260E+03 -0.15452010324E+03  0.51407491348E+03  0.84297656521E+02 0.  0.
        254    2    1    2    0    0 -0.46707658769E+03  0.12300374260E+03 -0.13722832896E+04  0.17144412196E+04  0.90711455129E+03 0.  0.
        -24    2    4    4    0    0 -0.67154033811E+03  0.50862294817E+02 -0.87497837567E+03  0.11070128173E+04  0.79604151720E+02 0.  0.
         13    1    3    3    0    0  0.41240934590E+03 -0.93536519112E+02 -0.10793372957E+03  0.43644041858E+03  0.00000000000E+00 0.  1.
        -13    1    3    3    0    0  0.54667241792E+02 -0.29467223492E+02 -0.46586373674E+02  0.77634494895E+02  0.00000000000E+00 0. -1.
          2    1    4    4  502    0  0.10384878912E+03  0.68655290367E+02 -0.28204487531E+02  0.12764643753E+03  0.00000000000E+00 0. -1.
          3    1    5    5  503    0 -0.26924570528E+03  0.38439596633E+02 -0.41033604661E+03  0.49228703370E+03  0.00000000000E+00 0. -1.
         -4    1    5    5    0  503 -0.40229463284E+03  0.12422698184E+02 -0.46464232906E+03  0.61472578358E+03  0.00000000000E+00 0.  1.
         -1    1    4    4    0  502  0.10061496130E+03  0.34861574202E+01 -0.46910042635E+03  0.47978196478E+03  0.00000000000E+00 0.  1.
<mgrwt>
<rscale>  0 0.16233162E+04</rscale>
<asrwt>0</asrwt>
<pdfrwt beam="1">  1        2 0.28887073E+00 0.16233162E+04</pdfrwt>
<pdfrwt beam="2">  1       -2 0.53977904E-01 0.16233162E+04</pdfrwt>
<totfact> 0.24177007E+01</totfact>
</mgrwt>
</event>
<event>
12    1  0.2404191E-008  0.1497187E+04  0.7818608E-02  0.8886326E-01
          1   -1    0    0  501    0  0.00000000000E+00  0.00000000000E+00  0.11266923235E+04  0.11266923235E+04  0.00000000000E+00 0. -1.
         -1   -1    0    0    0  501 -0.00000000000E+00 -0.00000000000E+00 -0.49737792996E+03  0.49737792996E+03  0.00000000000E+00 0.  1.
         23    2    1    2    0    0  0.15108095684E+03 -0.21690173538E+03  0.63030586831E+03  0.68927669008E+03  0.89135007281E+02 0.  0.
        254    2    1    2    0    0 -0.15108095684E+03  0.21690173538E+03 -0.99147481977E+00  0.93479356334E+03  0.89664162558E+03 0.  0.
        -24    2    4    4    0    0 -0.13570829260E+03  0.33260959810E+03 -0.37889837686E+03  0.52836721528E+03  0.81006473647E+02 0.  0.
         24    2    4    4    0    0 -0.15372664235E+02 -0.11570786272E+03  0.37790690204E+03  0.40642634806E+03  0.93510007412E+02 0.  0.
         11    1    3    3    0    0  0.10485925678E+03 -0.19750168399E+03  0.55943207920E+03  0.60246711956E+03  0.00000000000E+00 0. -1.
        -11    1    3    3    0    0  0.46221700058E+02 -0.19400051388E+02  0.70873789113E+02  0.86809570517E+02  0.00000000000E+00 0.  1.
          2    1    6    6  502    0  0.20281103395E+02 -0.20387114132E+02  0.21865722909E+02  0.36125716822E+02  0.00000000000E+00 0. -1.
          1    1    5    5  503    0 -0.14645454745E+02  0.61929314605E+02 -0.29606880606E+02  0.70187582458E+02  0.00000000000E+00 0. -1.
         -2    1    5    5    0  503 -0.12106283786E+03  0.27068028350E+03 -0.34929149625E+03  0.45817963283E+03  0.00000000000E+00 0.  1.
         -1    1    6    6    0  502 -0.35653767630E+02 -0.95320748588E+02  0.35604117913E+03  0.37030063124E+03  0.00000000000E+00 0.  1.
<mgrwt>
<rscale>  0 0.14971866E+04</rscale>
<asrwt>0</asrwt>
<pdfrwt beam="1">  1        1 0.17333728E+00 0.14971866E+04</pdfrwt>
<pdfrwt beam="2">  1       -1 0.76519682E-01 0.14971866E+04</pdfrwt>
<totfact> 0.20082274E+01</totfact>
</mgrwt>
</event>
<event>
11    1  0.2404191E-008  0.1153959E+04  0.7818608E-02  0.9154139E-01
          2   -1    0    0  501    0  0.00000000000E+00  0.00000000000E+00  0.20936745207E+04  0.20936745207E+04  0.00000000000E+00 0. -1.
         -2   -1    0    0    0  501 -0.00000000000E+00 -0.00000000000E+00 -0.15900517498E+03  0.15900517498E+03  0.00000000000E+00 0.  1.
         23    2    1    2    0    0 -0.18683700288E+03 -0.95769292444E+02  0.40868296783E+03  0.46955350659E+03  0.96844743466E+02 0.  0.
        254    2    1    2    0    0  0.18683700288E+03  0.95769292444E+02  0.15259863778E+04  0.17831261890E+04  0.89823424433E+03 0.  0.
        -24    2    4    4    0    0  0.27679255927E+03 -0.64633517866E+02  0.64305569458E+02  0.30319425719E+03  0.83665637116E+02 0.  0.
         11    1    3    3    0    0 -0.54431332482E+02  0.77252506564E+01  0.16192921435E+03  0.17100736801E+03  0.00000000000E+00 0.  1.
        -11    1    3    3    0    0 -0.13240567040E+03 -0.10349454310E+03  0.24675375348E+03  0.29854613858E+03  0.00000000000E+00 0. -1.
          4    1    4    4  502    0 -0.74707125712E+02  0.15999897040E+02  0.72961210319E+03  0.73360137163E+03  0.00000000000E+00 0. -1.
          3    1    5    5  503    0  0.63381454000E+02  0.20066664494E+02  0.19219787980E+02  0.69204624015E+02  0.00000000000E+00 0. -1.
         -4    1    5    5    0  503  0.21341110527E+03 -0.84700182360E+02  0.45085781477E+02  0.23398963318E+03  0.00000000000E+00 0.  1.
         -3    1    4    4    0  502 -0.15248430674E+02  0.14440291327E+03  0.73206870519E+03  0.74633056022E+03  0.00000000000E+00 0.  1.
<mgrwt>
<rscale>  0 0.11539585E+04</rscale>
<asrwt>0</asrwt>
<pdfrwt beam="1">  1        2 0.32210375E+00 0.11539585E+04</pdfrwt>
<pdfrwt beam="2">  1       -2 0.24462336E-01 0.11539585E+04</pdfrwt>
<totfact> 0.87703095E+01</totfact>
</mgrwt>
</event>
<event>
12    1  0.2404191E-008  0.1588958E+04  0.7818608E-02  0.8827360E-01
          2   -1    0    0  501    0  0.00000000000E+00  0.00000000000E+00  0.67349336770E+03  0.67349336770E+03  0.00000000000E+00 0. -1.
         -2   -1    0    0    0  501 -0.00000000000E+00 -0.00000000000E+00 -0.93719884988E+03  0.93719884988E+03  0.00000000000E+00 0.  1.
         23    2    1    2    0    0 -0.50221653197E+03  0.15227586895E+03 -0.23529740070E+03  0.58210490865E+03  0.89843601086E+02 0.  0.
        254    2    1    2    0    0  0.50221653197E+03 -0.15227586895E+03 -0.28408081474E+02  0.10285873089E+04  0.88418066465E+03 0.  0.
        -24    2    4    4    0    0  0.62776685004E+03 -0.32459101666E+03  0.16924668347E+03  0.73152586624E+03  0.83875544781E+02 0.  0.
         24    2    4    4    0    0 -0.12555031807E+03  0.17231514771E+03 -0.19765476494E+03  0.29706144268E+03  0.61013950220E+02 0.  0.
         11    1    3    3    0    0 -0.14341303412E+02  0.15687654364E+02  0.42776019977E+01  0.21681175288E+02  0.00000000000E+00 0.  1.
        -11    1    3    3    0    0 -0.48787522855E+03  0.13658821458E+03 -0.23957500270E+03  0.56042373337E+03  0.00000000000E+00 0. -1.
          2    1    6    6  502    0 -0.58990211454E+01 -0.38842768959E+01 -0.14606679345E+02  0.16224707669E+02  0.00000000000E+00 0. -1.
          3    1    5    5  503    0  0.27037215175E+03 -0.12236469718E+03  0.11062631908E+03  0.31672133182E+03  0.00000000000E+00 0. -1.
         -4    1    5    5    0  503  0.35739469829E+03 -0.20222631948E+03  0.58620364395E+02  0.41480453442E+03  0.00000000000E+00 0.  1.
         -1    1    6    6    0  502 -0.11965129693E+03  0.17619942461E+03 -0.18304808560E+03  0.28083673501E+03  0.00000000000E+00 0.  1.
<mgrwt>
<rscale>  0 0.15889584E+04</rscale>
<asrwt>0</asrwt>
<pdfrwt beam="1">  1        2 0.10361436E+00 0.15889584E+04</pdfrwt>
<pdfrwt beam="2">  1       -2 0.14418444E+00 0.15889584E+04</pdfrwt>
<totfact> 0.13722473E+01</totfact>
</mgrwt>
</event>
<event>
12    1  0.2404191E-008  0.2052843E+04  0.7818608E-02  0.8582306E-01
          1   -1    0    0  501    0  0.00000000000E+00  0.00000000000E+00  0.16077575729E+04  0.16077575729E+04  0.00000000000E+00 0. -1.
         -1   -1    0    0    0  501 -0.00000000000E+00 -0.00000000000E+00 -0.65528613106E+03  0.65528613106E+03  0.00000000000E+00 0.  1.
         23    2    1    2    0    0 -0.71979993307E+02 -0.81943764031E+03  0.30034954616E+03  0.87982152156E+03  0.84952304973E+02 0.  0.
        254    2    1    2    0    0  0.71979993307E+02  0.81943764031E+03  0.65212189572E+03  0.13832221824E+04  0.90076715821E+03 0.  0.
        -24    2    4    4    0    0 -0.32028467966E+03  0.49961546080E+03  0.62714771011E+03  0.86692834794E+03  0.77798621271E+02 0.  0.
         24    2    4    4    0    0  0.39226467297E+03  0.31982217951E+03  0.24974185603E+02  0.51629383449E+03  0.98882826734E+02 0.  0.
         11    1    3    3    0    0 -0.40162873376E+02 -0.37821170730E+03  0.94508552858E+02  0.39190434866E+03  0.00000000000E+00 0. -1.
        -11    1    3    3    0    0 -0.31817119931E+02 -0.44122593301E+03  0.20584099330E+03  0.48791717289E+03  0.00000000000E+00 0.  1.
          2    1    6    6  502    0  0.19925828846E+03  0.11426560519E+03 -0.20799599007E+02  0.23063633141E+03  0.00000000000E+00 0. -1.
          1    1    5    5  503    0 -0.12842638364E+03  0.26100845679E+03  0.27520925432E+03  0.40044835397E+03  0.00000000000E+00 0. -1.
         -2    1    5    5    0  503 -0.19185829602E+03  0.23860700401E+03  0.35193845579E+03  0.46647999397E+03  0.00000000000E+00 0.  1.
         -1    1    6    6    0  502  0.19300638451E+03  0.20555657432E+03  0.45773784610E+02  0.28565750308E+03  0.00000000000E+00 0.  1.
<mgrwt>
<rscale>  0 0.20528431E+04</rscale>
<asrwt>0</asrwt>
<pdfrwt beam="1">  1        1 0.24734732E+00 0.20528431E+04</pdfrwt>
<pdfrwt beam="2">  1       -1 0.10081325E+00 0.20528431E+04</pdfrwt>
<totfact> 0.47616247E+00</totfact>
</mgrwt>
</event>
<event>
11    1  0.2404191E-008  0.1438920E+04  0.7818608E-02  0.8926118E-01
         -2   -1    0    0    0  501 -0.00000000000E+00  0.00000000000E+00  0.36530059938E+03  0.36530059938E+03  0.00000000000E+00 0.  1.
          2   -1    0    0  501    0  0.00000000000E+00 -0.00000000000E+00 -0.14169777538E+04  0.14169777538E+04  0.00000000000E+00 0. -1.
         23    2    1    2    0    0  0.19994311738E+03 -0.38604856873E+03 -0.33275771253E+03  0.55542842967E+03  0.93607145183E+02 0.  0.
        254    2    1    2    0    0 -0.19994311738E+03  0.38604856873E+03 -0.71891944186E+03  0.12268499235E+04  0.89403849091E+03 0.  0.
        -24    2    4    4    0    0  0.17948808349E+03  0.17416179268E+03 -0.72364011233E+03  0.76963669480E+03  0.78341098256E+02 0.  0.
         13    1    3    3    0    0  0.12182485905E+03 -0.29137276447E+03 -0.27909977558E+03  0.42146894178E+03  0.00000000000E+00 0.  1.
        -13    1    3    3    0    0  0.78118258329E+02 -0.94675804267E+02 -0.53657936944E+02  0.13395948789E+03  0.00000000000E+00 0. -1.
          4    1    4    4  502    0 -0.48622702987E+02 -0.35848347356E+01 -0.35595547403E+02  0.60366060670E+02  0.00000000000E+00 0. -1.
          3    1    5    5  503    0  0.14123530062E+02  0.29776863179E+01 -0.11844042247E+03  0.11931669787E+03  0.00000000000E+00 0. -1.
         -4    1    5    5    0  503  0.16536455343E+03  0.17118410636E+03 -0.60519968986E+03  0.65031999693E+03  0.00000000000E+00 0.  1.
         -3    1    4    4    0  502 -0.33080849788E+03  0.21547161079E+03  0.40316217864E+02  0.39684716800E+03  0.00000000000E+00 0.  1.
<mgrwt>
<rscale>  0 0.14389202E+04</rscale>
<asrwt>0</asrwt>
<pdfrwt beam="1">  1        2 0.21799658E+00 0.14389202E+04</pdfrwt>
<pdfrwt beam="2">  1       -2 0.56200091E-01 0.14389202E+04</pdfrwt>
<totfact> 0.40812323E+01</totfact>
</mgrwt>
</event>
<event>
12    1  0.2404191E-008  0.1167390E+04  0.7818608E-02  0.9141889E-01
          1   -1    0    0  501    0  0.00000000000E+00  0.00000000000E+00  0.14038269123E+04  0.14038269123E+04  0.00000000000E+00 0. -1.
         -1   -1    0    0    0  501 -0.00000000000E+00 -0.00000000000E+00 -0.24269347395E+03  0.24269347395E+03  0.00000000000E+00 0.  1.
         23    2    1    2    0    0 -0.15674006512E+03 -0.12796355495E+03  0.11712370701E+03  0.25075407925E+03  0.90650571463E+02 0.  0.
        254    2    1    2    0    0  0.15674006512E+03  0.12796355495E+03  0.10440097314E+04  0.13957663070E+04  0.90402718167E+03 0.  0.
        -24    2    4    4    0    0 -0.15629859315E+03 -0.30531858379E+03  0.24158105671E+03  0.42728780819E+03  0.81023306778E+02 0.  0.
         24    2    4    4    0    0  0.31303865827E+03  0.43328213874E+03  0.80242867465E+03  0.96847849882E+03  0.91280947905E+02 0.  0.
         13    1    3    3    0    0 -0.78446822629E+02 -0.30608381256E+02  0.89341464225E+02  0.12277081988E+03  0.00000000000E+00 0. -1.
        -13    1    3    3    0    0 -0.78293242495E+02 -0.97355173695E+02  0.27782242785E+02  0.12798325937E+03  0.00000000000E+00 0.  1.
          2    1    6    6  502    0  0.26005255026E+03  0.36685168815E+03  0.72713360035E+03  0.85494488873E+03  0.00000000000E+00 0. -1.
          3    1    5    5  503    0 -0.88371165244E+02 -0.20929370201E+03  0.19955615659E+03  0.30238382262E+03  0.00000000000E+00 0. -1.
         -4    1    5    5    0  503 -0.67927427902E+02 -0.96024881781E+02  0.42024900119E+02  0.12490398557E+03  0.00000000000E+00 0.  1.
         -1    1    6    6    0  502  0.52986108010E+02  0.66430450586E+02  0.75295074300E+02  0.11353361009E+03  0.00000000000E+00 0.  1.
<mgrwt>
<rscale>  0 0.11673896E+04</rscale>
<asrwt>0</asrwt>
<pdfrwt beam="1">  1        1 0.21597337E+00 0.11673896E+04</pdfrwt>
<pdfrwt beam="2">  1       -1 0.37337458E-01 0.11673896E+04</pdfrwt>
<totfact> 0.52283148E+01</totfact>
</mgrwt>
</event>
<event>
12    1  0.2404191E-008  0.1584907E+04  0.7818608E-02  0.8829874E-01
          1   -1    0    0  501    0  0.00000000000E+00  0.00000000000E+00  0.10134458930E+04  0.10134458930E+04  0.00000000000E+00 0. -1.
         -1   -1    0    0    0  501 -0.00000000000E+00 -0.00000000000E+00 -0.61965088031E+03  0.61965088031E+03  0.00000000000E+00 0.  1.
         23    2    1    2    0    0 -0.45235261078E+03 -0.16878763236E+03 -0.10947555613E+03  0.50333599408E+03  0.90829930252E+02 0.  0.
        254    2    1    2    0    0  0.45235261078E+03  0.16878763236E+03  0.50327056880E+03  0.11297607792E+04  0.88880031698E+03 0.  0.
        -24    2    4    4    0    0  0.70326285218E+03  0.60010169229E+02  0.27760846362E+03  0.76249113827E+03  0.78399089274E+02 0.  0.
         24    2    4    4    0    0 -0.25091024140E+03  0.10877746313E+03  0.22566210518E+03  0.36726964092E+03  0.95786834707E+02 0.  0.
         13    1    3    3    0    0 -0.38018240528E+03 -0.10780285495E+03 -0.10432180375E+03  0.40870913319E+03  0.00000000000E+00 0.  1.
        -13    1    3    3    0    0 -0.72170205505E+02 -0.60984777410E+02 -0.51537523865E+01  0.94626860891E+02  0.00000000000E+00 0. -1.
          2    1    6    6  502    0 -0.13120403396E+01  0.26917248806E+02  0.24359265261E+02  0.36326760620E+02  0.00000000000E+00 0. -1.
          3    1    5    5  503    0  0.10845979352E+03 -0.14728916319E+02  0.26999103591E+02  0.11273606069E+03  0.00000000000E+00 0. -1.
         -4    1    5    5    0  503  0.59480305866E+03  0.74739085548E+02  0.25060936003E+03  0.64975507758E+03  0.00000000000E+00 0.  1.
         -1    1    6    6    0  502 -0.24959820106E+03  0.81860214329E+02  0.20130283992E+03  0.33094288030E+03  0.00000000000E+00 0.  1.
<mgrwt>
<rscale>  0 0.15849071E+04</rscale>
<asrwt>0</asrwt>
<pdfrwt beam="1">  1        1 0.15591475E+00 0.15849071E+04</pdfrwt>
<pdfrwt beam="2">  1       -1 0.95330905E-01 0.15849071E+04</pdfrwt>
<totfact> 0.15078525E+01</totfact>
</mgrwt>
</event>
<event>
11    1  0.2404191E-008  0.1380211E+04  0.7818608E-02  0.8968269E-01
          1   -1    0    0  501    0  0.00000000000E+00  0.00000000000E+00  0.57903114482E+03  0.57903114482E+03  0.00000000000E+00 0. -1.
         -1   -1    0    0    0  501 -0.00000000000E+00 -0.00000000000E+00 -0.82248660620E+03  0.82248660620E+03  0.00000000000E+00 0.  1.
         23    2    1    2    0    0  0.25457020405E+03 -0.25287920854E+03 -0.19007455832E+03  0.41635402785E+03  0.92024213596E+02 0.  0.
        254    2    1    2    0    0 -0.25457020405E+03  0.25287920854E+03 -0.53380903061E+02  0.98516372317E+03  0.91593894870E+03 0.  0.
        -24    2    4    4    0    0 -0.58473156348E+02  0.28282541213E+03  0.38382181543E+03  0.48700920561E+03  0.80308508816E+02 0.  0.
         13    1    3    3    0    0  0.23609105740E+03 -0.18749416303E+03 -0.16668226307E+03  0.34449386841E+03  0.00000000000E+00 0.  1.
        -13    1    3    3    0    0  0.18479146648E+02 -0.65385045510E+02 -0.23392295250E+02  0.71860159436E+02  0.00000000000E+00 0. -1.
          4    1    4    4  502    0 -0.14039175890E+03 -0.81910724716E+02 -0.30246591931E+03  0.34337274955E+03  0.00000000000E+00 0. -1.
          3    1    5    5  503    0 -0.45752950470E+02  0.28320855540E+03  0.37053139135E+03  0.46860850430E+03  0.00000000000E+00 0. -1.
         -4    1    5    5    0  503 -0.12720205878E+02 -0.38314327057E+00  0.13290424078E+02  0.18400701305E+02  0.00000000000E+00 0.  1.
         -3    1    4    4    0  502 -0.55705288802E+02  0.51964521124E+02 -0.13473679918E+03  0.15478176801E+03  0.00000000000E+00 0.  1.
<mgrwt>
<rscale>  0 0.13802107E+04</rscale>
<asrwt>0</asrwt>
<pdfrwt beam="1">  1        1 0.89081715E-01 0.13802107E+04</pdfrwt>
<pdfrwt beam="2">  1       -1 0.12653640E+00 0.13802107E+04</pdfrwt>
<totfact> 0.19115539E+01</totfact>
</mgrwt>
</event>
<event>
11    1  0.2404191E-008  0.2115457E+04  0.7818608E-02  0.8554465E-01
          2   -1    0    0  501    0  0.00000000000E+00  0.00000000000E+00  0.19204532477E+04  0.19204532477E+04  0.00000000000E+00 0. -1.
         -2   -1    0    0    0  501 -0.00000000000E+00 -0.00000000000E+00 -0.58256564047E+03  0.58256564047E+03  0.00000000000E+00 0.  1.
         23    2    1    2    0    0  0.98090740482E+02 -0.40731549583E+03 -0.28788329965E+03  0.51646751625E+03  0.91291810207E+02 0.  0.
        254    2    1    2    0    0 -0.98090740482E+02  0.40731549583E+03  0.16257709069E+04  0.19865513720E+04  0.10619451987E+04 0.  0.
        -24    2    4    4    0    0  0.33795472871E+03  0.45443140094E+03  0.12829740950E+04  0.14042816635E+04  0.72547675664E+02 0.  0.
         13    1    3    3    0    0 -0.16340189617E+02 -0.48169782729E+02 -0.23344863714E+02  0.55967065554E+02  0.00000000000E+00 0. -1.
        -13    1    3    3    0    0  0.11443093010E+03 -0.35914571310E+03 -0.26453843594E+03  0.46050045070E+03  0.00000000000E+00 0.  1.
          4    1    4    4  502    0 -0.39784384901E+03  0.11720303266E+02  0.31166522898E+03  0.50552181818E+03  0.00000000000E+00 0. -1.
          3    1    5    5  503    0  0.23094467609E+03  0.31252592978E+03  0.95934466002E+03  0.10350604219E+04  0.00000000000E+00 0. -1.
         -4    1    5    5    0  503  0.10701005262E+03  0.14190547116E+03  0.32362943500E+03  0.36922124168E+03  0.00000000000E+00 0.  1.
         -1    1    4    4    0  502 -0.38201620180E+02 -0.58836208373E+02  0.31131582928E+02  0.76747890236E+02  0.00000000000E+00 0.  1.
<mgrwt>
<rscale>  0 0.21154575E+04</rscale>
<asrwt>0</asrwt>
<pdfrwt beam="1">  1        2 0.29545434E+00 0.21154575E+04</pdfrwt>
<pdfrwt beam="2">  1       -2 0.89625484E-01 0.21154575E+04</pdfrwt>
<totfact> 0.72643976E+00</totfact>
</mgrwt>
</event>
<event>
11    1  0.2404191E-008  0.1326598E+04  0.7818608E-02  0.9008734E-01
         -2   -1    0    0    0  501 -0.00000000000E+00  0.00000000000E+00  0.14263858132E+04  0.14263858132E+04  0.00000000000E+00 0.  1.
          2   -1    0    0  501    0  0.00000000000E+00 -0.00000000000E+00 -0.30844799908E+03  0.30844799908E+03  0.00000000000E+00 0. -1.
         23    2    1    2    0    0  0.30034480297E+03  0.17156670822E+03  0.35869987920E+03  0.50664996871E+03  0.91577570459E+02 0.  0.
        254    2    1    2    0    0 -0.30034480297E+03 -0.17156670822E+03  0.75923793492E+03  0.12281838436E+04  0.90130526224E+03 0.  0.
        -24    2    4    4    0    0 -0.35657978664E+03  0.26493104981E+03  0.58464156233E+03  0.73862174942E+03  0.80116957810E+02 0.  0.
         11    1    3    3    0    0  0.14318670729E+03  0.50199434773E+02  0.20756173475E+03  0.25710754583E+03  0.00000000000E+00 0.  1.
        -11    1    3    3    0    0  0.15715809569E+03  0.12136727345E+03  0.15113814445E+03  0.24954242287E+03  0.00000000000E+00 0. -1.
          2    1    4    4  502    0 -0.16639742964E+02 -0.12508810769E+02  0.28361242059E+02  0.35181123403E+02  0.00000000000E+00 0. -1.
          1    1    5    5  503    0 -0.36553090507E+02  0.14182316072E+01  0.40862371728E+02  0.54844081082E+02  0.00000000000E+00 0. -1.
         -2    1    5    5    0  503 -0.32002669613E+03  0.26351281820E+03  0.54377919060E+03  0.68377766834E+03  0.00000000000E+00 0.  1.
         -1    1    4    4    0  502  0.72874726627E+02 -0.42398894726E+03  0.14623513053E+03  0.45438097075E+03  0.00000000000E+00 0.  1.
<mgrwt>
<rscale>  0 0.13265984E+04</rscale>
<asrwt>0</asrwt>
<pdfrwt beam="1">  1        2 0.47453539E-01 0.13265984E+04</pdfrwt>
<pdfrwt beam="2">  1       -2 0.21944397E+00 0.13265984E+04</pdfrwt>
<totfact> 0.10374383E+01</totfact>
</mgrwt>
</event>
<event>
11    1  0.2404191E-008  0.1907490E+04  0.7818608E-02  0.8651137E-01
         -4   -1    0    0    0  501 -0.00000000000E+00  0.00000000000E+00  0.16034687029E+04  0.16034687029E+04  0.00000000000E+00 0. -1.
          4   -1    0    0  501    0  0.00000000000E+00 -0.00000000000E+00 -0.56728855054E+03  0.56728855054E+03  0.00000000000E+00 0.  1.
         23    2    1    2    0    0  0.46586907658E+03 -0.35482156703E+03 -0.11805440488E+03  0.60418121652E+03  0.90364588976E+02 0.  0.
        254    2    1    2    0    0 -0.46586907658E+03  0.35482156703E+03  0.11542345572E+04  0.15665760369E+04  0.88259318224E+03 0.  0.
        -24    2    4    4    0    0 -0.65137087771E+03  0.20757049350E+03  0.58401525987E+03  0.90249101784E+03  0.77760423300E+02 0.  0.
         11    1    3    3    0    0  0.40246281584E+03 -0.26239538843E+03 -0.96738754352E+02  0.49008779274E+03  0.00000000000E+00 0.  1.
        -11    1    3    3    0    0  0.63406260744E+02 -0.92426178602E+02 -0.21315650532E+02  0.11409342378E+03  0.00000000000E+00 0. -1.
          4    1    4    4  502    0  0.24138957670E+03  0.91180255532E+02  0.39502663478E+03  0.47183557403E+03  0.00000000000E+00 0. -1.
          3    1    5    5  503    0 -0.48243101613E+03  0.15160428989E+03  0.47496599452E+03  0.69376958855E+03  0.00000000000E+00 0. -1.
         -4    1    5    5    0  503 -0.16893986157E+03  0.55966203605E+02  0.10904926535E+03  0.20872142930E+03  0.00000000000E+00 0.  1.
         -3    1    4    4    0  502 -0.55887775568E+02  0.56070818003E+02  0.17519266257E+03  0.19224944502E+03  0.00000000000E+00 0.  1.
<mgrwt>
<rscale>  0 0.19074899E+04</rscale>
<asrwt>0</asrwt>
<pdfrwt beam="1">  1        4 0.87275162E-01 0.19074899E+04</pdfrwt>
<pdfrwt beam="2">  1       -4 0.24668749E+00 0.19074899E+04</pdfrwt>
<totfact> 0.14102590E-01</totfact>
</mgrwt>
</event>
<event>
11    1  0.2404191E-008  0.1736911E+04  0.7818608E-02  0.8740588E-01
          2   -1    0    0  501    0  0.00000000000E+00  0.00000000000E+00  0.11410757499E+04  0.11410757499E+04  0.00000000000E+00 0. -1.
         -2   -1    0    0    0  501 -0.00000000000E+00 -0.00000000000E+00 -0.66096848444E+03  0.66096848444E+03  0.00000000000E+00 0.  1.
         23    2    1    2    0    0 -0.62638585582E+03 -0.46995355337E+02  0.12426553493E+03  0.64672417875E+03  0.90787864908E+02 0.  0.
        254    2    1    2    0    0  0.62638585582E+03  0.46995355337E+02  0.35584173053E+03  0.11553200556E+04  0.90198297649E+03 0.  0.
        -24    2    4    4    0    0  0.48539429780E+03  0.90305133657E+02  0.63950539148E+03  0.81211084476E+03  0.82427161496E+02 0.  0.
         11    1    3    3    0    0 -0.54648914462E+03 -0.37547649433E+02  0.76322335488E+02  0.55306899213E+03  0.00000000000E+00 0.  1.
        -11    1    3    3    0    0 -0.79896711204E+02 -0.94477059040E+01  0.47943199445E+02  0.93655186622E+02  0.00000000000E+00 0. -1.
          2    1    4    4  502    0 -0.10922061118E+02  0.17149528616E+02 -0.77271946120E+02  0.79902136442E+02  0.00000000000E+00 0. -1.
          3    1    5    5  503    0  0.17016744360E+01 -0.13600324768E+01 -0.23460767730E+01  0.32014778538E+01  0.00000000000E+00 0. -1.
         -4    1    5    5    0  503  0.48369262336E+03  0.91665166134E+02  0.64185146825E+03  0.80890936691E+03  0.00000000000E+00 0.  1.
         -1    1    4    4    0  502  0.15191361914E+03 -0.60459306936E+02 -0.20639171483E+03  0.26330707439E+03  0.00000000000E+00 0.  1.
<mgrwt>
<rscale>  0 0.17369112E+04</rscale>
<asrwt>0</asrwt>
<pdfrwt beam="1">  1        2 0.17555011E+00 0.17369112E+04</pdfrwt>
<pdfrwt beam="2">  1       -2 0.10168746E+00 0.17369112E+04</pdfrwt>
<totfact> 0.15484808E+01</totfact>
</mgrwt>
</event>
<event>
11    1  0.2404191E-008  0.1144219E+04  0.7818608E-02  0.9163133E-01
         -2   -1    0    0    0  501 -0.00000000000E+00  0.00000000000E+00  0.12857490426E+03  0.12857490426E+03  0.00000000000E+00 0. -1.
          2   -1    0    0  501    0  0.00000000000E+00 -0.00000000000E+00 -0.25456716228E+04  0.25456716228E+04  0.00000000000E+00 0.  1.
         23    2    1    2    0    0  0.14338946586E+03 -0.13845560140E+03 -0.30123449420E+03  0.37360158757E+03  0.95422393909E+02 0.  0.
        254    2    1    2    0    0 -0.14338946586E+03  0.13845560140E+03 -0.21158622243E+04  0.23006449394E+04  0.88111502807E+03 0.  0.
        -24    2    4    4    0    0 -0.37220517919E+03  0.33563190451E+03 -0.81306741833E+03  0.95820157779E+03  0.76721354128E+02 0.  0.
         13    1    3    3    0    0  0.88193815490E+02 -0.13823157230E+03 -0.20330138093E+03  0.26118493096E+03  0.00000000000E+00 0. -1.
        -13    1    3    3    0    0  0.55195650374E+02 -0.22402910086E+00 -0.97933113267E+02  0.11241665661E+03  0.00000000000E+00 0.  1.
          2    1    4    4  502    0  0.12873052993E+03 -0.16225459885E+03 -0.68525877090E+03  0.71587546912E+03  0.00000000000E+00 0. -1.
          3    1    5    5  503    0 -0.25685003319E+03  0.26398924590E+03 -0.63743262407E+03  0.73619468331E+03  0.00000000000E+00 0. -1.
         -4    1    5    5    0  503 -0.11535514600E+03  0.71642658606E+02 -0.17563479426E+03  0.22200689448E+03  0.00000000000E+00 0.  1.
         -1    1    4    4    0  502  0.10008518340E+03 -0.34921704256E+02 -0.61753603506E+03  0.62656789254E+03  0.00000000000E+00 0.  1.
<mgrwt>
<rscale>  0 0.11442194E+04</rscale>
<asrwt>0</asrwt>
<pdfrwt beam="1">  1        2 0.39164178E+00 0.11442194E+04</pdfrwt>
<pdfrwt beam="2">  1       -2 0.19780755E-01 0.11442194E+04</pdfrwt>
<totfact> 0.71256063E+01</totfact>
</mgrwt>
</event>
<event>
11    1  0.2404191E-008  0.1579146E+04  0.7818608E-02  0.8833463E-01
          1   -1    0    0  501    0  0.00000000000E+00  0.00000000000E+00  0.76009753483E+03  0.76009753483E+03  0.00000000000E+00 0. -1.
         -1   -1    0    0    0  501 -0.00000000000E+00 -0.00000000000E+00 -0.82019199159E+03  0.82019199159E+03  0.00000000000E+00 0.  1.
         23    2    1    2    0    0 -0.23531243179E+03 -0.26663596379E+03 -0.41013347020E+03  0.55046623188E+03  0.91306797780E+02 0.  0.
        254    2    1    2    0    0  0.23531243179E+03  0.26663596379E+03  0.35003901345E+03  0.10298232945E+04  0.90085627561E+03 0.  0.
        -24    2    4    4    0    0 -0.23039629667E+03  0.20333345668E+03 -0.86003683203E+01  0.31766881355E+03  0.80078465509E+02 0.  0.
         13    1    3    3    0    0 -0.17532601921E+03 -0.13387996192E+03 -0.26544891947E+03  0.34514661531E+03  0.00000000000E+00 0.  1.
        -13    1    3    3    0    0 -0.59986412581E+02 -0.13275600187E+03 -0.14468455073E+03  0.20531961657E+03  0.00000000000E+00 0. -1.
          4    1    4    4  502    0  0.22266299333E+03  0.28957493214E+02 -0.54992375347E+02  0.23117419051E+03  0.00000000000E+00 0. -1.
          3    1    5    5  503    0 -0.16737523164E+03  0.16894233941E+03  0.23602096268E+02  0.23898334913E+03  0.00000000000E+00 0. -1.
         -4    1    5    5    0  503 -0.63021065033E+02  0.34391117265E+02 -0.32202464588E+02  0.78685464415E+02  0.00000000000E+00 0.  1.
         -3    1    4    4    0  502  0.24304573513E+03  0.34345013896E+02  0.41363175711E+03  0.48098029049E+03  0.00000000000E+00 0.  1.
<mgrwt>
<rscale>  0 0.15791465E+04</rscale>
<asrwt>0</asrwt>
<pdfrwt beam="1">  1        1 0.11693808E+00 0.15791465E+04</pdfrwt>
<pdfrwt beam="2">  1       -1 0.12618338E+00 0.15791465E+04</pdfrwt>
<totfact> 0.12604254E+01</totfact>
</mgrwt>
</event>
<event>
11    1  0.2404191E-008  0.1847956E+04  0.7818608E-02  0.8681205E-01
         -1   -1    0    0    0  501 -0.00000000000E+00  0.00000000000E+00  0.88393312114E+03  0.88393312114E+03  0.00000000000E+00 0.  1.
          1   -1    0    0  501    0  0.00000000000E+00 -0.00000000000E+00 -0.96583726086E+03  0.96583726086E+03  0.00000000000E+00 0. -1.
         23    2    1    2    0    0  0.10650216943E+03 -0.13164782666E+03  0.64922248751E+03  0.67692956909E+03  0.89832849522E+02 0.  0.
        254    2    1    2    0    0 -0.10650216943E+03  0.13164782666E+03 -0.73112662723E+03  0.11728408129E+04  0.90129660215E+03 0.  0.
        -24    2    4    4    0    0 -0.45952145960E+03  0.16281539569E+03 -0.55743972646E+03  0.74477767668E+03  0.79283757165E+02 0.  0.
         11    1    3    3    0    0  0.24188896325E+02  0.10955624400E+02  0.10788791434E+03  0.11110774262E+03  0.00000000000E+00 0. -1.
        -11    1    3    3    0    0  0.82313273103E+02 -0.14260345106E+03  0.54133457318E+03  0.56582182646E+03  0.00000000000E+00 0.  1.
          4    1    4    4  502    0  0.28709644107E+03  0.26486444292E+02 -0.78698831969E+02  0.29886352129E+03  0.00000000000E+00 0. -1.
          1    1    5    5  503    0 -0.25287402920E+03  0.11355156184E+03 -0.26645033663E+03  0.38449319074E+03  0.00000000000E+00 0. -1.
         -2    1    5    5    0  503 -0.20664743040E+03  0.49263833855E+02 -0.29098938983E+03  0.36028448594E+03  0.00000000000E+00 0.  1.
         -3    1    4    4    0  502  0.65922849101E+02 -0.57654013326E+02 -0.94988068804E+02  0.12919961494E+03  0.00000000000E+00 0.  1.
<mgrwt>
<rscale>  0 0.18479562E+04</rscale>
<asrwt>0</asrwt>
<pdfrwt beam="1">  1        1 0.14859035E+00 0.18479562E+04</pdfrwt>
<pdfrwt beam="2">  1       -1 0.13598971E+00 0.18479562E+04</pdfrwt>
<totfact> 0.68405704E+00</totfact>
</mgrwt>
</event>
<event>
11    1  0.2404191E-008  0.2271940E+04  0.7818608E-02  0.8489068E-01
          2   -1    0    0  501    0  0.00000000000E+00  0.00000000000E+00  0.89443108237E+03  0.89443108237E+03  0.00000000000E+00 0. -1.
         -2   -1    0    0    0  501 -0.00000000000E+00 -0.00000000000E+00 -0.14427361041E+04  0.14427361041E+04  0.00000000000E+00 0.  1.
         23    2    1    2    0    0 -0.53768991808E+01  0.38181938765E+03  0.66588386465E+03  0.77464183819E+03  0.10418109448E+03 0.  0.
        254    2    1    2    0    0  0.53768991808E+01 -0.38181938765E+03 -0.12141888864E+04  0.15625253483E+04  0.90631995255E+03 0.  0.
        -24    2    4    4    0    0 -0.19431390312E+03 -0.55109810079E+03 -0.44099108355E+03  0.73662291184E+03  0.81689465928E+02 0.  0.
         13    1    3    3    0    0 -0.30716097106E+02  0.29136976889E+03  0.56719753853E+03  0.63839867525E+03  0.00000000000E+00 0. -1.
        -13    1    3    3    0    0  0.25339197925E+02  0.90449618767E+02  0.98686326117E+02  0.13624316294E+03  0.00000000000E+00 0.  1.
          4    1    4    4  502    0  0.19801929165E+03  0.18706176515E+03 -0.72201421311E+03  0.77169182176E+03  0.00000000000E+00 0. -1.
          3    1    5    5  503    0 -0.76390237803E+02 -0.31274387792E+03 -0.20996203651E+03  0.38435433962E+03  0.00000000000E+00 0. -1.
         -4    1    5    5    0  503 -0.11792366532E+03 -0.23835422287E+03 -0.23102904704E+03  0.35226857223E+03  0.00000000000E+00 0.  1.
         -3    1    4    4    0  502  0.16715106478E+01 -0.17783052021E+02 -0.51183589739E+02  0.54210614695E+02  0.00000000000E+00 0.  1.
<mgrwt>
<rscale>  0 0.22719402E+04</rscale>
<asrwt>0</asrwt>
<pdfrwt beam="1">  1        2 0.13760478E+00 0.22719402E+04</pdfrwt>
<pdfrwt beam="2">  1       -2 0.22195940E+00 0.22719402E+04</pdfrwt>
<totfact> 0.25808446E+00</totfact>
</mgrwt>
</event>
<event>
11    1  0.2404191E-008  0.2271550E+04  0.7818608E-02  0.8489224E-01
          1   -1    0    0  501    0  0.00000000000E+00  0.00000000000E+00  0.21488567440E+04  0.21488567440E+04  0.00000000000E+00 0.  1.
         -1   -1    0    0    0  501 -0.00000000000E+00 -0.00000000000E+00 -0.60031204639E+03  0.60031204639E+03  0.00000000000E+00 0. -1.
         23    2    1    2    0    0 -0.55460514415E+03 -0.74764301641E+03  0.98290647427E+03  0.13566155081E+04  0.87997464943E+02 0.  0.
        254    2    1    2    0    0  0.55460514415E+03  0.74764301641E+03  0.56563822330E+03  0.13925532822E+04  0.86758348201E+03 0.  0.
        -24    2    4    4    0    0  0.17972872352E+03  0.43490051107E+03 -0.16342649143E+03  0.50539718674E+03  0.85306680153E+02 0.  0.
         11    1    3    3    0    0 -0.59929122177E+02 -0.77300676253E+02  0.67373373147E+02  0.11876895909E+03  0.00000000000E+00 0.  1.
        -11    1    3    3    0    0 -0.49467602197E+03 -0.67034234016E+03  0.91553310113E+03  0.12378465490E+04  0.00000000000E+00 0. -1.
          2    1    4    4  502    0  0.25205682750E+03  0.20163308885E+03  0.36538072225E+03  0.48753627455E+03  0.00000000000E+00 0. -1.
          3    1    5    5  503    0  0.25851375182E+02  0.11517118963E+03 -0.74538759042E+02  0.13960201689E+03  0.00000000000E+00 0. -1.
         -4    1    5    5    0  503  0.15387734834E+03  0.31972932144E+03 -0.88887732392E+02  0.36579516986E+03  0.00000000000E+00 0.  1.
         -1    1    4    4    0  502  0.12281959313E+03  0.11110941649E+03  0.36368399248E+03  0.39961982092E+03  0.00000000000E+00 0.  1.
<mgrwt>
<rscale>  0 0.22715498E+04</rscale>
<asrwt>0</asrwt>
<pdfrwt beam="1">  1        1 0.33059334E+00 0.22715498E+04</pdfrwt>
<pdfrwt beam="2">  1       -1 0.92355700E-01 0.22715498E+04</pdfrwt>
<totfact> 0.24392693E+00</totfact>
</mgrwt>
</event>
<event>
12    1  0.2404191E-008  0.1360390E+04  0.7818608E-02  0.8983000E-01
         -1   -1    0    0    0  501 -0.00000000000E+00  0.00000000000E+00  0.16018043745E+03  0.16018043745E+03  0.00000000000E+00 0.  1.
          1   -1    0    0  501    0  0.00000000000E+00 -0.00000000000E+00 -0.28883999780E+04  0.28883999780E+04  0.00000000000E+00 0. -1.
         23    2    1    2    0    0 -0.29207117705E+02  0.42107511053E+02 -0.14875627836E+04  0.14910511269E+04  0.88115433692E+02 0.  0.
        254    2    1    2    0    0  0.29207117705E+02 -0.42107511053E+02 -0.12406567570E+04  0.15575292886E+04  0.94023518226E+03 0.  0.
        -24    2    4    4    0    0  0.47142873594E+03 -0.69882850317E+02 -0.57172175200E+03  0.74892117859E+03  0.82997013146E+02 0.  0.
         24    2    4    4    0    0 -0.44222161824E+03  0.27775339264E+02 -0.66893500497E+03  0.80860810999E+03  0.10020781183E+03 0.  0.
         13    1    3    3    0    0  0.17640172746E+01 -0.27627112197E+01 -0.10626173009E+04  0.10626223565E+04  0.00000000000E+00 0. -1.
        -13    1    3    3    0    0 -0.30971134980E+02  0.44870222272E+02 -0.42494548270E+03  0.42842877041E+03  0.00000000000E+00 0.  1.
          2    1    6    6  502    0 -0.19243224113E+02 -0.11243707327E+02 -0.76141526228E+02  0.79336338742E+02  0.00000000000E+00 0. -1.
          1    1    5    5  503    0  0.68137657754E+02 -0.40775823529E+02 -0.92412943973E+02  0.12184235882E+03  0.00000000000E+00 0. -1.
         -2    1    5    5    0  503  0.40329107819E+03 -0.29107026788E+02 -0.47930880802E+03  0.62707881977E+03  0.00000000000E+00 0.  1.
         -1    1    6    6    0  502 -0.42297839413E+03  0.39019046591E+02 -0.59279347874E+03  0.72927177124E+03  0.00000000000E+00 0.  1.
<mgrwt>
<rscale>  0 0.13603899E+04</rscale>
<asrwt>0</asrwt>
<pdfrwt beam="1">  1        1 0.44436921E+00 0.13603899E+04</pdfrwt>
<pdfrwt beam="2">  1       -1 0.24643145E-01 0.13603899E+04</pdfrwt>
<totfact> 0.10189274E+01</totfact>
</mgrwt>
</event>
<event>
11    1  0.2404191E-008  0.1560399E+04  0.7818608E-02  0.8845253E-01
          2   -1    0    0  501    0  0.00000000000E+00  0.00000000000E+00  0.25854406262E+04  0.25854406262E+04  0.00000000000E+00 0. -1.
         -2   -1    0    0    0  501 -0.00000000000E+00 -0.00000000000E+00 -0.23543799935E+03  0.23543799935E+03  0.00000000000E+00 0.  1.
         23    2    1    2    0    0 -0.23877097576E+03  0.36573187382E+03  0.29241522921E+03  0.53403492468E+03  0.94420612759E+02 0.  0.
        254    2    1    2    0    0  0.23877097576E+03 -0.36573187382E+03  0.20575873976E+04  0.22868437009E+04  0.89733874922E+03 0.  0.
        -24    2    4    4    0    0 -0.22561248116E+03 -0.33519160408E+03  0.45589948986E+03  0.61445902537E+03  0.80381253432E+02 0.  0.
         13    1    3    3    0    0 -0.28065636350E+02  0.28295142197E+02 -0.75371352661E+00  0.39860545653E+02  0.00000000000E+00 0. -1.
        -13    1    3    3    0    0 -0.21070533941E+03  0.33743673162E+03  0.29316894273E+03  0.49417437903E+03  0.00000000000E+00 0.  1.
          4    1    4    4  502    0  0.84139002285E+02  0.11844307292E+02  0.16458413544E+03  0.18522310050E+03  0.00000000000E+00 0. -1.
          1    1    5    5  503    0 -0.88953839634E+02 -0.10481293903E+03  0.20904539594E+03  0.25019695310E+03  0.00000000000E+00 0. -1.
         -2    1    5    5    0  503 -0.13665864153E+03 -0.23037866505E+03  0.24685409392E+03  0.36426207227E+03  0.00000000000E+00 0.  1.
         -3    1    4    4    0  502  0.38024445463E+03 -0.42384577032E+02  0.14371037723E+04  0.14871615750E+04  0.00000000000E+00 0.  1.
<mgrwt>
<rscale>  0 0.15603986E+04</rscale>
<asrwt>0</asrwt>
<pdfrwt beam="1">  1        2 0.39776008E+00 0.15603986E+04</pdfrwt>
<pdfrwt beam="2">  1       -2 0.36221232E-01 0.15603986E+04</pdfrwt>
<totfact> 0.21473834E+01</totfact>
</mgrwt>
</event>
<event>
11    1  0.2404191E-008  0.1119775E+04  0.7818608E-02  0.9186129E-01
          2   -1    0    0  501    0  0.00000000000E+00  0.00000000000E+00  0.18502283923E+04  0.18502283923E+04  0.00000000000E+00 0. -1.
         -2   -1    0    0    0  501 -0.00000000000E+00 -0.00000000000E+00 -0.16942450087E+03  0.16942450087E+03  0.00000000000E+00 0.  1.
         23    2    1    2    0    0 -0.12575263028E+03  0.28845689918E+02  0.52528665402E+03  0.54857000309E+03  0.91417621704E+02 0.  0.
        254    2    1    2    0    0  0.12575263028E+03 -0.28845689918E+02  0.11555172374E+04  0.14710828901E+04  0.90123192669E+03 0.  0.
        -24    2    4    4    0    0  0.22274432793E+03  0.27264667060E+03  0.14367755775E+03  0.38896823583E+03  0.81864554415E+02 0.  0.
         11    1    3    3    0    0 -0.10339258509E+03 -0.14871801312E+02  0.41320739666E+03  0.42620599454E+03  0.00000000000E+00 0.  1.
        -11    1    3    3    0    0 -0.22360045193E+02  0.43717491231E+02  0.11207925736E+03  0.12236400856E+03  0.00000000000E+00 0. -1.
          2    1    4    4  502    0 -0.42875694890E+02 -0.17214629698E+03  0.84851127020E+03  0.86685872461E+03  0.00000000000E+00 0. -1.
          3    1    5    5  503    0  0.39727794703E+02  0.74720808925E+02  0.24956469890E+01  0.84662419126E+02  0.00000000000E+00 0. -1.
         -4    1    5    5    0  503  0.18301653322E+03  0.19792586168E+03  0.14118191076E+03  0.30430581670E+03  0.00000000000E+00 0.  1.
         -1    1    4    4    0  502 -0.54116002752E+02 -0.12934606354E+03  0.16332840949E+03  0.21525592966E+03  0.00000000000E+00 0.  1.
<mgrwt>
<rscale>  0 0.11197750E+04</rscale>
<asrwt>0</asrwt>
<pdfrwt beam="1">  1        2 0.28465051E+00 0.11197750E+04</pdfrwt>
<pdfrwt beam="2">  1       -2 0.26065309E-01 0.11197750E+04</pdfrwt>
<totfact> 0.10678691E+02</totfact>
</mgrwt>
</event>
<event>
12    1  0.2404191E-008  0.1103580E+04  0.7818608E-02  0.9201709E-01
         -1   -1    0    0    0  501 -0.00000000000E+00  0.00000000000E+00  0.60559939608E+03  0.60559939608E+03  0.00000000000E+00 0.  1.
          1   -1    0    0  501    0  0.00000000000E+00 -0.00000000000E+00 -0.50276196626E+03  0.50276196626E+03  0.00000000000E+00 0. -1.
         23    2    1    2    0    0  0.15167461514E+03 -0.73417216115E+02  0.12554794802E+02  0.18919083322E+03  0.85089787880E+02 0.  0.
        254    2    1    2    0    0 -0.15167461514E+03  0.73417216115E+02  0.90282635016E+02  0.91917052912E+03  0.89907075968E+03 0.  0.
        -24    2    4    4    0    0 -0.28493710165E+03  0.36260904699E+03  0.27824195097E+03  0.54504153824E+03  0.83529768784E+02 0.  0.
         24    2    4    4    0    0  0.13326248650E+03 -0.28919183087E+03 -0.18795931595E+03  0.37412899088E+03  0.57035006876E+02 0.  0.
         13    1    3    3    0    0  0.42150666442E+02 -0.22917480377E+02 -0.35167822539E+02  0.59486681959E+02  0.00000000000E+00 0. -1.
        -13    1    3    3    0    0  0.10952394870E+03 -0.50499735738E+02  0.47722617341E+02  0.12970415126E+03  0.00000000000E+00 0.  1.
          2    1    6    6  502    0  0.41059835514E+02 -0.38152654153E+02 -0.32126850705E+02  0.64603944520E+02  0.00000000000E+00 0. -1.
          3    1    5    5  503    0  0.15275598857E+01 -0.32831597009E+01  0.45374461637E+00  0.36494466708E+01  0.00000000000E+00 0. -1.
         -4    1    5    5    0  503 -0.28646466153E+03  0.36589220669E+03  0.27778820635E+03  0.54139209157E+03  0.00000000000E+00 0.  1.
         -1    1    6    6    0  502  0.92202650988E+02 -0.25103917672E+03 -0.15583246525E+03  0.30952504636E+03  0.00000000000E+00 0.  1.
<mgrwt>
<rscale>  0 0.11035803E+04</rscale>
<asrwt>0</asrwt>
<pdfrwt beam="1">  1        1 0.77347995E-01 0.11035803E+04</pdfrwt>
<pdfrwt beam="2">  1       -1 0.93169137E-01 0.11035803E+04</pdfrwt>
<totfact> 0.49043340E+01</totfact>
</mgrwt>
</event>
<event>
11    1  0.2404191E-008  0.1865386E+04  0.7818608E-02  0.8672280E-01
         -2   -1    0    0    0  501 -0.00000000000E+00  0.00000000000E+00  0.73146498502E+03  0.73146498502E+03  0.00000000000E+00 0.  1.
          2   -1    0    0  501    0  0.00000000000E+00 -0.00000000000E+00 -0.11892798540E+04  0.11892798540E+04  0.00000000000E+00 0. -1.
         23    2    1    2    0    0 -0.50895890857E+03  0.32889197837E+03 -0.55938787371E+03  0.82986607515E+03  0.92486784901E+02 0.  0.
        254    2    1    2    0    0  0.50895890857E+03 -0.32889197837E+03  0.10157300471E+03  0.10908787639E+04  0.90138243724E+03 0.  0.
        -24    2    4    4    0    0 -0.21803187131E+03 -0.37532675509E+02  0.14753799360E+03  0.27710762977E+03  0.77939593780E+02 0.  0.
         11    1    3    3    0    0 -0.41909760470E+02  0.40085416446E+02 -0.23465680719E+02  0.62561224460E+02  0.00000000000E+00 0.  1.
        -11    1    3    3    0    0 -0.46704914810E+03  0.28880656192E+03 -0.53592219300E+03  0.76730485069E+03  0.00000000000E+00 0. -1.
          2    1    4    4  502    0  0.68227620506E+03 -0.20799822849E+03 -0.12363100015E+02  0.71338413866E+03  0.00000000000E+00 0. -1.
          3    1    5    5  503    0 -0.21249069008E+03 -0.44449425481E+02  0.11972249459E+03  0.24791434107E+03  0.00000000000E+00 0. -1.
         -4    1    5    5    0  503 -0.55411812319E+01  0.69167499721E+01  0.27815499011E+02  0.29193288695E+02  0.00000000000E+00 0.  1.
         -1    1    4    4    0  502  0.44714574821E+02 -0.83361074373E+02 -0.33601888879E+02  0.10038699546E+03  0.00000000000E+00 0.  1.
<mgrwt>
<rscale>  0 0.18653864E+04</rscale>
<asrwt>0</asrwt>
<pdfrwt beam="1">  1        2 0.18296613E+00 0.18653864E+04</pdfrwt>
<pdfrwt beam="2">  1       -2 0.11253308E+00 0.18653864E+04</pdfrwt>
<totfact> 0.11225347E+01</totfact>
</mgrwt>
</event>
<event>
12    1  0.2404191E-008  0.1577278E+04  0.7818608E-02  0.8834630E-01
          2   -1    0    0  501    0  0.00000000000E+00  0.00000000000E+00  0.16622542820E+04  0.16622542820E+04  0.00000000000E+00 0. -1.
         -2   -1    0    0    0  501 -0.00000000000E+00 -0.00000000000E+00 -0.37416166757E+03  0.37416166757E+03  0.00000000000E+00 0.  1.
         23    2    1    2    0    0  0.20733537743E+03  0.14818506893E+01  0.10636833759E+04  0.10877378083E+04  0.93600538117E+02 0.  0.
        254    2    1    2    0    0 -0.20733537743E+03 -0.14818506893E+01  0.22440923852E+03  0.94867814130E+03  0.89813170238E+03 0.  0.
        -24    2    4    4    0    0 -0.95994763573E+02 -0.38414483817E+03 -0.11107730442E+03  0.41899804658E+03  0.80243031783E+02 0.  0.
         24    2    4    4    0    0 -0.11134061386E+03  0.38266298748E+03  0.33548654294E+03  0.52968009472E+03  0.95823212048E+02 0.  0.
         13    1    3    3    0    0  0.14754354702E+02 -0.26993952144E+02  0.20261814733E+03  0.20494018167E+03  0.00000000000E+00 0.  1.
        -13    1    3    3    0    0  0.19258102273E+03  0.28475802833E+02  0.86106522860E+03  0.88279762662E+03  0.00000000000E+00 0. -1.
          4    1    6    6  502    0 -0.12045967769E+03  0.26594630948E+03  0.25468918774E+03  0.38743329210E+03  0.00000000000E+00 0. -1.
          1    1    5    5  503    0 -0.15036753489E+02 -0.21420632320E+03 -0.74130377668E+02  0.22716902462E+03  0.00000000000E+00 0. -1.
         -2    1    5    5    0  503 -0.80958010084E+02 -0.16993851498E+03 -0.36946926749E+02  0.19182902196E+03  0.00000000000E+00 0.  1.
         -3    1    6    6    0  502  0.91190638286E+01  0.11671667800E+03  0.80797355192E+02  0.14224680262E+03  0.00000000000E+00 0.  1.
<mgrwt>
<rscale>  0 0.15772785E+04</rscale>
<asrwt>0</asrwt>
<pdfrwt beam="1">  1        2 0.25573142E+00 0.15772785E+04</pdfrwt>
<pdfrwt beam="2">  1       -2 0.57563334E-01 0.15772785E+04</pdfrwt>
<totfact> 0.27944525E+01</totfact>
</mgrwt>
</event>
<event>
11    1  0.2404191E-008  0.1265869E+04  0.7818608E-02  0.9057078E-01
          1   -1    0    0  501    0  0.00000000000E+00  0.00000000000E+00  0.29577804893E+04  0.29577804893E+04  0.00000000000E+00 0. -1.
         -1   -1    0    0    0  501 -0.00000000000E+00 -0.00000000000E+00 -0.13544146389E+03  0.13544146389E+03  0.00000000000E+00 0.  1.
         23    2    1    2    0    0 -0.15383598990E+03  0.12439499285E+03  0.17259087321E+03  0.27766457781E+03  0.90390166625E+02 0.  0.
        254    2    1    2    0    0  0.15383598990E+03 -0.12439499285E+03  0.26497481522E+04  0.28155573754E+04  0.93115972741E+03 0.  0.
        -24    2    4    4    0    0 -0.42916426169E+02 -0.46662249565E+03  0.15541412822E+04  0.16251491564E+04  0.78589328768E+02 0.  0.
         11    1    3    3    0    0  0.46489075604E+01 -0.77639423793E+01  0.66806405948E+00  0.90739986975E+01  0.00000000000E+00 0. -1.
        -11    1    3    3    0    0 -0.15848489746E+03  0.13215893522E+03  0.17192280915E+03  0.26859057911E+03  0.00000000000E+00 0.  1.
          2    1    4    4  502    0  0.18736370878E+03  0.25984210241E+03  0.53404574937E+03  0.62275833192E+03  0.00000000000E+00 0. -1.
          1    1    5    5  503    0 -0.35025129384E+02 -0.42784886159E+03  0.14813709991E+04  0.15423169081E+04  0.00000000000E+00 0. -1.
         -2    1    5    5    0  503 -0.78912967846E+01 -0.38773634058E+02  0.72770283052E+02  0.82832248300E+02  0.00000000000E+00 0.  1.
         -1    1    4    4    0  502  0.93887072864E+01  0.82385400397E+02  0.56156112065E+03  0.56764988703E+03  0.00000000000E+00 0.  1.
<mgrwt>
<rscale>  0 0.12658691E+04</rscale>
<asrwt>0</asrwt>
<pdfrwt beam="1">  1        1 0.45504310E+00 0.12658691E+04</pdfrwt>
<pdfrwt beam="2">  1       -1 0.20837151E-01 0.12658691E+04</pdfrwt>
<totfact> 0.12192737E+01</totfact>
</mgrwt>
</event>
<event>
12    1  0.2404191E-008  0.2798299E+04  0.7818608E-02  0.8303797E-01
         -2   -1    0    0    0  501 -0.00000000000E+00  0.00000000000E+00  0.17885437261E+04  0.17885437261E+04  0.00000000000E+00 0.  1.
          2   -1    0    0  501    0  0.00000000000E+00 -0.00000000000E+00 -0.10945325148E+04  0.10945325148E+04  0.00000000000E+00 0. -1.
         23    2    1    2    0    0  0.42426688431E+03 -0.80650413836E+02 -0.89859409290E+03  0.10011336283E+04  0.91051191680E+02 0.  0.
        254    2    1    2    0    0 -0.42426688431E+03  0.80650413836E+02  0.15926053042E+04  0.18819426127E+04  0.90488091156E+03 0.  0.
        -24    2    4    4    0    0 -0.67404985814E+03 -0.74712699837E+02  0.12172664084E+04  0.13957043359E+04  0.79548006919E+02 0.  0.
         24    2    4    4    0    0  0.24978297383E+03  0.15536311367E+03  0.37533889578E+03  0.48623827679E+03  0.94969174079E+02 0.  0.
         13    1    3    3    0    0  0.13455078544E+02  0.10478173754E+02 -0.16116792256E+02  0.23464489265E+02  0.00000000000E+00 0.  1.
        -13    1    3    3    0    0  0.41081180577E+03 -0.91128587589E+02 -0.88247730065E+03  0.97766913902E+03  0.00000000000E+00 0. -1.
          2    1    6    6  502    0  0.39334952091E+02  0.44212552132E+02  0.28723532063E+02  0.65780160506E+02  0.00000000000E+00 0. -1.
          1    1    5    5  503    0 -0.77962918040E+02 -0.23746811343E+02  0.19326895337E+03  0.20974988909E+03  0.00000000000E+00 0. -1.
         -2    1    5    5    0  503 -0.59608694010E+03 -0.50965888494E+02  0.10239974550E+04  0.11859544468E+04  0.00000000000E+00 0.  1.
         -1    1    6    6    0  502  0.21044802174E+03  0.11115056154E+03  0.34661536372E+03  0.42045811628E+03  0.00000000000E+00 0.  1.
<mgrwt>
<rscale>  0 0.27982990E+04</rscale>
<asrwt>0</asrwt>
<pdfrwt beam="1">  1        2 0.16838962E+00 0.27982990E+04</pdfrwt>
<pdfrwt beam="2">  1       -2 0.27516057E+00 0.27982990E+04</pdfrwt>
<totfact> 0.86128137E-01</totfact>
</mgrwt>
</event>
<event>
12    1  0.2404191E-008  0.1533153E+04  0.7818608E-02  0.8862701E-01
          2   -1    0    0  501    0  0.00000000000E+00  0.00000000000E+00  0.19075856967E+04  0.19075856967E+04  0.00000000000E+00 0. -1.
         -2   -1    0    0    0  501 -0.00000000000E+00 -0.00000000000E+00 -0.30805407540E+03  0.30805407540E+03  0.00000000000E+00 0.  1.
         23    2    1    2    0    0 -0.38017794657E+03 -0.12594403978E+03  0.96377471200E+03  0.10475020638E+04  0.89452254951E+02 0.  0.
        254    2    1    2    0    0  0.38017794657E+03  0.12594403978E+03  0.63575690930E+03  0.11681377083E+04  0.89440577237E+03 0.  0.
        -24    2    4    4    0    0  0.11725697179E+03 -0.26677429717E+03  0.61606435613E+03  0.68628651805E+03  0.80846588597E+02 0.  0.
         24    2    4    4    0    0  0.26292097479E+03  0.39271833695E+03  0.19692553166E+02  0.48185119027E+03  0.91856636952E+02 0.  0.
         13    1    3    3    0    0 -0.35505067029E+03 -0.13417854603E+03  0.93094790930E+03  0.10053501233E+04  0.00000000000E+00 0. -1.
        -13    1    3    3    0    0 -0.25127276283E+02  0.82345062528E+01  0.32826802707E+02  0.42151940437E+02  0.00000000000E+00 0.  1.
          4    1    6    6  502    0  0.99903260869E+02  0.10906932154E+03 -0.30063651912E+02  0.15093244052E+03  0.00000000000E+00 0. -1.
          1    1    5    5  503    0  0.90961746714E+02 -0.13371196347E+03  0.27188474086E+03  0.31634512933E+03  0.00000000000E+00 0. -1.
         -2    1    5    5    0  503  0.26295225073E+02 -0.13306233370E+03  0.34417961528E+03  0.36994138871E+03  0.00000000000E+00 0.  1.
         -3    1    6    6    0  502  0.16301771392E+03  0.28364901541E+03  0.49756205078E+02  0.33091874975E+03  0.00000000000E+00 0.  1.
<mgrwt>
<rscale>  0 0.15331530E+04</rscale>
<asrwt>0</asrwt>
<pdfrwt beam="1">  1        2 0.29347472E+00 0.15331530E+04</pdfrwt>
<pdfrwt beam="2">  1       -2 0.47392936E-01 0.15331530E+04</pdfrwt>
<totfact> 0.30585473E+01</totfact>
</mgrwt>
</event>
<event>
12    1  0.2404191E-008  0.1307799E+04  0.7818608E-02  0.9023404E-01
          2   -1    0    0  501    0  0.00000000000E+00  0.00000000000E+00  0.13198438047E+04  0.13198438047E+04  0.00000000000E+00 0. -1.
         -2   -1    0    0    0  501 -0.00000000000E+00 -0.00000000000E+00 -0.32396579273E+03  0.32396579273E+03  0.00000000000E+00 0.  1.
         23    2    1    2    0    0 -0.12308400877E+01 -0.18477814049E+03 -0.87533460635E+02  0.22437249398E+03  0.92392819820E+02 0.  0.
        254    2    1    2    0    0  0.12308400877E+01  0.18477814049E+03  0.10834114726E+04  0.14194371034E+04  0.89826321057E+03 0.  0.
        -24    2    4    4    0    0 -0.42987575685E+03 -0.40400609189E+01  0.50308167204E+03  0.66656809363E+03  0.80077252017E+02 0.  0.
         24    2    4    4    0    0  0.43110659694E+03  0.18881820140E+03  0.58032980054E+03  0.75286900978E+03  0.92324738768E+02 0.  0.
         13    1    3    3    0    0 -0.43239905396E+02 -0.11094901531E+03 -0.33502072046E+02  0.12370029203E+03  0.00000000000E+00 0.  1.
        -13    1    3    3    0    0  0.42009065308E+02 -0.73829125179E+02 -0.54031388589E+02  0.10067220195E+03  0.00000000000E+00 0. -1.
          4    1    6    6  502    0  0.40395406953E+03  0.19435551291E+03  0.52048025291E+03  0.68691531455E+03  0.00000000000E+00 0. -1.
          1    1    5    5  503    0 -0.17954464626E+03  0.11585233809E+02  0.26808918508E+03  0.32286577521E+03  0.00000000000E+00 0. -1.
         -2    1    5    5    0  503 -0.25033111059E+03 -0.15625294728E+02  0.23499248695E+03  0.34370231842E+03  0.00000000000E+00 0.  1.
         -3    1    6    6    0  502  0.27152527404E+02 -0.55373115097E+01  0.59849547630E+02  0.65953695231E+02  0.00000000000E+00 0.  1.
<mgrwt>
<rscale>  0 0.13077985E+04</rscale>
<asrwt>0</asrwt>
<pdfrwt beam="1">  1        2 0.20305289E+00 0.13077985E+04</pdfrwt>
<pdfrwt beam="2">  1       -2 0.49840892E-01 0.13077985E+04</pdfrwt>
<totfact> 0.60049116E+01</totfact>
</mgrwt>
</event>
<event>
12    1  0.2404191E-008  0.1413266E+04  0.7818608E-02  0.8944272E-01
         -1   -1    0    0    0  501 -0.00000000000E+00  0.00000000000E+00  0.39509154226E+03  0.39509154226E+03  0.00000000000E+00 0.  1.
          1   -1    0    0  501    0  0.00000000000E+00 -0.00000000000E+00 -0.12638333686E+04  0.12638333686E+04  0.00000000000E+00 0. -1.
         23    2    1    2    0    0 -0.33799993892E+03 -0.78581708100E+02  0.31824427265E+01  0.35957073379E+03  0.94137883434E+02 0.  0.
        254    2    1    2    0    0  0.33799993892E+03  0.78581708100E+02 -0.87192426907E+03  0.12993541771E+04  0.89869366469E+03 0.  0.
        -24    2    4    4    0    0  0.59981472645E+03  0.11464260256E+03 -0.79964255749E+03  0.10092675050E+04  0.79196240071E+02 0.  0.
         24    2    4    4    0    0 -0.26181478753E+03 -0.36060894462E+02 -0.72281711584E+02  0.29008667212E+03  0.95279905730E+02 0.  0.
         11    1    3    3    0    0 -0.13957878969E+02 -0.23793566237E+02  0.13618507253E+02  0.30763938620E+02  0.00000000000E+00 0. -1.
        -11    1    3    3    0    0 -0.32404205995E+03 -0.54788141863E+02 -0.10436064527E+02  0.32880679517E+03  0.00000000000E+00 0.  1.
          2    1    6    6  502    0 -0.99066266246E+02  0.11156980426E+02 -0.67808649957E+02  0.12056789095E+03  0.00000000000E+00 0. -1.
          1    1    5    5  503    0  0.25550265664E+03  0.12694770502E+02 -0.30627188339E+03  0.39905542385E+03  0.00000000000E+00 0. -1.
         -2    1    5    5    0  503  0.34431206981E+03  0.10194783206E+03 -0.49337067410E+03  0.61021208111E+03  0.00000000000E+00 0.  1.
         -1    1    6    6    0  502 -0.16274852128E+03 -0.47217874888E+02 -0.44730616266E+01  0.16951878117E+03  0.00000000000E+00 0.  1.
<mgrwt>
<rscale>  0 0.14132655E+04</rscale>
<asrwt>0</asrwt>
<pdfrwt beam="1">  1        1 0.19443590E+00 0.14132655E+04</pdfrwt>
<pdfrwt beam="2">  1       -1 0.60783315E-01 0.14132655E+04</pdfrwt>
<totfact> 0.25675149E+01</totfact>
</mgrwt>
</event>
<event>
12    1  0.2404191E-008  0.1402531E+04  0.7818608E-02  0.8951988E-01
          2   -1    0    0  501    0  0.00000000000E+00  0.00000000000E+00  0.68460921311E+03  0.68460921311E+03  0.00000000000E+00 0. -1.
         -2   -1    0    0    0  501 -0.00000000000E+00 -0.00000000000E+00 -0.71832747593E+03  0.71832747593E+03  0.00000000000E+00 0.  1.
         23    2    1    2    0    0  0.24435234160E+03 -0.29126231443E+03  0.12118543534E+03  0.41046791501E+03  0.96209130843E+02 0.  0.
        254    2    1    2    0    0 -0.24435234160E+03  0.29126231443E+03 -0.15490369816E+03  0.99246877403E+03  0.90358027262E+03 0.  0.
        -24    2    4    4    0    0  0.21840037298E+03  0.33653166285E+03 -0.28601807819E+03  0.50087715474E+03  0.90107158832E+02 0.  0.
         24    2    4    4    0    0 -0.46275271458E+03 -0.45269348418E+02  0.13111438002E+03  0.49159161929E+03  0.91005223765E+02 0.  0.
         11    1    3    3    0    0  0.19221908659E+03 -0.24909218106E+03  0.61269149974E+02  0.32054484967E+03  0.00000000000E+00 0.  1.
        -11    1    3    3    0    0  0.52133255016E+02 -0.42170133371E+02  0.59916285365E+02  0.89923065334E+02  0.00000000000E+00 0. -1.
          2    1    6    6  502    0 -0.35837925603E+03 -0.59646700653E+02  0.13108082190E+03  0.38623257491E+03  0.00000000000E+00 0. -1.
          1    1    5    5  503    0  0.21825500953E+03  0.29348850253E+03 -0.27131151098E+03  0.45539069631E+03  0.00000000000E+00 0. -1.
         -2    1    5    5    0  503  0.14536345254E+00  0.43043160322E+02 -0.14706567205E+02  0.45486458424E+02  0.00000000000E+00 0.  1.
         -1    1    6    6    0  502 -0.10437345856E+03  0.14377352235E+02  0.33558122066E-01  0.10535904439E+03  0.00000000000E+00 0.  1.
<mgrwt>
<rscale>  0 0.14025314E+04</rscale>
<asrwt>0</asrwt>
<pdfrwt beam="1">  1        2 0.10532449E+00 0.14025314E+04</pdfrwt>
<pdfrwt beam="2">  1       -2 0.11051192E+00 0.14025314E+04</pdfrwt>
<totfact> 0.26642944E+01</totfact>
</mgrwt>
</event>
<event>
11    1  0.2404191E-008  0.1456582E+04  0.7818608E-02  0.8913850E-01
         -2   -1    0    0    0  501 -0.00000000000E+00  0.00000000000E+00  0.56175402976E+03  0.56175402976E+03  0.00000000000E+00 0.  1.
          2   -1    0    0  501    0  0.00000000000E+00 -0.00000000000E+00 -0.94419870219E+03  0.94419870219E+03  0.00000000000E+00 0. -1.
         23    2    1    2    0    0 -0.17219177156E+03  0.64423045053E+02  0.30043017219E+03  0.36349400789E+03  0.89829118225E+02 0.  0.
        254    2    1    2    0    0  0.17219177156E+03 -0.64423045053E+02 -0.68287484462E+03  0.11424587241E+04  0.89727005291E+03 0.  0.
        -24    2    4    4    0    0  0.35697443714E+03  0.20030901184E+03 -0.70080126840E+03  0.81551372855E+03  0.79911042224E+02 0.  0.
         13    1    3    3    0    0 -0.13210265064E+03  0.68558004969E+02  0.28265773003E+03  0.31944749599E+03  0.00000000000E+00 0.  1.
        -13    1    3    3    0    0 -0.40089120928E+02 -0.41349599165E+01  0.17772442169E+02  0.44046511904E+02  0.00000000000E+00 0. -1.
          4    1    4    4  502    0 -0.85236058536E+02 -0.82804053715E+02  0.54754637788E+00  0.11883600798E+03  0.00000000000E+00 0. -1.
          1    1    5    5  503    0  0.29571334105E+03  0.13080494232E+03 -0.56795412079E+03  0.65355045431E+03  0.00000000000E+00 0. -1.
         -2    1    5    5    0  503  0.61261096084E+02  0.69504069517E+02 -0.13284714761E+03  0.16196327423E+03  0.00000000000E+00 0.  1.
         -3    1    4    4    0  502 -0.99546607036E+02 -0.18192800318E+03  0.17378877397E+02  0.20810898753E+03  0.00000000000E+00 0.  1.
<mgrwt>
<rscale>  0 0.14565815E+04</rscale>
<asrwt>0</asrwt>
<pdfrwt beam="1">  1        2 0.14526134E+00 0.14565815E+04</pdfrwt>
<pdfrwt beam="2">  1       -2 0.86423697E-01 0.14565815E+04</pdfrwt>
<totfact> 0.30807855E+01</totfact>
</mgrwt>
</event>
<event>
11    1  0.2404191E-008  0.4079186E+04  0.7818608E-02  0.7988760E-01
         -2   -1    0    0    0  501 -0.00000000000E+00  0.00000000000E+00  0.22985695547E+04  0.22985695547E+04  0.00000000000E+00 0.  1.
          2   -1    0    0  501    0  0.00000000000E+00 -0.00000000000E+00 -0.18097948732E+04  0.18097948732E+04  0.00000000000E+00 0. -1.
         23    2    1    2    0    0 -0.19107919025E+04 -0.33361370905E+03  0.21895415203E+03  0.19541124749E+04  0.90503272378E+02 0.  0.
        254    2    1    2    0    0  0.19107919025E+04  0.33361370905E+03  0.26982052942E+03  0.21542519530E+04  0.89753805340E+03 0.  0.
        -24    2    4    4    0    0  0.16474232013E+04 -0.19442542624E+01  0.29675415213E+02  0.16496490751E+04  0.80339632325E+02 0.  0.
         11    1    3    3    0    0 -0.17668253349E+04 -0.32612006606E+03  0.21885263609E+03  0.18099509766E+04  0.00000000000E+00 0.  1.
        -11    1    3    3    0    0 -0.14396656763E+03 -0.74936429983E+01  0.10151594324E+00  0.14416149828E+03  0.00000000000E+00 0. -1.
          4    1    4    4  502    0  0.12031294633E+03  0.83907440672E+02  0.37961360176E+02  0.15151477987E+03  0.00000000000E+00 0. -1.
          3    1    5    5  503    0  0.58094630965E+02 -0.14965479511E+02  0.20978095268E+01  0.60027931239E+02  0.00000000000E+00 0. -1.
         -4    1    5    5    0  503  0.15893285703E+04  0.13021225249E+02  0.27577605686E+02  0.15896211439E+04  0.00000000000E+00 0.  1.
         -3    1    4    4    0  502  0.14305575491E+03  0.25165052264E+03  0.20218375403E+03  0.35308809801E+03  0.00000000000E+00 0.  1.
<mgrwt>
<rscale>  0 0.40791859E+04</rscale>
<asrwt>0</asrwt>
<pdfrwt beam="1">  1        2 0.27842998E+00 0.40791859E+04</pdfrwt>
<pdfrwt beam="2">  1       -2 0.35362609E+00 0.40791859E+04</pdfrwt>
<totfact> 0.98561573E-02</totfact>
</mgrwt>
</event>
<event>
11    1  0.2404191E-008  0.1639834E+04  0.7818608E-02  0.8796443E-01
          1   -1    0    0  501    0  0.00000000000E+00  0.00000000000E+00  0.23976143552E+04  0.23976143552E+04  0.00000000000E+00 0. -1.
         -1   -1    0    0    0  501 -0.00000000000E+00 -0.00000000000E+00 -0.28038864100E+03  0.28038864100E+03  0.00000000000E+00 0.  1.
         23    2    1    2    0    0 -0.48448799701E+03  0.10385325494E+03  0.12022477205E+04  0.13034860116E+04  0.90344248110E+02 0.  0.
        254    2    1    2    0    0  0.48448799701E+03 -0.10385325494E+03  0.91497799371E+03  0.13745169846E+04  0.89810806379E+03 0.  0.
        -24    2    4    4    0    0 -0.19507982569E+03  0.15772467327E+03  0.34095774417E+03  0.43063817997E+03  0.79144474164E+02 0.  0.
         13    1    3    3    0    0 -0.55631616273E+02  0.23207184819E+02  0.86420281322E+02  0.10536562618E+03  0.00000000000E+00 0.  1.
        -13    1    3    3    0    0 -0.42885638073E+03  0.80646070119E+02  0.11158274392E+04  0.11981203854E+04  0.00000000000E+00 0. -1.
          2    1    4    4  502    0  0.15475264534E+03 -0.13873583822E+03  0.12646745898E+03  0.24329001670E+03  0.00000000000E+00 0. -1.
          3    1    5    5  503    0 -0.12231537716E+03  0.14376668260E+03  0.25235361517E+03  0.31513847370E+03  0.00000000000E+00 0. -1.
         -4    1    5    5    0  503 -0.72764448530E+02  0.13957990670E+02  0.88604128996E+02  0.11549970627E+03  0.00000000000E+00 0.  1.
         -1    1    4    4    0  502  0.52481517736E+03 -0.12284208999E+03  0.44755279056E+03  0.70058878795E+03  0.00000000000E+00 0.  1.
<mgrwt>
<rscale>  0 0.16398339E+04</rscale>
<asrwt>0</asrwt>
<pdfrwt beam="1">  1        1 0.36886373E+00 0.16398339E+04</pdfrwt>
<pdfrwt beam="2">  1       -1 0.43136716E-01 0.16398339E+04</pdfrwt>
<totfact> 0.80934101E+00</totfact>
</mgrwt>
</event>
<event>
12    1  0.2404191E-008  0.3235583E+04  0.7818608E-02  0.8179482E-01
          2   -1    0    0  501    0  0.00000000000E+00  0.00000000000E+00  0.28817289097E+04  0.28817289097E+04  0.00000000000E+00 0. -1.
         -2   -1    0    0    0  501 -0.00000000000E+00 -0.00000000000E+00 -0.90822203491E+03  0.90822203491E+03  0.00000000000E+00 0.  1.
         23    2    1    2    0    0 -0.11600976660E+04 -0.18294548152E+03  0.19816189452E+04  0.23053724004E+04  0.92911874878E+02 0.  0.
        254    2    1    2    0    0  0.11600976660E+04  0.18294548152E+03 -0.81120704231E+01  0.14845785442E+04  0.90808149659E+03 0.  0.
        -24    2    4    4    0    0  0.44696091523E+03 -0.65923146846E+02 -0.42032653782E+03  0.62188947664E+03  0.77150513383E+02 0.  0.
         24    2    4    4    0    0  0.71313675076E+03  0.24886862836E+03  0.41221446740E+03  0.86268906760E+03  0.61741726116E+02 0.  0.
         11    1    3    3    0    0 -0.78616483692E+03 -0.16442067100E+03  0.13836953188E+04  0.15999068857E+04  0.00000000000E+00 0. -1.
        -11    1    3    3    0    0 -0.37393282908E+03 -0.18524810515E+02  0.59792362643E+03  0.70546551461E+03  0.00000000000E+00 0.  1.
          4    1    6    6  502    0  0.53264049195E+03  0.20500919757E+03  0.28843030434E+03  0.63947377211E+03  0.00000000000E+00 0. -1.
          3    1    5    5  503    0  0.14389934882E+03 -0.56177376694E+02 -0.15761400789E+03  0.22069231008E+03  0.00000000000E+00 0. -1.
         -4    1    5    5    0  503  0.30306156641E+03 -0.97457701519E+01 -0.26271252994E+03  0.40119716656E+03  0.00000000000E+00 0.  1.
         -3    1    6    6    0  502  0.18049625881E+03  0.43859430789E+02  0.12378416306E+03  0.22321529548E+03  0.00000000000E+00 0.  1.
<mgrwt>
<rscale>  0 0.32355832E+04</rscale>
<asrwt>0</asrwt>
<pdfrwt beam="1">  1        2 0.44334291E+00 0.32355832E+04</pdfrwt>
<pdfrwt beam="2">  1       -2 0.13972647E+00 0.32355832E+04</pdfrwt>
<totfact> 0.62452016E-01</totfact>
</mgrwt>
</event>
<event>
12    1  0.2443073E-008  0.1708329E+04  0.7818608E-02  0.8756628E-01
         -1   -1    0    0    0  501 -0.00000000000E+00  0.00000000000E+00  0.52805489662E+03  0.52805489662E+03  0.00000000000E+00 0.  1.
          1   -1    0    0  501    0  0.00000000000E+00 -0.00000000000E+00 -0.13816690340E+04  0.13816690340E+04  0.00000000000E+00 0. -1.
         23    2    1    2    0    0  0.46108896463E+03  0.37971438809E+03 -0.42230629643E+03  0.73742716465E+03  0.93113722577E+02 0.  0.
        254    2    1    2    0    0 -0.46108896463E+03 -0.37971438809E+03 -0.43130784100E+03  0.11722967660E+04  0.91184823522E+03 0.  0.
        -24    2    4    4    0    0  0.18426665764E+03 -0.80428494488E+02 -0.39914564065E+03  0.45387126980E+03  0.79113483374E+02 0.  0.
         24    2    4    4    0    0 -0.64535562227E+03 -0.29928589360E+03 -0.32162200347E+02  0.71842549622E+03  0.95104475058E+02 0.  0.
         11    1    3    3    0    0  0.46153970868E+03  0.38214041823E+03 -0.42432786824E+03  0.73423725164E+03  0.00000000000E+00 0. -1.
        -11    1    3    3    0    0 -0.45074405748E+00 -0.24260301368E+01  0.20215718052E+01  0.31899130072E+01  0.00000000000E+00 0.  1.
          2    1    6    6  502    0 -0.63183895964E+02 -0.18448829770E+02  0.22955749207E+02  0.69710332454E+02  0.00000000000E+00 0. -1.
          3    1    5    5  503    0 -0.77382185747E+01 -0.20469250775E+01 -0.22843870500E+02  0.24205626379E+02  0.00000000000E+00 0. -1.
         -4    1    5    5    0  503  0.19200487622E+03 -0.78381569411E+02 -0.37630177015E+03  0.42966564342E+03  0.00000000000E+00 0.  1.
         -1    1    6    6    0  502 -0.58217172631E+03 -0.28083706383E+03 -0.55117949554E+02  0.64871516376E+03  0.00000000000E+00 0.  1.
<mgrwt>
<rscale>  0 0.17083291E+04</rscale>
<asrwt>0</asrwt>
<pdfrwt beam="1">  1        1 0.21256446E+00 0.17083291E+04</pdfrwt>
<pdfrwt beam="2">  1       -1 0.81239216E-01 0.17083291E+04</pdfrwt>
<totfact> 0.11360954E+01</totfact>
</mgrwt>
</event>
<event>
11    1  0.2404191E-008  0.2029061E+04  0.7818608E-02  0.8593153E-01
          2   -1    0    0  501    0  0.00000000000E+00  0.00000000000E+00  0.97270251929E+03  0.97270251929E+03  0.00000000000E+00 0. -1.
         -2   -1    0    0    0  501 -0.00000000000E+00 -0.00000000000E+00 -0.10581572467E+04  0.10581572467E+04  0.00000000000E+00 0.  1.
         23    2    1    2    0    0  0.10227777901E+03  0.78837587617E+03  0.76486072737E+02  0.80427286584E+03  0.94907624497E+02 0.  0.
        254    2    1    2    0    0 -0.10227777901E+03 -0.78837587617E+03 -0.16194080013E+03  0.12265869001E+04  0.91994202786E+03 0.  0.
        -24    2    4    4    0    0  0.15133356358E+03 -0.74089411467E+03 -0.41187684987E+03  0.86490391018E+03  0.81180648997E+02 0.  0.
         11    1    3    3    0    0  0.33463134961E+02  0.55724593067E+03  0.73754268602E+02  0.56310079096E+03  0.00000000000E+00 0. -1.
        -11    1    3    3    0    0  0.68814644046E+02  0.23112994551E+03  0.27318041351E+01  0.24117207487E+03  0.00000000000E+00 0.  1.
          4    1    4    4  502    0 -0.25293138153E+03 -0.45862682449E+02  0.25128060538E+03  0.35947129516E+03  0.00000000000E+00 0. -1.
          3    1    5    5  503    0  0.13561567778E+03 -0.66195682975E+03 -0.33746077467E+03  0.75528685342E+03  0.00000000000E+00 0. -1.
         -4    1    5    5    0  503  0.15717885801E+02 -0.78937284921E+02 -0.74416075200E+02  0.10961705676E+03  0.00000000000E+00 0.  1.
         -3    1    4    4    0  502 -0.67996105166E+00 -0.16190790551E+01 -0.13445556287E+01  0.22116947930E+01  0.00000000000E+00 0.  1.
<mgrwt>
<rscale>  0 0.20290611E+04</rscale>
<asrwt>0</asrwt>
<pdfrwt beam="1">  1        2 0.14964654E+00 0.20290611E+04</pdfrwt>
<pdfrwt beam="2">  1       -2 0.16279342E+00 0.20290611E+04</pdfrwt>
<totfact> 0.58409177E+00</totfact>
</mgrwt>
</event>
<event>
11    1  0.2404191E-008  0.1667060E+04  0.7818608E-02  0.8780378E-01
         -2   -1    0    0    0  501 -0.00000000000E+00  0.00000000000E+00  0.41986210197E+03  0.41986210197E+03  0.00000000000E+00 0.  1.
          2   -1    0    0  501    0  0.00000000000E+00 -0.00000000000E+00 -0.16547625517E+04  0.16547625517E+04  0.00000000000E+00 0. -1.
         23    2    1    2    0    0 -0.16265449692E+03  0.30493873285E+03  0.13513283243E+03  0.38222105849E+03  0.91585692066E+02 0.  0.
        254    2    1    2    0    0  0.16265449692E+03 -0.30493873285E+03 -0.13700332822E+04  0.16924035952E+04  0.93155494665E+03 0.  0.
        -24    2    4    4    0    0  0.20040948564E+03 -0.51377040031E+03 -0.43165026116E+03  0.70382370350E+03  0.70156050952E+02 0.  0.
         11    1    3    3    0    0 -0.13924361567E+03  0.25295850280E+03  0.14696196204E+03  0.32399785020E+03  0.00000000000E+00 0.  1.
        -11    1    3    3    0    0 -0.23410881248E+02  0.51980230049E+02 -0.11829129609E+02  0.58223208294E+02  0.00000000000E+00 0. -1.
          4    1    4    4  502    0 -0.99259001064E+02  0.22599049977E+03 -0.76333698633E+03  0.80225146306E+03  0.00000000000E+00 0. -1.
          1    1    5    5  503    0  0.13926401080E+03 -0.43132300057E+03 -0.35446985764E+03  0.57539801485E+03  0.00000000000E+00 0. -1.
         -2    1    5    5    0  503  0.61145474837E+02 -0.82447399738E+02 -0.77180403519E+02  0.12842568865E+03  0.00000000000E+00 0.  1.
         -3    1    4    4    0  502  0.61504012347E+02 -0.17158832319E+02 -0.17504603471E+03  0.18632842867E+03  0.00000000000E+00 0.  1.
<mgrwt>
<rscale>  0 0.16670598E+04</rscale>
<asrwt>0</asrwt>
<pdfrwt beam="1">  1        2 0.25457885E+00 0.16670598E+04</pdfrwt>
<pdfrwt beam="2">  1       -2 0.64594170E-01 0.16670598E+04</pdfrwt>
<totfact> 0.21936841E+01</totfact>
</mgrwt>
</event>
<event>
12    1  0.2404191E-008  0.1753991E+04  0.7818608E-02  0.8731157E-01
         -2   -1    0    0    0  501 -0.00000000000E+00  0.00000000000E+00  0.62224157264E+03  0.62224157264E+03  0.00000000000E+00 0.  1.
          2   -1    0    0  501    0  0.00000000000E+00 -0.00000000000E+00 -0.12360485088E+04  0.12360485088E+04  0.00000000000E+00 0. -1.
         23    2    1    2    0    0  0.77130572589E+02  0.36856884198E+02 -0.91520669091E+03  0.92418153639E+03  0.95920122881E+02 0.  0.
        254    2    1    2    0    0 -0.77130572589E+02 -0.36856884198E+02  0.30139975478E+03  0.93410854503E+03  0.88000534463E+03 0.  0.
        -24    2    4    4    0    0 -0.46219716851E+03  0.95415259083E+01  0.74139793781E+02  0.47537151988E+03  0.82244207087E+02 0.  0.
         24    2    4    4    0    0  0.38506659592E+03 -0.46398410106E+02  0.22725996100E+03  0.45873702514E+03  0.91452023557E+02 0.  0.
         13    1    3    3    0    0  0.79995958756E+02 -0.94130982409E+01 -0.50828185252E+03  0.51462452471E+03  0.00000000000E+00 0. -1.
        -13    1    3    3    0    0 -0.28653861668E+01  0.46269982439E+02 -0.40692483839E+03  0.40955701168E+03  0.00000000000E+00 0.  1.
          4    1    6    6  502    0  0.14505542096E+03 -0.61603867680E+02  0.10007421178E+03  0.18668411696E+03  0.00000000000E+00 0. -1.
          1    1    5    5  503    0 -0.11348619921E+03  0.41366865274E+01  0.54775039021E+02  0.12608145972E+03  0.00000000000E+00 0. -1.
         -2    1    5    5    0  503 -0.34871096930E+03  0.54048393810E+01  0.19364754760E+02  0.34929006016E+03  0.00000000000E+00 0.  1.
         -3    1    6    6    0  502  0.24001117496E+03  0.15205457574E+02  0.12718574921E+03  0.27205290818E+03  0.00000000000E+00 0.  1.
<mgrwt>
<rscale>  0 0.17539906E+04</rscale>
<asrwt>0</asrwt>
<pdfrwt beam="1">  1        2 0.19016131E+00 0.17539906E+04</pdfrwt>
<pdfrwt beam="2">  1       -2 0.95729474E-01 0.17539906E+04</pdfrwt>
<totfact> 0.15639671E+01</totfact>
</mgrwt>
</event>
<event>
11    1  0.2404191E-008  0.1569321E+04  0.7818608E-02  0.8839620E-01
          1   -1    0    0  501    0  0.00000000000E+00  0.00000000000E+00  0.13337011792E+04  0.13337011792E+04  0.00000000000E+00 0. -1.
         -1   -1    0    0    0  501 -0.00000000000E+00 -0.00000000000E+00 -0.46164190587E+03  0.46164190587E+03  0.00000000000E+00 0.  1.
         23    2    1    2    0    0  0.28525701767E+02 -0.14556326375E+03  0.86035320377E+03  0.87785152125E+03  0.91723926590E+02 0.  0.
        254    2    1    2    0    0 -0.28525701767E+02  0.14556326375E+03  0.11706069595E+02  0.91749156385E+03  0.90534598815E+03 0.  0.
        -24    2    4    4    0    0 -0.25306711061E+03 -0.19488324295E+03 -0.25423171110E+03  0.41589793160E+03  0.79466255256E+02 0.  0.
         13    1    3    3    0    0  0.35204874162E+02 -0.22507362921E+02  0.11450850562E+03  0.12189406225E+03  0.00000000000E+00 0.  1.
        -13    1    3    3    0    0 -0.66791723947E+01 -0.12305590083E+03  0.74584469814E+03  0.75595745900E+03  0.00000000000E+00 0. -1.
          2    1    4    4  502    0  0.20103830438E+03  0.34685374953E+03  0.25200962442E+03  0.47353223142E+03  0.00000000000E+00 0. -1.
          3    1    5    5  503    0 -0.18186743590E+03 -0.18098516569E+03 -0.20037640563E+03  0.32554891856E+03  0.00000000000E+00 0. -1.
         -4    1    5    5    0  503 -0.71199674705E+02 -0.13898077257E+02 -0.53855305472E+02  0.90349013039E+02  0.00000000000E+00 0.  1.
         -1    1    4    4    0  502  0.23503104457E+02 -0.64072428345E+01  0.13928156275E+02  0.28061400840E+02  0.00000000000E+00 0.  1.
<mgrwt>
<rscale>  0 0.15693213E+04</rscale>
<asrwt>0</asrwt>
<pdfrwt beam="1">  1        1 0.20518480E+00 0.15693213E+04</pdfrwt>
<pdfrwt beam="2">  1       -1 0.71021832E-01 0.15693213E+04</pdfrwt>
<totfact> 0.16486111E+01</totfact>
</mgrwt>
</event>
<event>
12    1  0.2404191E-008  0.2076698E+04  0.7818608E-02  0.8571578E-01
          2   -1    0    0  501    0  0.00000000000E+00  0.00000000000E+00  0.20356609329E+04  0.20356609329E+04  0.00000000000E+00 0. -1.
         -2   -1    0    0    0  501 -0.00000000000E+00 -0.00000000000E+00 -0.52964080097E+03  0.52964080097E+03  0.00000000000E+00 0.  1.
         23    2    1    2    0    0  0.61643563882E+03 -0.53755291472E+03  0.34226582662E+03  0.89129088935E+03  0.91090726334E+02 0.  0.
        254    2    1    2    0    0 -0.61643563882E+03  0.53755291472E+03  0.11637543053E+04  0.16740108445E+04  0.88262800290E+03 0.  0.
        -24    2    4    4    0    0 -0.34652525182E+03  0.21280599295E+03  0.11670958719E+04  0.12378827476E+04  0.69819638181E+02 0.  0.
         24    2    4    4    0    0 -0.26991038700E+03  0.32474692177E+03 -0.33415665951E+01  0.43612809690E+03  0.10901546049E+03 0.  0.
         13    1    3    3    0    0  0.24160698880E+03 -0.17247672059E+03  0.88511270802E+02  0.30976830251E+03  0.00000000000E+00 0.  1.
        -13    1    3    3    0    0  0.37482865002E+03 -0.36507619414E+03  0.25375455582E+03  0.58152258684E+03  0.00000000000E+00 0. -1.
          4    1    6    6  502    0  0.59617709558E+01 -0.37928783171E+01 -0.85509956692E+00  0.71175722074E+01  0.00000000000E+00 0. -1.
          3    1    5    5  503    0 -0.96076110270E+02  0.71608449115E+02  0.43949188606E+03  0.45553430920E+03  0.00000000000E+00 0. -1.
         -4    1    5    5    0  503 -0.25044914155E+03  0.14119754384E+03  0.72760398582E+03  0.78234843841E+03  0.00000000000E+00 0.  1.
         -3    1    6    6    0  502 -0.27587215795E+03  0.32853980009E+03 -0.24864670282E+01  0.42901052469E+03  0.00000000000E+00 0.  1.
<mgrwt>
<rscale>  0 0.20766984E+04</rscale>
<asrwt>0</asrwt>
<pdfrwt beam="1">  1        2 0.31317860E+00 0.20766984E+04</pdfrwt>
<pdfrwt beam="2">  1       -2 0.81483201E-01 0.20766984E+04</pdfrwt>
<totfact> 0.78144904E+00</totfact>
</mgrwt>
</event>
<event>
12    1  0.2404191E-008  0.1713652E+04  0.7818608E-02  0.8753616E-01
          1   -1    0    0  501    0  0.00000000000E+00  0.00000000000E+00  0.10963035277E+04  0.10963035277E+04  0.00000000000E+00 0. -1.
         -1   -1    0    0    0  501 -0.00000000000E+00 -0.00000000000E+00 -0.66965983800E+03  0.66965983800E+03  0.00000000000E+00 0.  1.
         23    2    1    2    0    0 -0.19102532625E+03  0.47993297752E+03  0.48655225893E+03  0.71520089606E+03  0.89178937450E+02 0.  0.
        254    2    1    2    0    0  0.19102532625E+03 -0.47993297752E+03 -0.59908569247E+02  0.10507624696E+04  0.91306428728E+03 0.  0.
        -24    2    4    4    0    0 -0.16571954047E+03 -0.62369302403E+03  0.25623892950E+02  0.65127238318E+03  0.83923649195E+02 0.  0.
         24    2    4    4    0    0  0.35674486672E+03  0.14376004651E+03 -0.85532462197E+02  0.39949008644E+03  0.65898984610E+02 0.  0.
         13    1    3    3    0    0 -0.16363339518E+03  0.45643335857E+03  0.42981173354E+03  0.64795480176E+03  0.00000000000E+00 0. -1.
        -13    1    3    3    0    0 -0.27391931070E+02  0.23499618954E+02  0.56740525382E+02  0.67246094305E+02  0.00000000000E+00 0.  1.
          2    1    6    6  502    0  0.27611279736E+03  0.80632077074E+02 -0.57770908996E+02  0.29338930901E+03  0.00000000000E+00 0. -1.
          1    1    5    5  503    0  0.84674034378E+01 -0.28696059460E+02  0.83478110383E+01  0.31061981564E+02  0.00000000000E+00 0. -1.
         -2    1    5    5    0  503 -0.17418694390E+03 -0.59499696457E+03  0.17276081912E+02  0.62021040162E+03  0.00000000000E+00 0.  1.
         -1    1    6    6    0  502  0.80632069359E+02  0.63127969431E+02 -0.27761553202E+02  0.10610077742E+03  0.00000000000E+00 0.  1.
<mgrwt>
<rscale>  0 0.17136516E+04</rscale>
<asrwt>0</asrwt>
<pdfrwt beam="1">  1        1 0.16866208E+00 0.17136516E+04</pdfrwt>
<pdfrwt beam="2">  1       -1 0.10302459E+00 0.17136516E+04</pdfrwt>
<totfact> 0.10794369E+01</totfact>
</mgrwt>
</event>
<event>
11    1  0.2404191E-008  0.1691137E+04  0.7818608E-02  0.8766436E-01
          2   -1    0    0  501    0  0.00000000000E+00  0.00000000000E+00  0.77264678539E+03  0.77264678539E+03  0.00000000000E+00 0. -1.
         -2   -1    0    0    0  501 -0.00000000000E+00 -0.00000000000E+00 -0.92537227859E+03  0.92537227859E+03  0.00000000000E+00 0.  1.
         23    2    1    2    0    0  0.12541970068E+03 -0.23360972468E+03  0.48403701943E+03  0.55962084629E+03  0.92628562765E+02 0.  0.
        254    2    1    2    0    0 -0.12541970068E+03  0.23360972468E+03 -0.63676251264E+03  0.11383982177E+04  0.90563811743E+03 0.  0.
        -24    2    4    4    0    0 -0.18602883649E+03  0.59413585464E+02 -0.82412817354E+03  0.85109512749E+03  0.83898554619E+02 0.  0.
         11    1    3    3    0    0  0.71831105810E+02 -0.20765425826E+03  0.35483064055E+03  0.41735450424E+03  0.00000000000E+00 0. -1.
        -11    1    3    3    0    0  0.53588594869E+02 -0.25955466418E+02  0.12920637888E+03  0.14226634205E+03  0.00000000000E+00 0.  1.
          4    1    4    4  502    0 -0.83382452842E+01  0.11996205840E+03  0.14922948158E+03  0.19165035863E+03  0.00000000000E+00 0. -1.
          3    1    5    5  503    0 -0.17869466348E+03  0.57698999708E+02 -0.64421932167E+03  0.67102868175E+03  0.00000000000E+00 0. -1.
         -4    1    5    5    0  503 -0.73341730128E+01  0.17145857557E+01 -0.17990885188E+03  0.18006644574E+03  0.00000000000E+00 0.  1.
         -3    1    4    4    0  502  0.68947381098E+02  0.54234080815E+02  0.38136179320E+02  0.95652731562E+02  0.00000000000E+00 0.  1.
<mgrwt>
<rscale>  0 0.16911368E+04</rscale>
<asrwt>0</asrwt>
<pdfrwt beam="1">  1        2 0.11886874E+00 0.16911368E+04</pdfrwt>
<pdfrwt beam="2">  1       -2 0.14236497E+00 0.16911368E+04</pdfrwt>
<totfact> 0.11804235E+01</totfact>
</mgrwt>
</event>
<event>
11    1  0.2404191E-008  0.1359728E+04  0.7818608E-02  0.8983496E-01
          2   -1    0    0  501    0  0.00000000000E+00  0.00000000000E+00  0.11519336978E+04  0.11519336978E+04  0.00000000000E+00 0. -1.
         -2   -1    0    0    0  501 -0.00000000000E+00 -0.00000000000E+00 -0.40125168225E+03  0.40125168225E+03  0.00000000000E+00 0.  1.
         23    2    1    2    0    0 -0.14066796732E+03  0.17628959036E+03 -0.12708615034E+03  0.27516577716E+03  0.93272818172E+02 0.  0.
        254    2    1    2    0    0  0.14066796732E+03 -0.17628959036E+03  0.87776816591E+03  0.12780196029E+04  0.90110579603E+03 0.  0.
        -24    2    4    4    0    0 -0.10552232439E+03 -0.29042187332E+03  0.92017364925E+03  0.97380461573E+03  0.78077265556E+02 0.  0.
         13    1    3    3    0    0 -0.17385658205E+02 -0.94682547359E+01 -0.30227132010E+01  0.20026126787E+02  0.00000000000E+00 0. -1.
        -13    1    3    3    0    0 -0.12328230912E+03  0.18575784510E+03 -0.12406343714E+03  0.25513965037E+03  0.00000000000E+00 0.  1.
          2    1    4    4  502    0  0.75469784897E+01  0.42786714250E+02  0.19399688880E+02  0.47581590235E+02  0.00000000000E+00 0. -1.
          3    1    5    5  503    0 -0.17122808182E+02 -0.86432336065E+02  0.17138011019E+03  0.19270412929E+03  0.00000000000E+00 0. -1.
         -4    1    5    5    0  503 -0.88399516204E+02 -0.20398953725E+03  0.74879353906E+03  0.78110048644E+03  0.00000000000E+00 0.  1.
         -1    1    4    4    0  502  0.23864331322E+03  0.71345568707E+02 -0.61805172214E+02  0.25663339695E+03  0.00000000000E+00 0.  1.
<mgrwt>
<rscale>  0 0.13597284E+04</rscale>
<asrwt>0</asrwt>
<pdfrwt beam="1">  1        2 0.17722057E+00 0.13597284E+04</pdfrwt>
<pdfrwt beam="2">  1       -2 0.61731028E-01 0.13597284E+04</pdfrwt>
<totfact> 0.48189192E+01</totfact>
</mgrwt>
</event>
<event>
11    1  0.2404191E-008  0.2175068E+04  0.7818608E-02  0.8528878E-01
         -2   -1    0    0    0  501 -0.00000000000E+00  0.00000000000E+00  0.84717419745E+03  0.84717419745E+03  0.00000000000E+00 0.  1.
          2   -1    0    0  501    0  0.00000000000E+00 -0.00000000000E+00 -0.13960881587E+04  0.13960881587E+04  0.00000000000E+00 0. -1.
         23    2    1    2    0    0  0.38043998230E+03 -0.72997906154E+03  0.14828306351E+03  0.84132067326E+03  0.90711619454E+02 0.  0.
        254    2    1    2    0    0 -0.38043998230E+03  0.72997906154E+03 -0.69719702479E+03  0.14019416829E+04  0.89540648897E+03 0.  0.
        -24    2    4    4    0    0  0.27794519263E+03  0.30828047024E+03 -0.25438645293E+03  0.49355033838E+03  0.81173213813E+02 0.  0.
         11    1    3    3    0    0  0.34521103115E+03 -0.58816838767E+03  0.11906635742E+03  0.69230737808E+03  0.00000000000E+00 0.  1.
        -11    1    3    3    0    0  0.35228951151E+02 -0.14181067388E+03  0.29216706088E+02  0.14901329518E+03  0.00000000000E+00 0. -1.
          2    1    4    4  502    0 -0.30987835755E+02  0.35282856201E+02 -0.65399764250E+02  0.80512452890E+02  0.00000000000E+00 0. -1.
          3    1    5    5  503    0  0.16039396304E+03  0.11804195331E+03 -0.11293165155E+03  0.22894035041E+03  0.00000000000E+00 0. -1.
         -4    1    5    5    0  503  0.11755122958E+03  0.19023851693E+03 -0.14145480139E+03  0.26460998797E+03  0.00000000000E+00 0.  1.
         -3    1    4    4    0  502 -0.62739733917E+03  0.38641573510E+03 -0.37741080761E+03  0.82787889165E+03  0.00000000000E+00 0.  1.
<mgrwt>
<rscale>  0 0.21750677E+04</rscale>
<asrwt>0</asrwt>
<pdfrwt beam="1">  1        2 0.21478279E+00 0.21750677E+04</pdfrwt>
<pdfrwt beam="2">  1       -2 0.13033449E+00 0.21750677E+04</pdfrwt>
<totfact> 0.57494270E+00</totfact>
</mgrwt>
</event>
<event>
11    1  0.2404191E-008  0.1618241E+04  0.7818608E-02  0.8809419E-01
         -1   -1    0    0    0  501 -0.00000000000E+00  0.00000000000E+00  0.28559289691E+03  0.28559289691E+03  0.00000000000E+00 0.  1.
          1   -1    0    0  501    0  0.00000000000E+00 -0.00000000000E+00 -0.22923403147E+04  0.22923403147E+04  0.00000000000E+00 0. -1.
         23    2    1    2    0    0 -0.57091382724E+02  0.52412627775E+03 -0.50695524646E+03  0.73702289096E+03  0.90726726379E+02 0.  0.
        254    2    1    2    0    0  0.57091382724E+02 -0.52412627775E+03 -0.14997921714E+04  0.18409103207E+04  0.92822759627E+03 0.  0.
        -24    2    4    4    0    0  0.74706803494E+02 -0.78627071541E+01 -0.83686681722E+03  0.84444744532E+03  0.84276268804E+02 0.  0.
         11    1    3    3    0    0 -0.50654490262E+02  0.32703051358E+03 -0.25913477535E+03  0.42031615005E+03  0.00000000000E+00 0.  1.
        -11    1    3    3    0    0 -0.64368924620E+01  0.19709576417E+03 -0.24782047111E+03  0.31670674092E+03  0.00000000000E+00 0. -1.
          4    1    4    4  502    0  0.60006943637E+02 -0.57122026054E+02 -0.49433086900E+03  0.50122526592E+03  0.00000000000E+00 0. -1.
          3    1    5    5  503    0  0.25486040081E+02  0.28479937796E+02 -0.53947201619E+03  0.54082409464E+03  0.00000000000E+00 0. -1.
         -4    1    5    5    0  503  0.49220763413E+02 -0.36342644950E+02 -0.29739480103E+03  0.30362335068E+03  0.00000000000E+00 0.  1.
         -3    1    4    4    0  502 -0.77622364407E+02 -0.45914154454E+03 -0.16859448513E+03  0.49523760943E+03  0.00000000000E+00 0.  1.
<mgrwt>
<rscale>  0 0.16182412E+04</rscale>
<asrwt>0</asrwt>
<pdfrwt beam="1">  1        1 0.35266776E+00 0.16182412E+04</pdfrwt>
<pdfrwt beam="2">  1       -1 0.43937367E-01 0.16182412E+04</pdfrwt>
<totfact> 0.92529177E+00</totfact>
</mgrwt>
</event>
<event>
11    1  0.2404191E-008  0.1489157E+04  0.7818608E-02  0.8891695E-01
          2   -1    0    0  501    0  0.00000000000E+00  0.00000000000E+00  0.83235411992E+03  0.83235411992E+03  0.00000000000E+00 0. -1.
         -2   -1    0    0    0  501 -0.00000000000E+00 -0.00000000000E+00 -0.66605957769E+03  0.66605957769E+03  0.00000000000E+00 0.  1.
         23    2    1    2    0    0 -0.90654862149E+02 -0.45341187972E+03 -0.17559695171E+02  0.47141396690E+03  0.90122963754E+02 0.  0.
        254    2    1    2    0    0  0.90654862149E+02  0.45341187972E+03  0.18385423740E+03  0.10269997307E+04  0.89840159703E+03 0.  0.
        -24    2    4    4    0    0  0.40922283191E+03  0.32699041739E+02 -0.62502921206E+02  0.42276889588E+03  0.79337069993E+02 0.  0.
         13    1    3    3    0    0 -0.64227967432E+02 -0.38658631329E+03  0.15763568392E+02  0.39220237061E+03  0.00000000000E+00 0.  1.
        -13    1    3    3    0    0 -0.26426894717E+02 -0.66825566431E+02 -0.33323263564E+02  0.79211596295E+02  0.00000000000E+00 0. -1.
          4    1    4    4  502    0 -0.24078707431E+03  0.34167705225E+03  0.26037306081E+03  0.49245888558E+03  0.00000000000E+00 0. -1.
          1    1    5    5  503    0  0.35219088765E+03  0.39983004057E+02 -0.27639140156E+02  0.35552916059E+03  0.00000000000E+00 0. -1.
         -2    1    5    5    0  503  0.57031944257E+02 -0.72839623180E+01 -0.34863781050E+02  0.67239735290E+02  0.00000000000E+00 0.  1.
         -3    1    4    4    0  502 -0.77780895448E+02  0.79035785727E+02 -0.14015902203E+02  0.11177194924E+03  0.00000000000E+00 0.  1.
<mgrwt>
<rscale>  0 0.14891574E+04</rscale>
<asrwt>0</asrwt>
<pdfrwt beam="1">  1        2 0.12805448E+00 0.14891574E+04</pdfrwt>
<pdfrwt beam="2">  1       -2 0.10247070E+00 0.14891574E+04</pdfrwt>
<totfact> 0.24615613E+01</totfact>
</mgrwt>
</event>
<event>
11    1  0.2404191E-008  0.1403136E+04  0.7818608E-02  0.8951551E-01
          1   -1    0    0  501    0  0.00000000000E+00  0.00000000000E+00  0.11587715798E+04  0.11587715798E+04  0.00000000000E+00 0. -1.
         -1   -1    0    0    0  501 -0.00000000000E+00 -0.00000000000E+00 -0.42475834202E+03  0.42475834202E+03  0.00000000000E+00 0.  1.
         23    2    1    2    0    0  0.48433016497E+02 -0.39160479668E+03  0.33179279982E+03  0.52378516400E+03  0.92543839069E+02 0.  0.
        254    2    1    2    0    0 -0.48433016497E+02  0.39160479668E+03  0.40222043797E+03  0.10597447578E+04  0.89753974683E+03 0.  0.
        -24    2    4    4    0    0 -0.31839431856E+03  0.42304573775E+03  0.42429912722E+03  0.68305837065E+03  0.78716898005E+02 0.  0.
         11    1    3    3    0    0  0.15148529505E+02 -0.28201676910E+03  0.18509412540E+03  0.33767257996E+03  0.00000000000E+00 0.  1.
        -11    1    3    3    0    0  0.33284486992E+02 -0.10958802758E+03  0.14669867442E+03  0.18611258404E+03  0.00000000000E+00 0. -1.
          2    1    4    4  502    0  0.48239402278E+02  0.13271716668E+02  0.10567159521E+03  0.11691734016E+03  0.00000000000E+00 0. -1.
          3    1    5    5  503    0 -0.12347514569E+03  0.10447684633E+03  0.12288136062E+03  0.20312890442E+03  0.00000000000E+00 0. -1.
         -4    1    5    5    0  503 -0.19491917287E+03  0.31856889142E+03  0.30141776660E+03  0.47992946623E+03  0.00000000000E+00 0.  1.
         -1    1    4    4    0  502  0.22172189978E+03 -0.44712657736E+02 -0.12775028447E+03  0.25976904701E+03  0.00000000000E+00 0.  1.
<mgrwt>
<rscale>  0 0.14031363E+04</rscale>
<asrwt>0</asrwt>
<pdfrwt beam="1">  1        1 0.17827255E+00 0.14031363E+04</pdfrwt>
<pdfrwt beam="2">  1       -1 0.65347438E-01 0.14031363E+04</pdfrwt>
<totfact> 0.26520184E+01</totfact>
</mgrwt>
</event>
<event>
12    1  0.2404191E-008  0.2280045E+04  0.7818608E-02  0.8485831E-01
          2   -1    0    0  501    0  0.00000000000E+00  0.00000000000E+00  0.12143393201E+04  0.12143393201E+04  0.00000000000E+00 0. -1.
         -2   -1    0    0    0  501 -0.00000000000E+00 -0.00000000000E+00 -0.10702541050E+04  0.10702541050E+04  0.00000000000E+00 0.  1.
         23    2    1    2    0    0 -0.42667757865E+02 -0.23513728547E+03  0.98267363682E+03  0.10172290012E+04  0.10953211329E+03 0.  0.
        254    2    1    2    0    0  0.42667757865E+02  0.23513728547E+03 -0.83858842170E+03  0.12673644238E+04  0.91971297758E+03 0.  0.
        -24    2    4    4    0    0  0.65530541577E+02 -0.20821279747E+03  0.77258782326E+02  0.24498568008E+03  0.80014018083E+02 0.  0.
         24    2    4    4    0    0 -0.22862783712E+02  0.44335008294E+03 -0.91584720403E+03  0.10223787437E+04  0.96954585071E+02 0.  0.
         11    1    3    3    0    0 -0.32200652677E+02 -0.24080305642E+03  0.96949331165E+03  0.99946999722E+03  0.00000000000E+00 0. -1.
        -11    1    3    3    0    0 -0.10467105188E+02  0.56657709479E+01  0.13180325175E+02  0.17759004003E+02  0.00000000000E+00 0.  1.
          4    1    6    6  502    0 -0.31489323480E+02  0.37415910944E+03 -0.68412528188E+03  0.78039350201E+03  0.00000000000E+00 0. -1.
          3    1    5    5  503    0  0.42258507050E+02 -0.11017420279E+03 -0.20335812215E-01  0.11800057963E+03  0.00000000000E+00 0. -1.
         -4    1    5    5    0  503  0.23272034527E+02 -0.98038594675E+02  0.77279118138E+02  0.12698510045E+03  0.00000000000E+00 0.  1.
         -3    1    6    6    0  502  0.86265397680E+01  0.69190973491E+02 -0.23172192215E+03  0.24198524171E+03  0.00000000000E+00 0.  1.
<mgrwt>
<rscale>  0 0.22800453E+04</rscale>
<asrwt>0</asrwt>
<pdfrwt beam="1">  1        2 0.18682143E+00 0.22800453E+04</pdfrwt>
<pdfrwt beam="2">  1       -2 0.16465448E+00 0.22800453E+04</pdfrwt>
<totfact> 0.39271453E+00</totfact>
</mgrwt>
</event>
<event>
12    1  0.2404191E-008  0.1367151E+04  0.7818608E-02  0.8977946E-01
          2   -1    0    0  501    0  0.00000000000E+00  0.00000000000E+00  0.69138257248E+03  0.69138257248E+03  0.00000000000E+00 0. -1.
         -2   -1    0    0    0  501 -0.00000000000E+00 -0.00000000000E+00 -0.67585655281E+03  0.67585655281E+03  0.00000000000E+00 0.  1.
         23    2    1    2    0    0 -0.10136464983E+03 -0.32500603348E+03  0.17676904769E+03  0.39481115138E+03  0.93406825212E+02 0.  0.
        254    2    1    2    0    0  0.10136464983E+03  0.32500603348E+03 -0.16124302802E+03  0.97242797391E+03  0.89650049432E+03 0.  0.
        -24    2    4    4    0    0  0.45039694388E+03 -0.26227431350E+01 -0.17325317962E+03  0.48926992029E+03  0.80648030451E+02 0.  0.
         24    2    4    4    0    0 -0.34903229405E+03  0.32762877662E+03  0.12010151601E+02  0.48315805362E+03  0.64290772905E+02 0.  0.
         11    1    3    3    0    0 -0.13064622047E+02 -0.90263870928E+00 -0.35342194169E+01  0.13564284454E+02  0.00000000000E+00 0.  1.
        -11    1    3    3    0    0 -0.88300027781E+02 -0.32410339477E+03  0.18030326711E+03  0.38124686692E+03  0.00000000000E+00 0. -1.
          2    1    6    6  502    0 -0.25231803912E+03  0.25274706458E+03 -0.16676717148E+02  0.35752424311E+03  0.00000000000E+00 0. -1.
          3    1    5    5  503    0  0.10987969267E+03  0.20187362296E+02 -0.13769786100E+02  0.11256413046E+03  0.00000000000E+00 0. -1.
         -4    1    5    5    0  503  0.34051725121E+03 -0.22810105431E+02 -0.15948339352E+03  0.37670578982E+03  0.00000000000E+00 0.  1.
         -1    1    6    6    0  502 -0.96714254931E+02  0.74881712041E+02  0.28686868749E+02  0.12563381051E+03  0.00000000000E+00 0.  1.
<mgrwt>
<rscale>  0 0.13671510E+04</rscale>
<asrwt>0</asrwt>
<pdfrwt beam="1">  1        2 0.10636655E+00 0.13671510E+04</pdfrwt>
<pdfrwt beam="2">  1       -2 0.10397793E+00 0.13671510E+04</pdfrwt>
<totfact> 0.30562233E+01</totfact>
</mgrwt>
</event>
<event>
11    1  0.2404191E-008  0.1122294E+04  0.7818608E-02  0.9183731E-01
         -2   -1    0    0    0  501 -0.00000000000E+00  0.00000000000E+00  0.16385531354E+03  0.16385531354E+03  0.00000000000E+00 0.  1.
          2   -1    0    0  501    0  0.00000000000E+00 -0.00000000000E+00 -0.19217301786E+04  0.19217301786E+04  0.00000000000E+00 0. -1.
         23    2    1    2    0    0  0.98782029505E+01 -0.61029741578E+02 -0.62617456516E+03  0.63577308981E+03  0.91052882562E+02 0.  0.
        254    2    1    2    0    0 -0.98782029505E+01  0.61029741578E+02 -0.11317002999E+04  0.14498124023E+04  0.90409525211E+03 0.  0.
        -24    2    4    4    0    0  0.34251992948E+03  0.14704468012E+03 -0.16344073473E+03  0.41472860871E+03  0.79654912389E+02 0.  0.
         11    1    3    3    0    0 -0.10724785143E+02  0.17090552052E+02 -0.26048389019E+03  0.26126416715E+03  0.00000000000E+00 0. -1.
        -11    1    3    3    0    0  0.20602988093E+02 -0.78120293631E+02 -0.36569067497E+03  0.37450892266E+03  0.00000000000E+00 0.  1.
          2    1    4    4  502    0 -0.69896772885E+02 -0.21651726742E+01 -0.15375066678E+03  0.16890682155E+03  0.00000000000E+00 0. -1.
          1    1    5    5  503    0  0.44360358588E+02  0.50462409724E+02 -0.37620413175E+02  0.77003842090E+02  0.00000000000E+00 0. -1.
         -2    1    5    5    0  503  0.29815957089E+03  0.96582270395E+02 -0.12582032156E+03  0.33772476662E+03  0.00000000000E+00 0.  1.
         -1    1    4    4    0  502 -0.28250135955E+03 -0.83849765866E+02 -0.81450889835E+03  0.86617697203E+03  0.00000000000E+00 0.  1.
<mgrwt>
<rscale>  0 0.11222935E+04</rscale>
<asrwt>0</asrwt>
<pdfrwt beam="1">  1        2 0.29565078E+00 0.11222935E+04</pdfrwt>
<pdfrwt beam="2">  1       -2 0.25208511E-01 0.11222935E+04</pdfrwt>
<totfact> 0.10361719E+02</totfact>
</mgrwt>
</event>
<event>
12    1  0.2404191E-008  0.1099856E+04  0.7818608E-02  0.9205333E-01
         -2   -1    0    0    0  501 -0.00000000000E+00  0.00000000000E+00  0.11336124951E+04  0.11336124951E+04  0.00000000000E+00 0.  1.
          2   -1    0    0  501    0  0.00000000000E+00 -0.00000000000E+00 -0.26677598694E+03  0.26677598694E+03  0.00000000000E+00 0. -1.
         23    2    1    2    0    0  0.12310174237E+03 -0.93954985460E+02  0.10294428843E+03  0.20709552036E+03  0.91156183357E+02 0.  0.
        254    2    1    2    0    0 -0.12310174237E+03  0.93954985460E+02  0.76389221973E+03  0.11932929617E+04  0.90356803330E+03 0.  0.
        -24    2    4    4    0    0  0.13188388887E+03 -0.32646255683E+02  0.86358184900E+03  0.87809225237E+03  0.82542447253E+02 0.  0.
         24    2    4    4    0    0 -0.25498563124E+03  0.12660124114E+03 -0.99689629278E+02  0.31520070932E+03  0.91476327931E+02 0.  0.
         11    1    3    3    0    0 -0.85830765163E+01  0.64121222745E+01 -0.22285740317E+01  0.10943082599E+02  0.00000000000E+00 0. -1.
        -11    1    3    3    0    0  0.13168481889E+03 -0.10036710773E+03  0.10517286247E+03  0.19615243776E+03  0.00000000000E+00 0.  1.
          4    1    6    6  502    0 -0.91198226542E+02  0.33700484243E+02 -0.79936150566E+02  0.12586749910E+03  0.00000000000E+00 0. -1.
          1    1    5    5  503    0  0.10131075845E+03  0.46696532231E+01  0.70730559262E+03  0.71453962577E+03  0.00000000000E+00 0. -1.
         -2    1    5    5    0  503  0.30573130420E+02 -0.37315908906E+02  0.15627625638E+03  0.16355262661E+03  0.00000000000E+00 0.  1.
         -3    1    6    6    0  502 -0.16378740469E+03  0.92900756900E+02 -0.19753478712E+02  0.18933321022E+03  0.00000000000E+00 0.  1.
<mgrwt>
<rscale>  0 0.10998556E+04</rscale>
<asrwt>0</asrwt>
<pdfrwt beam="1">  1        2 0.41042460E-01 0.10998556E+04</pdfrwt>
<pdfrwt beam="2">  1       -2 0.17440192E+00 0.10998556E+04</pdfrwt>
<totfact> 0.24629748E+01</totfact>
</mgrwt>
</event>
<event>
11    1  0.2404191E-008  0.2860379E+04  0.7818608E-02  0.8284765E-01
         -2   -1    0    0    0  501 -0.00000000000E+00  0.00000000000E+00  0.13658029377E+04  0.13658029377E+04  0.00000000000E+00 0.  1.
          2   -1    0    0  501    0  0.00000000000E+00 -0.00000000000E+00 -0.14976108564E+04  0.14976108564E+04  0.00000000000E+00 0. -1.
         23    2    1    2    0    0 -0.58796283925E+03  0.14587178292E+03 -0.11962976105E+04  0.13439563848E+04  0.90066163637E+02 0.  0.
        254    2    1    2    0    0  0.58796283925E+03 -0.14587178292E+03  0.10644896918E+04  0.15194574093E+04  0.89924058925E+03 0.  0.
        -24    2    4    4    0    0 -0.49407521530E+02  0.12868731347E+03 -0.63505393782E+02  0.17150163508E+03  0.79864560125E+02 0.  0.
         11    1    3    3    0    0 -0.53297137731E+03  0.15832630657E+03 -0.10919792582E+04  0.12253752114E+04  0.00000000000E+00 0. -1.
        -11    1    3    3    0    0 -0.54991461940E+02 -0.12454523650E+02 -0.10431835229E+03  0.11858117333E+03  0.00000000000E+00 0.  1.
          2    1    4    4  502    0  0.65235317096E+03 -0.27490824998E+03  0.10361058252E+04  0.12548523764E+04  0.00000000000E+00 0. -1.
          1    1    5    5  503    0 -0.67812516263E+02  0.12096183800E+03 -0.60578119474E+02  0.15132749973E+03  0.00000000000E+00 0. -1.
         -2    1    5    5    0  503  0.18404994734E+02  0.77254754671E+01 -0.29272743085E+01  0.20174135352E+02  0.00000000000E+00 0.  1.
         -1    1    4    4    0  502 -0.14982810178E+02  0.34915359271E+00  0.91889260418E+02  0.93103397839E+02  0.00000000000E+00 0.  1.
<mgrwt>
<rscale>  0 0.28603785E+04</rscale>
<asrwt>0</asrwt>
<pdfrwt beam="1">  1        2 0.23040167E+00 0.28603785E+04</pdfrwt>
<pdfrwt beam="2">  1       -2 0.21012353E+00 0.28603785E+04</pdfrwt>
<totfact> 0.12603158E+00</totfact>
</mgrwt>
</event>
<event>
11    1  0.2404191E-008  0.2739708E+04  0.7818608E-02  0.8322235E-01
          2   -1    0    0  501    0  0.00000000000E+00  0.00000000000E+00  0.38595456769E+04  0.38595456769E+04  0.00000000000E+00 0. -1.
         -2   -1    0    0    0  501 -0.00000000000E+00 -0.00000000000E+00 -0.48619695321E+03  0.48619695321E+03  0.00000000000E+00 0.  1.
         23    2    1    2    0    0 -0.53800382818E+03 -0.77171450537E+03  0.26646283818E+04  0.28272712574E+04  0.90702549656E+02 0.  0.
        254    2    1    2    0    0  0.53800382818E+03  0.77171450537E+03  0.70872034189E+03  0.15184713728E+04  0.95837330409E+03 0.  0.
        -24    2    4    4    0    0  0.77893146520E+03  0.38959543815E+03  0.42231384200E+03  0.97147184733E+03  0.83004434346E+02 0.  0.
         11    1    3    3    0    0 -0.13349663041E+03 -0.14093023288E+03  0.48362774045E+03  0.52113191439E+03  0.00000000000E+00 0.  1.
        -11    1    3    3    0    0 -0.40450719777E+03 -0.63078427249E+03  0.21810006414E+04  0.23061393430E+04  0.00000000000E+00 0. -1.
          2    1    4    4  502    0 -0.20985334467E+03  0.33646184921E+03  0.19916815635E+03  0.44374875408E+03  0.00000000000E+00 0. -1.
          1    1    5    5  503    0  0.37943964127E+03  0.15131653306E+03  0.22310309533E+03  0.46545260305E+03  0.00000000000E+00 0. -1.
         -2    1    5    5    0  503  0.39949182393E+03  0.23827890508E+03  0.19921074667E+03  0.50601924428E+03  0.00000000000E+00 0.  1.
         -1    1    4    4    0  502 -0.31074292345E+02  0.45657218015E+02  0.87238343546E+02  0.10325077136E+03  0.00000000000E+00 0.  1.
<mgrwt>
<rscale>  0 0.27397075E+04</rscale>
<asrwt>0</asrwt>
<pdfrwt beam="1">  1        2 0.59377624E+00 0.27397075E+04</pdfrwt>
<pdfrwt beam="2">  1       -2 0.74799534E-01 0.27397075E+04</pdfrwt>
<totfact> 0.62139997E-01</totfact>
</mgrwt>
</event>
<event>
11    1  0.2404191E-008  0.2745663E+04  0.7818608E-02  0.8320339E-01
         -2   -1    0    0    0  501 -0.00000000000E+00  0.00000000000E+00  0.75710241847E+03  0.75710241847E+03  0.00000000000E+00 0.  1.
          2   -1    0    0  501    0  0.00000000000E+00 -0.00000000000E+00 -0.24893147332E+04  0.24893147332E+04  0.00000000000E+00 0. -1.
         23    2    1    2    0    0 -0.38316463669E+03  0.10464500266E+02 -0.21342143823E+04  0.21703266709E+04  0.92315678616E+02 0.  0.
        254    2    1    2    0    0  0.38316463669E+03 -0.10464500266E+02  0.40200206758E+03  0.10760904807E+04  0.92165091860E+03 0.  0.
        -24    2    4    4    0    0 -0.15261159266E+03  0.90524453550E+01 -0.18749667721E+03  0.25473538790E+03  0.79767593065E+02 0.  0.
         13    1    3    3    0    0 -0.23649036059E+01 -0.24199533206E+00  0.24783837498E-02  0.23772540774E+01  0.00000000000E+00 0.  1.
        -13    1    3    3    0    0 -0.38079973309E+03  0.10706495598E+02 -0.21342168606E+04  0.21679494168E+04  0.00000000000E+00 0. -1.
          2    1    4    4  502    0  0.24894617399E+03 -0.86934917405E+02  0.19026593480E+03  0.32516611655E+03  0.00000000000E+00 0. -1.
          1    1    5    5  503    0 -0.14638570288E+03 -0.15292770926E+02 -0.15659331812E+03  0.21490488624E+03  0.00000000000E+00 0. -1.
         -2    1    5    5    0  503 -0.62258897752E+01  0.24345216281E+02 -0.30903359093E+02  0.39830501660E+02  0.00000000000E+00 0.  1.
         -1    1    4    4    0  502  0.28683005536E+03  0.67417971785E+02  0.39923280999E+03  0.49618897625E+03  0.00000000000E+00 0.  1.
<mgrwt>
<rscale>  0 0.27456629E+04</rscale>
<asrwt>0</asrwt>
<pdfrwt beam="1">  1        2 0.38297150E+00 0.27456629E+04</pdfrwt>
<pdfrwt beam="2">  1       -2 0.11647729E+00 0.27456629E+04</pdfrwt>
<totfact> 0.17634803E+00</totfact>
</mgrwt>
</event>
<event>
12    1  0.2404191E-008  0.2489835E+04  0.7818608E-02  0.8406616E-01
          2   -1    0    0  501    0  0.00000000000E+00  0.00000000000E+00  0.40541517049E+04  0.40541517049E+04  0.00000000000E+00 0. -1.
         -2   -1    0    0    0  501 -0.00000000000E+00 -0.00000000000E+00 -0.38227955120E+03  0.38227955120E+03  0.00000000000E+00 0.  1.
         23    2    1    2    0    0  0.10172887669E+04  0.11264880886E+03  0.97845338055E+03  0.14192661760E+04  0.96846637222E+02 0.  0.
        254    2    1    2    0    0 -0.10172887669E+04 -0.11264880886E+03  0.26934187731E+04  0.30171650800E+04  0.89510571640E+03 0.  0.
        -24    2    4    4    0    0 -0.10446921503E+04  0.15469555213E+03  0.19116115265E+04  0.21855226312E+04  0.83295498745E+02 0.  0.
         24    2    4    4    0    0  0.27403383462E+02 -0.26734436100E+03  0.78180724657E+03  0.83164244888E+03  0.90457941607E+02 0.  0.
         11    1    3    3    0    0  0.25913007009E+03  0.52278233326E+02  0.30258857863E+03  0.40179752964E+03  0.00000000000E+00 0.  1.
        -11    1    3    3    0    0  0.75815869679E+03  0.60370575538E+02  0.67586480192E+03  0.10174686464E+04  0.00000000000E+00 0. -1.
          4    1    6    6  502    0  0.32023268033E+02 -0.23618855269E+02  0.10990990567E+03  0.11689109198E+03  0.00000000000E+00 0. -1.
          3    1    5    5  503    0 -0.98633397218E+03  0.12668646172E+03  0.17844223069E+04  0.20428086385E+04  0.00000000000E+00 0. -1.
         -4    1    5    5    0  503 -0.58358178157E+02  0.28009090408E+02  0.12718921967E+03  0.14271399267E+03  0.00000000000E+00 0.  1.
         -3    1    6    6    0  502 -0.46198845713E+01 -0.24372550573E+03  0.67189734090E+03  0.71475135690E+03  0.00000000000E+00 0.  1.
<mgrwt>
<rscale>  0 0.24898348E+04</rscale>
<asrwt>0</asrwt>
<pdfrwt beam="1">  1        2 0.62371562E+00 0.24898348E+04</pdfrwt>
<pdfrwt beam="2">  1       -2 0.58812242E-01 0.24898348E+04</pdfrwt>
<totfact> 0.74795953E-01</totfact>
</mgrwt>
</event>
<event>
11    1  0.2404191E-008  0.1626242E+04  0.7818608E-02  0.8804587E-01
         -1   -1    0    0    0  501 -0.00000000000E+00  0.00000000000E+00  0.69916158975E+03  0.69916158975E+03  0.00000000000E+00 0.  1.
          1   -1    0    0  501    0  0.00000000000E+00 -0.00000000000E+00 -0.94565558188E+03  0.94565558188E+03  0.00000000000E+00 0. -1.
         23    2    1    2    0    0 -0.15537069501E+03 -0.76029561335E+02  0.43877285464E+03  0.48034474120E+03  0.91043425703E+02 0.  0.
        254    2    1    2    0    0  0.15537069501E+03  0.76029561335E+02 -0.68526684677E+03  0.11644724304E+04  0.92546466322E+03 0.  0.
        -24    2    4    4    0    0  0.19056092736E+03 -0.32842603980E+03 -0.61457098482E+03  0.72670936983E+03  0.78942271042E+02 0.  0.
         11    1    3    3    0    0 -0.51575779683E+02 -0.43937272865E+02  0.76778262484E+02  0.10239846965E+03  0.00000000000E+00 0. -1.
        -11    1    3    3    0    0 -0.10379491533E+03 -0.32092288470E+02  0.36199459215E+03  0.37794627155E+03  0.00000000000E+00 0.  1.
          4    1    4    4  502    0 -0.47481677526E+02  0.72835115688E+02 -0.60194111547E+02  0.10574873447E+03  0.00000000000E+00 0. -1.
          1    1    5    5  503    0  0.35602286046E+02 -0.31835720005E+02 -0.12396611824E+03  0.13284816262E+03  0.00000000000E+00 0. -1.
         -2    1    5    5    0  503  0.15495864131E+03 -0.29659031979E+03 -0.49060486658E+03  0.59386120720E+03  0.00000000000E+00 0.  1.
         -3    1    4    4    0  502  0.12291445180E+02  0.33162048544E+03 -0.10501750399E+02  0.33201432612E+03  0.00000000000E+00 0.  1.
<mgrwt>
<rscale>  0 0.16262424E+04</rscale>
<asrwt>0</asrwt>
<pdfrwt beam="1">  1        1 0.14548547E+00 0.16262424E+04</pdfrwt>
<pdfrwt beam="2">  1       -1 0.10756332E+00 0.16262424E+04</pdfrwt>
<totfact> 0.12874879E+01</totfact>
</mgrwt>
</event>
<event>
11    1  0.2404191E-008  0.2448617E+04  0.7818608E-02  0.8421523E-01
         -1   -1    0    0    0  501 -0.00000000000E+00  0.00000000000E+00  0.74563611088E+03  0.74563611088E+03  0.00000000000E+00 0.  1.
          1   -1    0    0  501    0  0.00000000000E+00 -0.00000000000E+00 -0.20102723553E+04  0.20102723553E+04  0.00000000000E+00 0. -1.
         23    2    1    2    0    0  0.73263698559E+03 -0.13695562648E+03  0.29457209553E+03  0.80693766945E+03  0.94137594069E+02 0.  0.
        254    2    1    2    0    0 -0.73263698559E+03  0.13695562648E+03 -0.15592083400E+04  0.19489707968E+04  0.90102315335E+03 0.  0.
        -24    2    4    4    0    0 -0.45066064001E+03  0.49079491272E+03 -0.10027226645E+04  0.12065687430E+04  0.79879478070E+02 0.  0.
         11    1    3    3    0    0  0.82037137184E+02  0.51264436848E+01  0.56434739161E+02  0.99705827745E+02  0.00000000000E+00 0. -1.
        -11    1    3    3    0    0  0.65059984841E+03 -0.14208207017E+03  0.23813735637E+03  0.70723184170E+03  0.00000000000E+00 0.  1.
          4    1    4    4  502    0 -0.29017507183E+03 -0.37112173265E+03 -0.54364756552E+03  0.71936471157E+03  0.00000000000E+00 0. -1.
          1    1    5    5  503    0 -0.39189657798E+03  0.38169717445E+03 -0.80908140118E+03  0.97667209162E+03  0.00000000000E+00 0. -1.
         -2    1    5    5    0  503 -0.58764062027E+02  0.10909773827E+03 -0.19364126328E+03  0.22989665141E+03  0.00000000000E+00 0.  1.
         -3    1    4    4    0  502  0.81987262453E+01  0.17282446403E+02 -0.12838110005E+02  0.23037342169E+02  0.00000000000E+00 0.  1.
<mgrwt>
<rscale>  0 0.24486173E+04</rscale>
<asrwt>0</asrwt>
<pdfrwt beam="1">  1        1 0.30927267E+00 0.24486173E+04</pdfrwt>
<pdfrwt beam="2">  1       -1 0.11471325E+00 0.24486173E+04</pdfrwt>
<totfact> 0.18066966E+00</totfact>
</mgrwt>
</event>
<event>
12    1  0.2404191E-008  0.1372210E+04  0.7818608E-02  0.8974184E-01
          1   -1    0    0  501    0  0.00000000000E+00  0.00000000000E+00  0.13611630693E+04  0.13611630693E+04  0.00000000000E+00 0. -1.
         -1   -1    0    0    0  501 -0.00000000000E+00 -0.00000000000E+00 -0.34583642985E+03  0.34583642985E+03  0.00000000000E+00 0.  1.
         23    2    1    2    0    0  0.78761765575E+01  0.34834674423E+03  0.46726468307E+03  0.58977297298E+03  0.89935461492E+02 0.  0.
        254    2    1    2    0    0 -0.78761765575E+01 -0.34834674423E+03  0.54806195639E+03  0.11172265262E+04  0.90907409730E+03 0.  0.
        -24    2    4    4    0    0 -0.36559993857E+03  0.10120403979E+03  0.29234371177E+03  0.48554696066E+03  0.79908900906E+02 0.  0.
         24    2    4    4    0    0  0.35772376201E+03 -0.44955078402E+03  0.25571824462E+03  0.63167956552E+03  0.59708086029E+02 0.  0.
         11    1    3    3    0    0  0.42529114692E+02  0.15352439082E+03  0.17313248042E+03  0.23527286275E+03  0.00000000000E+00 0.  1.
        -11    1    3    3    0    0 -0.34652938134E+02  0.19482235342E+03  0.29413220265E+03  0.35450011022E+03  0.00000000000E+00 0. -1.
          4    1    6    6  502    0  0.77113152904E+01 -0.14891820870E+01  0.88470612635E+01  0.11830153837E+02  0.00000000000E+00 0. -1.
          1    1    5    5  503    0  0.38542024144E+01 -0.95471111929E+00  0.55114806023E+01  0.67928468260E+01  0.00000000000E+00 0. -1.
         -4    1    5    5    0  503 -0.36945414098E+03  0.10215875091E+03  0.28683223116E+03  0.47875411383E+03  0.00000000000E+00 0.  1.
         -3    1    6    6    0  502  0.35001244672E+03 -0.44806160193E+03  0.24687118336E+03  0.61984941168E+03  0.00000000000E+00 0.  1.
<mgrwt>
<rscale>  0 0.13722096E+04</rscale>
<asrwt>0</asrwt>
<pdfrwt beam="1">  1        1 0.20940970E+00 0.13722096E+04</pdfrwt>
<pdfrwt beam="2">  1       -1 0.53205605E-01 0.13722096E+04</pdfrwt>
<totfact> 0.28485222E+01</totfact>
</mgrwt>
</event>
<event>
11    1  0.2404191E-008  0.1738658E+04  0.7818608E-02  0.8739618E-01
         -2   -1    0    0    0  501 -0.00000000000E+00  0.00000000000E+00  0.26218149773E+03  0.26218149773E+03  0.00000000000E+00 0. -1.
          2   -1    0    0  501    0  0.00000000000E+00 -0.00000000000E+00 -0.28824795860E+04  0.28824795860E+04  0.00000000000E+00 0.  1.
         23    2    1    2    0    0 -0.26417913203E+02  0.42253464516E+03 -0.18213855461E+04  0.18719094911E+04  0.85827750753E+02 0.  0.
        254    2    1    2    0    0  0.26417913203E+02 -0.42253464516E+03 -0.79891254212E+03  0.12727515926E+04  0.89576890657E+03 0.  0.
        -24    2    4    4    0    0 -0.27345272037E+03  0.10469890821E+03 -0.27491941317E+03  0.40982728486E+03  0.81482930842E+02 0.  0.
         13    1    3    3    0    0  0.25249320932E+02  0.23296216000E+03 -0.10584853576E+04  0.10841126087E+04  0.00000000000E+00 0.  1.
        -13    1    3    3    0    0 -0.51667234135E+02  0.18957248516E+03 -0.76290018853E+03  0.78779688237E+03  0.00000000000E+00 0. -1.
          4    1    4    4  502    0 -0.28885592502E+02 -0.35618894926E+02  0.28169710687E+02  0.53820216742E+02  0.00000000000E+00 0. -1.
          1    1    5    5  503    0 -0.95811014268E+02  0.32207933717E+02 -0.15000832187E+03  0.18088559390E+03  0.00000000000E+00 0. -1.
         -2    1    5    5    0  503 -0.17764170610E+03  0.72490974492E+02 -0.12491109130E+03  0.22894169096E+03  0.00000000000E+00 0.  1.
         -3    1    4    4    0  502  0.32875622608E+03 -0.49161465844E+03 -0.55216283964E+03  0.80910409099E+03  0.00000000000E+00 0.  1.
<mgrwt>
<rscale>  0 0.17386579E+04</rscale>
<asrwt>0</asrwt>
<pdfrwt beam="1">  1        2 0.44345842E+00 0.17386579E+04</pdfrwt>
<pdfrwt beam="2">  1       -2 0.40335613E-01 0.17386579E+04</pdfrwt>
<totfact> 0.11408429E+01</totfact>
</mgrwt>
</event>
<event>
11    1  0.2404191E-008  0.1769981E+04  0.7818608E-02  0.8722428E-01
         -3   -1    0    0    0  501 -0.00000000000E+00  0.00000000000E+00  0.14767855231E+04  0.14767855231E+04  0.00000000000E+00 0.  1.
          3   -1    0    0  501    0  0.00000000000E+00 -0.00000000000E+00 -0.53034638526E+03  0.53034638526E+03  0.00000000000E+00 0. -1.
         23    2    1    2    0    0  0.70796518658E+02 -0.31801793301E+03  0.98126541773E+03  0.10380180043E+04  0.91934784050E+02 0.  0.
        254    2    1    2    0    0 -0.70796518658E+02  0.31801793301E+03 -0.34826279907E+02  0.96911390402E+03  0.91204239837E+03 0.  0.
        -24    2    4    4    0    0  0.30658757928E+03 -0.13289360697E+03  0.41303301688E+01  0.34330502270E+03  0.78642383225E+02 0.  0.
         11    1    3    3    0    0  0.64603453218E+01 -0.21870823730E+03  0.68058222952E+03  0.71488964202E+03  0.00000000000E+00 0. -1.
        -11    1    3    3    0    0  0.64336173336E+02 -0.99309695707E+02  0.30068318821E+03  0.32312836232E+03  0.00000000000E+00 0.  1.
          4    1    4    4  502    0 -0.31102299134E+03  0.44267954874E+03  0.12925691618E+02  0.54117239168E+03  0.00000000000E+00 0. -1.
          3    1    5    5  503    0  0.28374777497E+03 -0.11284877154E+03  0.25083315310E+02  0.30639324037E+03  0.00000000000E+00 0. -1.
         -4    1    5    5    0  503  0.22839804318E+02 -0.20044835423E+02 -0.20952985142E+02  0.36911782330E+02  0.00000000000E+00 0.  1.
         -3    1    4    4    0  502 -0.66361106607E+02  0.82319912341E+01 -0.51882301694E+02  0.84636489641E+02  0.00000000000E+00 0.  1.
<mgrwt>
<rscale>  0 0.17699806E+04</rscale>
<asrwt>0</asrwt>
<pdfrwt beam="1">  1        3 0.81591753E-01 0.17699806E+04</pdfrwt>
<pdfrwt beam="2">  1       -3 0.22719777E+00 0.17699806E+04</pdfrwt>
<totfact> 0.34353386E-01</totfact>
</mgrwt>
</event>
<event>
12    1  0.2404191E-008  0.1720055E+04  0.7818608E-02  0.8750008E-01
          1   -1    0    0  501    0  0.00000000000E+00  0.00000000000E+00  0.14007213292E+04  0.14007213292E+04  0.00000000000E+00 0. -1.
         -1   -1    0    0    0  501 -0.00000000000E+00 -0.00000000000E+00 -0.52804760691E+03  0.52804760691E+03  0.00000000000E+00 0.  1.
         23    2    1    2    0    0 -0.15603099982E+03  0.26255774226E+03 -0.29142072731E+03  0.43441630251E+03  0.10251459730E+03 0.  0.
        254    2    1    2    0    0  0.15603099982E+03 -0.26255774226E+03  0.11640944496E+04  0.14943526336E+04  0.88582823675E+03 0.  0.
        -24    2    4    4    0    0 -0.10458534513E+03  0.20450900638E+03  0.81909607387E+03  0.85447839607E+03  0.80330087800E+02 0.  0.
         24    2    4    4    0    0  0.26061634495E+03 -0.46706674864E+03  0.34499837573E+03  0.63987423754E+03  0.65900938267E+02 0.  0.
         13    1    3    3    0    0 -0.13273621812E+03  0.25443441785E+03 -0.29243582509E+03  0.40972489353E+03  0.00000000000E+00 0.  1.
        -13    1    3    3    0    0 -0.23294781701E+02  0.81233244148E+01  0.10150977790E+01  0.24691408983E+02  0.00000000000E+00 0. -1.
          2    1    6    6  502    0  0.22971452270E+03 -0.36301991147E+03  0.26141082465E+03  0.50287954552E+03  0.00000000000E+00 0. -1.
          3    1    5    5  503    0 -0.76831144355E+02  0.18415169260E+03  0.59040916069E+03  0.62321573123E+03  0.00000000000E+00 0. -1.
         -4    1    5    5    0  503 -0.27754200777E+02  0.20357313779E+02  0.22868691319E+03  0.23126266484E+03  0.00000000000E+00 0.  1.
         -1    1    6    6    0  502  0.30901822252E+02 -0.10404683717E+03  0.83587551083E+02  0.13699469201E+03  0.00000000000E+00 0.  1.
<mgrwt>
<rscale>  0 0.17200553E+04</rscale>
<asrwt>0</asrwt>
<pdfrwt beam="1">  1        1 0.21549559E+00 0.17200553E+04</pdfrwt>
<pdfrwt beam="2">  1       -1 0.81238094E-01 0.17200553E+04</pdfrwt>
<totfact> 0.11004761E+01</totfact>
</mgrwt>
</event>
<event>
12    1  0.2404191E-008  0.1851563E+04  0.7818608E-02  0.8679350E-01
         -2   -1    0    0    0  501 -0.00000000000E+00  0.00000000000E+00  0.51969119275E+03  0.51969119275E+03  0.00000000000E+00 0.  1.
          2   -1    0    0  501    0  0.00000000000E+00 -0.00000000000E+00 -0.16491932372E+04  0.16491932372E+04  0.00000000000E+00 0. -1.
         23    2    1    2    0    0 -0.39195683460E+03 -0.24439275789E+03 -0.10493026895E+04  0.11499877713E+04  0.89876358161E+02 0.  0.
        254    2    1    2    0    0  0.39195683460E+03  0.24439275789E+03 -0.80199355006E+02  0.10188966587E+04  0.90463278968E+03 0.  0.
        -24    2    4    4    0    0  0.55029402311E+03  0.13919368320E+03 -0.35283992123E+03  0.67321963086E+03  0.80810073927E+02 0.  0.
         24    2    4    4    0    0 -0.15833718851E+03  0.10519907469E+03  0.27264056623E+03  0.34567702779E+03  0.94985359974E+02 0.  0.
         11    1    3    3    0    0 -0.15147520679E+03 -0.94178154312E+02 -0.30250505587E+03  0.35117456037E+03  0.00000000000E+00 0.  1.
        -11    1    3    3    0    0 -0.24048162781E+03 -0.15021460358E+03 -0.74679763361E+03  0.79881321097E+03  0.00000000000E+00 0. -1.
          2    1    6    6  502    0  0.46633723820E+01 -0.48756897171E+01  0.42089502926E+02  0.42626818422E+02  0.00000000000E+00 0. -1.
          3    1    5    5  503    0  0.22701403953E+03  0.83634337332E+02 -0.18627203595E+03  0.30533153768E+03  0.00000000000E+00 0. -1.
         -4    1    5    5    0  503  0.32327998358E+03  0.55559345873E+02 -0.16656788528E+03  0.36788809318E+03  0.00000000000E+00 0.  1.
         -1    1    6    6    0  502 -0.16300056089E+03  0.11007476441E+03  0.23055106330E+03  0.30305020937E+03  0.00000000000E+00 0.  1.
<mgrwt>
<rscale>  0 0.18515628E+04</rscale>
<asrwt>0</asrwt>
<pdfrwt beam="1">  1        2 0.25372204E+00 0.18515628E+04</pdfrwt>
<pdfrwt beam="2">  1       -2 0.79952490E-01 0.18515628E+04</pdfrwt>
<totfact> 0.13621442E+01</totfact>
</mgrwt>
</event>
<event>
11    1  0.2404191E-008  0.2480038E+04  0.7818608E-02  0.8410132E-01
         -1   -1    0    0    0  501 -0.00000000000E+00  0.00000000000E+00  0.72899435087E+03  0.72899435087E+03  0.00000000000E+00 0.  1.
          1   -1    0    0  501    0  0.00000000000E+00 -0.00000000000E+00 -0.21092712141E+04  0.21092712141E+04  0.00000000000E+00 0. -1.
         23    2    1    2    0    0  0.23752984912E+03 -0.22650858049E+03 -0.17775095875E+04  0.18098683476E+04  0.91414090218E+02 0.  0.
        254    2    1    2    0    0 -0.23752984912E+03  0.22650858049E+03  0.39723272426E+03  0.10283972173E+04  0.88998900732E+03 0.  0.
        -24    2    4    4    0    0 -0.15891889123E+03  0.51667718377E+03  0.43601916758E+03  0.69909222441E+03  0.80041848503E+02 0.  0.
         11    1    3    3    0    0  0.26684871541E+02 -0.73924587058E+02 -0.33772154477E+03  0.34674597149E+03  0.00000000000E+00 0.  1.
        -11    1    3    3    0    0  0.21084497758E+03 -0.15258399343E+03 -0.14397880427E+04  0.14631223761E+04  0.00000000000E+00 0. -1.
          2    1    4    4  502    0 -0.95123847359E+02 -0.26690155305E+03 -0.64837435544E+02  0.29066970672E+03  0.00000000000E+00 0. -1.
          1    1    5    5  503    0 -0.10867911968E+03  0.28414851544E+03  0.28791178505E+03  0.41886122505E+03  0.00000000000E+00 0. -1.
         -2    1    5    5    0  503 -0.50239771550E+02  0.23252866833E+03  0.14810738253E+03  0.28023099935E+03  0.00000000000E+00 0.  1.
         -1    1    4    4    0  502  0.16512889472E+02 -0.23267050228E+02  0.26050992220E+02  0.38635286212E+02  0.00000000000E+00 0.  1.
<mgrwt>
<rscale>  0 0.24800377E+04</rscale>
<asrwt>0</asrwt>
<pdfrwt beam="1">  1        1 0.32450326E+00 0.24800377E+04</pdfrwt>
<pdfrwt beam="2">  1       -1 0.11215298E+00 0.24800377E+04</pdfrwt>
<totfact> 0.16287740E+00</totfact>
</mgrwt>
</event>
<event>
12    1  0.2439099E-008  0.2496520E+04  0.7818608E-02  0.8404226E-01
         -1   -1    0    0    0  501 -0.00000000000E+00  0.00000000000E+00  0.90340892459E+03  0.90340892459E+03  0.00000000000E+00 0.  1.
          1   -1    0    0  501    0  0.00000000000E+00 -0.00000000000E+00 -0.17247478829E+04  0.17247478829E+04  0.00000000000E+00 0. -1.
         23    2    1    2    0    0 -0.94874398104E+03 -0.47341993928E+03 -0.50546908064E+03  0.11780712186E+04  0.90062334878E+02 0.  0.
        254    2    1    2    0    0  0.94874398104E+03  0.47341993928E+03 -0.31586987762E+03  0.14500855888E+04  0.93740751804E+03 0.  0.
        -24    2    4    4    0    0  0.10581287394E+04  0.33297054800E+03 -0.46041434773E+03  0.12036179730E+04  0.78797450997E+02 0.  0.
         24    2    4    4    0    0 -0.10938475837E+03  0.14044939128E+03  0.14454447011E+03  0.24646761585E+03  0.90344479354E+02 0.  0.
         13    1    3    3    0    0 -0.73291626725E+03 -0.35265475333E+03 -0.34655694359E+03  0.88410030257E+03  0.00000000000E+00 0. -1.
        -13    1    3    3    0    0 -0.21582771379E+03 -0.12076518595E+03 -0.15891213705E+03  0.29397091604E+03  0.00000000000E+00 0.  1.
          4    1    6    6  502    0 -0.66164768222E+02  0.83919546543E+02  0.13866473025E+03  0.17506619965E+03  0.00000000000E+00 0. -1.
          1    1    5    5  503    0  0.92634975324E+03  0.28773383875E+03 -0.37365832181E+03  0.10394879358E+04  0.00000000000E+00 0. -1.
         -2    1    5    5    0  503  0.13177898617E+03  0.45236709252E+02 -0.86756025916E+02  0.16413003714E+03  0.00000000000E+00 0.  1.
         -3    1    6    6    0  502 -0.43219990147E+02  0.56529844739E+02  0.58797398607E+01  0.71401416200E+02  0.00000000000E+00 0.  1.
<mgrwt>
<rscale>  0 0.24965197E+04</rscale>
<asrwt>0</asrwt>
<pdfrwt beam="1">  1        1 0.26534582E+00 0.24965197E+04</pdfrwt>
<pdfrwt beam="2">  1       -1 0.13898599E+00 0.24965197E+04</pdfrwt>
<totfact> 0.17403164E+00</totfact>
</mgrwt>
</event>
<event>
12    1  0.2404191E-008  0.1591968E+04  0.7818608E-02  0.8825498E-01
         -2   -1    0    0    0  501 -0.00000000000E+00  0.00000000000E+00  0.50699797805E+03  0.50699797805E+03  0.00000000000E+00 0. -1.
          2   -1    0    0  501    0  0.00000000000E+00 -0.00000000000E+00 -0.12496902746E+04  0.12496902746E+04  0.00000000000E+00 0.  1.
         23    2    1    2    0    0 -0.33145361301E+03  0.63690806003E+02  0.20419087026E+03  0.40422962426E+03  0.88259057804E+02 0.  0.
        254    2    1    2    0    0  0.33145361301E+03 -0.63690806003E+02 -0.94688316677E+03  0.13524586284E+04  0.90478649060E+03 0.  0.
        -24    2    4    4    0    0  0.37318830090E+03 -0.42641004656E+03 -0.44523698941E+03  0.72523245405E+03  0.81431565904E+02 0.  0.
         24    2    4    4    0    0 -0.41734687885E+02  0.36271924056E+03 -0.50164617736E+03  0.62722617432E+03  0.91960615729E+02 0.  0.
         11    1    3    3    0    0 -0.16047712530E+03  0.21071808230E+02  0.14789128274E+03  0.21924589017E+03  0.00000000000E+00 0. -1.
        -11    1    3    3    0    0 -0.17097648771E+03  0.42618997773E+02  0.56299587512E+02  0.18498373409E+03  0.00000000000E+00 0.  1.
          2    1    6    6  502    0  0.16048573105E+02  0.94838970529E+02 -0.18462135061E+03  0.20817547918E+03  0.00000000000E+00 0. -1.
          3    1    5    5  503    0  0.29078654310E+02 -0.32062204640E+02 -0.65899755099E+02  0.78843711385E+02  0.00000000000E+00 0. -1.
         -4    1    5    5    0  503  0.34410964659E+03 -0.39434784192E+03 -0.37933723431E+03  0.64638874266E+03  0.00000000000E+00 0.  1.
         -1    1    6    6    0  502 -0.57783260990E+02  0.26788027003E+03 -0.31702482675E+03  0.41905069514E+03  0.00000000000E+00 0.  1.
<mgrwt>
<rscale>  0 0.15919679E+04</rscale>
<asrwt>0</asrwt>
<pdfrwt beam="1">  1        2 0.19226004E+00 0.15919679E+04</pdfrwt>
<pdfrwt beam="2">  1       -2 0.77999690E-01 0.15919679E+04</pdfrwt>
<totfact> 0.24844973E+01</totfact>
</mgrwt>
</event>
<event>
12    1  0.2404191E-008  0.1272342E+04  0.7818608E-02  0.9051791E-01
         -2   -1    0    0    0  501 -0.00000000000E+00  0.00000000000E+00  0.75375677057E+03  0.75375677057E+03  0.00000000000E+00 0.  1.
          2   -1    0    0  501    0  0.00000000000E+00 -0.00000000000E+00 -0.53692839555E+03  0.53692839555E+03  0.00000000000E+00 0. -1.
         23    2    1    2    0    0 -0.66337409618E+02  0.18638323291E+03  0.26770415166E+03  0.34549212188E+03  0.92519900789E+02 0.  0.
        254    2    1    2    0    0  0.66337409618E+02 -0.18638323291E+03 -0.50875776638E+02  0.94519304424E+03  0.92285545174E+03 0.  0.
        -24    2    4    4    0    0 -0.58873982668E+02  0.44083333727E+02  0.40289592314E+03  0.41730605850E+03  0.80060823362E+02 0.  0.
         24    2    4    4    0    0  0.12521139229E+03 -0.23046656664E+03 -0.45377169977E+03  0.52788698574E+03  0.62953817202E+02 0.  0.
         13    1    3    3    0    0 -0.61934313974E+02  0.19500695243E+03  0.23601469072E+03  0.31235637496E+03  0.00000000000E+00 0. -1.
        -13    1    3    3    0    0 -0.44030956443E+01 -0.86237195154E+01  0.31689460939E+02  0.33135746923E+02  0.00000000000E+00 0.  1.
          2    1    6    6  502    0 -0.57521688827E+01 -0.22706332840E+02 -0.51409324722E+02  0.56494102934E+02  0.00000000000E+00 0. -1.
          1    1    5    5  503    0 -0.63529945373E+01 -0.16164869512E+02  0.17384479889E+03  0.17471026772E+03  0.00000000000E+00 0. -1.
         -2    1    5    5    0  503 -0.52520988131E+02  0.60248203239E+02  0.22905112425E+03  0.24259579079E+03  0.00000000000E+00 0.  1.
         -1    1    6    6    0  502  0.13096356117E+03 -0.20776023380E+03 -0.40236237505E+03  0.47139288280E+03  0.00000000000E+00 0.  1.
<mgrwt>
<rscale>  0 0.12723418E+04</rscale>
<asrwt>0</asrwt>
<pdfrwt beam="1">  1        2 0.82604369E-01 0.12723418E+04</pdfrwt>
<pdfrwt beam="2">  1       -2 0.11596258E+00 0.12723418E+04</pdfrwt>
<totfact> 0.32131587E+01</totfact>
</mgrwt>
</event>
<event>
11    1  0.2404191E-008  0.1178819E+04  0.7818608E-02  0.9131601E-01
         -2   -1    0    0    0  501 -0.00000000000E+00  0.00000000000E+00  0.47139618203E+03  0.47139618203E+03  0.00000000000E+00 0.  1.
          2   -1    0    0  501    0  0.00000000000E+00 -0.00000000000E+00 -0.73696768204E+03  0.73696768204E+03  0.00000000000E+00 0. -1.
         23    2    1    2    0    0 -0.78001762267E+02 -0.14163544328E+03 -0.22098029546E+03  0.28906313284E+03  0.92630071134E+02 0.  0.
        254    2    1    2    0    0  0.78001762267E+02  0.14163544328E+03 -0.44591204554E+02  0.91930073123E+03  0.90386978333E+03 0.  0.
        -24    2    4    4    0    0 -0.27760524536E+03 -0.16835695156E+03 -0.15546303229E+02  0.33463202619E+03  0.79549795818E+02 0.  0.
         11    1    3    3    0    0 -0.89531477517E+02 -0.13448158385E+03 -0.22297075892E+03  0.27534912601E+03  0.00000000000E+00 0. -1.
        -11    1    3    3    0    0  0.11529715250E+02 -0.71538594292E+01  0.19904634669E+01  0.13714006828E+02  0.00000000000E+00 0.  1.
          2    1    4    4  502    0 -0.25505960097E+02  0.14763685526E+03 -0.75581921311E+02  0.16780888493E+03  0.00000000000E+00 0. -1.
          1    1    5    5  503    0 -0.98561582760E+02 -0.20085654930E+02 -0.17820088906E+02  0.10215368177E+03  0.00000000000E+00 0. -1.
         -2    1    5    5    0  503 -0.17904366260E+03 -0.14827129663E+03  0.22737856770E+01  0.23247834442E+03  0.00000000000E+00 0.  1.
         -1    1    4    4    0  502  0.38111296773E+03  0.16235553957E+03  0.46537019986E+02  0.41685982012E+03  0.00000000000E+00 0.  1.
<mgrwt>
<rscale>  0 0.11788193E+04</rscale>
<asrwt>0</asrwt>
<pdfrwt beam="1">  1        2 0.11337964E+00 0.11788193E+04</pdfrwt>
<pdfrwt beam="2">  1       -2 0.72522489E-01 0.11788193E+04</pdfrwt>
<totfact> 0.65226523E+01</totfact>
</mgrwt>
</event>
<event>
12    1  0.2404191E-008  0.2016660E+04  0.7818608E-02  0.8598871E-01
          2   -1    0    0  501    0  0.00000000000E+00  0.00000000000E+00  0.20907964488E+04  0.20907964488E+04  0.00000000000E+00 0. -1.
         -2   -1    0    0    0  501 -0.00000000000E+00 -0.00000000000E+00 -0.48628802414E+03  0.48628802414E+03  0.00000000000E+00 0.  1.
         23    2    1    2    0    0 -0.61475070855E+03 -0.43052656442E+03  0.10095798176E+04  0.12616560962E+04  0.96193246265E+02 0.  0.
        254    2    1    2    0    0  0.61475070855E+03  0.43052656442E+03  0.59492860700E+03  0.13154283767E+04  0.90174287378E+03 0.  0.
        -24    2    4    4    0    0  0.62049722608E+03  0.60241577013E+03  0.21647278805E+03  0.89515708177E+03  0.80772305876E+02 0.  0.
         24    2    4    4    0    0 -0.57465175244E+01 -0.17188920571E+03  0.37845581894E+03  0.42027129492E+03  0.61808032927E+02 0.  0.
         11    1    3    3    0    0 -0.44585904793E+03 -0.29431316194E+03  0.78347268573E+03  0.94828264626E+03  0.00000000000E+00 0. -1.
        -11    1    3    3    0    0 -0.16889166062E+03 -0.13621340249E+03  0.22610713189E+03  0.31337344995E+03  0.00000000000E+00 0.  1.
          2    1    6    6  502    0 -0.22166654991E+02 -0.95479335863E+02  0.15350150474E+03  0.18212736238E+03  0.00000000000E+00 0. -1.
          1    1    5    5  503    0  0.10827002667E+03  0.13976287268E+03  0.65993705495E+02  0.18870937554E+03  0.00000000000E+00 0. -1.
         -2    1    5    5    0  503  0.51222719941E+03  0.46265289745E+03  0.15047908256E+03  0.70644770622E+03  0.00000000000E+00 0.  1.
         -1    1    6    6    0  502  0.16420137467E+02 -0.76409869848E+02  0.22495431420E+03  0.23814393253E+03  0.00000000000E+00 0.  1.
<mgrwt>
<rscale>  0 0.20166599E+04</rscale>
<asrwt>0</asrwt>
<pdfrwt beam="1">  1        2 0.32166099E+00 0.20166599E+04</pdfrwt>
<pdfrwt beam="2">  1       -2 0.74813543E-01 0.20166599E+04</pdfrwt>
<totfact> 0.88572908E+00</totfact>
</mgrwt>
</event>
<event>
11    1  0.2404191E-008  0.4273740E+04  0.7818608E-02  0.7951492E-01
          2   -1    0    0  501    0  0.00000000000E+00  0.00000000000E+00  0.37024605721E+04  0.37024605721E+04  0.00000000000E+00 0.  1.
         -2   -1    0    0    0  501 -0.00000000000E+00 -0.00000000000E+00 -0.12332917176E+04  0.12332917176E+04  0.00000000000E+00 0. -1.
         23    2    1    2    0    0 -0.20073002140E+04  0.38922818001E+03  0.11402222547E+04  0.23428714727E+04  0.90483271435E+02 0.  0.
        254    2    1    2    0    0  0.20073002140E+04 -0.38922818001E+03  0.13289465998E+04  0.25928808171E+04  0.88101029581E+03 0.  0.
        -24    2    4    4    0    0  0.16914881857E+04 -0.56348864780E+03  0.81192726402E+03  0.19607116331E+04  0.80699985086E+02 0.  0.
         13    1    3    3    0    0 -0.18465772023E+04  0.38071660846E+03  0.10616508982E+04  0.21637687329E+04  0.00000000000E+00 0. -1.
        -13    1    3    3    0    0 -0.16072301165E+03  0.85115715556E+01  0.78571356497E+02  0.17910273975E+03  0.00000000000E+00 0.  1.
          4    1    4    4  502    0  0.64649586059E+02  0.58603811813E+02  0.12397123726E+03  0.15160093471E+03  0.00000000000E+00 0. -1.
          1    1    5    5  503    0  0.99886080608E+03 -0.32840010936E+03  0.52205963753E+03  0.11739317727E+04  0.00000000000E+00 0. -1.
         -2    1    5    5    0  503  0.69262737961E+03 -0.23508853844E+03  0.28986762649E+03  0.78677986043E+03  0.00000000000E+00 0.  1.
         -3    1    4    4    0  502  0.25116244221E+03  0.11565665597E+03  0.39304809851E+03  0.48056824925E+03  0.00000000000E+00 0.  1.
<mgrwt>
<rscale>  0 0.42737403E+04</rscale>
<asrwt>0</asrwt>
<pdfrwt beam="1">  1        2 0.56960931E+00 0.42737403E+04</pdfrwt>
<pdfrwt beam="2">  1       -2 0.18973719E+00 0.42737403E+04</pdfrwt>
<totfact> 0.69624845E-02</totfact>
</mgrwt>
</event>
<event>
11    1  0.2404191E-008  0.1379601E+04  0.7818608E-02  0.8968718E-01
         -2   -1    0    0    0  501 -0.00000000000E+00  0.00000000000E+00  0.38219536037E+03  0.38219536037E+03  0.00000000000E+00 0.  1.
          2   -1    0    0  501    0  0.00000000000E+00 -0.00000000000E+00 -0.12449771407E+04  0.12449771407E+04  0.00000000000E+00 0. -1.
         23    2    1    2    0    0  0.18981184610E+03  0.10472292513E+03 -0.64082754834E+03  0.68222553511E+03  0.88183366151E+02 0.  0.
        254    2    1    2    0    0 -0.18981184610E+03 -0.10472292513E+03 -0.22195423202E+03  0.94494696600E+03  0.89256129172E+03 0.  0.
        -24    2    4    4    0    0  0.26282480878E+03  0.13489240372E+03  0.10349870600E+03  0.32272108929E+03  0.78511646479E+02 0.  0.
         13    1    3    3    0    0  0.15000856698E+03  0.64560015182E+02 -0.35368697842E+03  0.38957033310E+03  0.00000000000E+00 0. -1.
        -13    1    3    3    0    0  0.39803279119E+02  0.40162909951E+02 -0.28714056993E+03  0.29265520201E+03  0.00000000000E+00 0.  1.
          2    1    4    4  502    0 -0.73985541084E+02 -0.10222452136E+03 -0.59272240821E+02  0.13941632469E+03  0.00000000000E+00 0. -1.
          1    1    5    5  503    0  0.26686578143E+03  0.12451796576E+03  0.10085677923E+03  0.31127826621E+03  0.00000000000E+00 0. -1.
         -2    1    5    5    0  503 -0.40409726500E+01  0.10374437961E+02  0.26419267799E+01  0.11442823081E+02  0.00000000000E+00 0.  1.
         -1    1    4    4    0  502 -0.37865111380E+03 -0.13739080749E+03 -0.26618069720E+03  0.48280955203E+03  0.00000000000E+00 0.  1.
<mgrwt>
<rscale>  0 0.13796006E+04</rscale>
<asrwt>0</asrwt>
<pdfrwt beam="1">  1        2 0.19153495E+00 0.13796006E+04</pdfrwt>
<pdfrwt beam="2">  1       -2 0.58799286E-01 0.13796006E+04</pdfrwt>
<totfact> 0.46917981E+01</totfact>
</mgrwt>
</event>
<event>
11    1  0.2404191E-008  0.2061604E+04  0.7818608E-02  0.8578348E-01
         -2   -1    0    0    0  501 -0.00000000000E+00  0.00000000000E+00  0.20826483852E+04  0.20826483852E+04  0.00000000000E+00 0.  1.
          2   -1    0    0  501    0  0.00000000000E+00 -0.00000000000E+00 -0.51019316558E+03  0.51019316558E+03  0.00000000000E+00 0. -1.
         23    2    1    2    0    0  0.37190742162E+03 -0.13437046457E+03  0.15597394366E+04  0.16117538397E+04  0.92697238000E+02 0.  0.
        254    2    1    2    0    0 -0.37190742162E+03  0.13437046457E+03  0.12715783038E+02  0.98108771101E+03  0.89777550287E+03 0.  0.
        -24    2    4    4    0    0 -0.46720999043E+03  0.26211437426E+03  0.28184857601E+03  0.61056897519E+03  0.79791812331E+02 0.  0.
         13    1    3    3    0    0  0.12784458572E+03 -0.18114576545E+02  0.37653100095E+03  0.39805523569E+03  0.00000000000E+00 0. -1.
        -13    1    3    3    0    0  0.24406283590E+03 -0.11625588803E+03  0.11832084356E+04  0.12136986041E+04  0.00000000000E+00 0.  1.
          2    1    4    4  502    0  0.38345262363E+02 -0.66879196779E+02 -0.27629926299E+03  0.28685269536E+03  0.00000000000E+00 0. -1.
          3    1    5    5  503    0 -0.25482395422E+03  0.98856264043E+02  0.15426683123E+03  0.31385675682E+03  0.00000000000E+00 0. -1.
         -4    1    5    5    0  503 -0.21238603621E+03  0.16325811021E+03  0.12758174478E+03  0.29671221837E+03  0.00000000000E+00 0.  1.
         -1    1    4    4    0  502  0.56957306443E+02 -0.60864712905E+02  0.71664700196E+01  0.83666040463E+02  0.00000000000E+00 0.  1.
<mgrwt>
<rscale>  0 0.20616042E+04</rscale>
<asrwt>0</asrwt>
<pdfrwt beam="1">  1        2 0.78491258E-01 0.20616042E+04</pdfrwt>
<pdfrwt beam="2">  1       -2 0.32040744E+00 0.20616042E+04</pdfrwt>
<totfact> 0.13254710E+00</totfact>
</mgrwt>
</event>
<event>
11    1  0.2404191E-008  0.1696150E+04  0.7818608E-02  0.8763563E-01
         -1   -1    0    0    0  501 -0.00000000000E+00  0.00000000000E+00  0.46335529398E+03  0.46335529398E+03  0.00000000000E+00 0.  1.
          1   -1    0    0  501    0  0.00000000000E+00 -0.00000000000E+00 -0.15522239183E+04  0.15522239183E+04  0.00000000000E+00 0. -1.
         23    2    1    2    0    0 -0.52946129851E+03 -0.28265352385E+03 -0.30910854947E+03  0.68101460049E+03  0.89501450045E+02 0.  0.
        254    2    1    2    0    0  0.52946129851E+03  0.28265352385E+03 -0.77976007488E+03  0.13345646118E+04  0.90156233704E+03 0.  0.
        -24    2    4    4    0    0  0.38438474237E+03 -0.23025513387E+03 -0.61446365161E+03  0.76446964436E+03  0.77969232115E+02 0.  0.
         13    1    3    3    0    0 -0.37346796714E+03 -0.24224785404E+03 -0.23935699713E+03  0.50542469008E+03  0.00000000000E+00 0.  1.
        -13    1    3    3    0    0 -0.15599333137E+03 -0.40405669817E+02 -0.69751552340E+02  0.17558991041E+03  0.00000000000E+00 0. -1.
          2    1    4    4  502    0  0.51030589046E+02  0.47223763832E+02 -0.32811402026E+02  0.76881681770E+02  0.00000000000E+00 0. -1.
          1    1    5    5  503    0  0.27485414322E+03 -0.13644176253E+03 -0.46184584552E+03  0.55449322776E+03  0.00000000000E+00 0. -1.
         -2    1    5    5    0  503  0.10953059915E+03 -0.93813371340E+02 -0.15261780609E+03  0.20997641660E+03  0.00000000000E+00 0.  1.
         -1    1    4    4    0  502  0.94045967099E+02  0.46568489389E+03 -0.13248502124E+03  0.49321328569E+03  0.00000000000E+00 0.  1.
<mgrwt>
<rscale>  0 0.16961500E+04</rscale>
<asrwt>0</asrwt>
<pdfrwt beam="1">  1        1 0.23880368E+00 0.16961500E+04</pdfrwt>
<pdfrwt beam="2">  1       -1 0.71285431E-01 0.16961500E+04</pdfrwt>
<totfact> 0.11386180E+01</totfact>
</mgrwt>
</event>
<event>
12    1  0.2404191E-008  0.2177116E+04  0.7818608E-02  0.8528014E-01
          2   -1    0    0  501    0  0.00000000000E+00  0.00000000000E+00  0.12435806608E+04  0.12435806608E+04  0.00000000000E+00 0. -1.
         -2   -1    0    0    0  501 -0.00000000000E+00 -0.00000000000E+00 -0.95286062335E+03  0.95286062335E+03  0.00000000000E+00 0.  1.
         23    2    1    2    0    0 -0.82388585440E+03 -0.17768878056E+03  0.43326142662E+03  0.95205574891E+03  0.91287904066E+02 0.  0.
        254    2    1    2    0    0  0.82388585440E+03  0.17768878056E+03 -0.14254138917E+03  0.12443855352E+04  0.90433185771E+03 0.  0.
        -24    2    4    4    0    0  0.67083988494E+03  0.16671900063E+03 -0.49174978003E+03  0.85201115115E+03  0.79270291566E+02 0.  0.
         24    2    4    4    0    0  0.15304596946E+03  0.10969779924E+02  0.34920839086E+03  0.39237438409E+03  0.92020390181E+02 0.  0.
         11    1    3    3    0    0 -0.18265294104E+03 -0.35822195314E+02  0.54613791288E+02  0.19397936165E+03  0.00000000000E+00 0.  1.
        -11    1    3    3    0    0 -0.64123291336E+03 -0.14186658524E+03  0.37864763533E+03  0.75807638726E+03  0.00000000000E+00 0. -1.
          4    1    6    6  502    0  0.66984865096E+02 -0.34402444515E+02  0.20521726818E+03  0.21859695218E+03  0.00000000000E+00 0. -1.
          1    1    5    5  503    0  0.36427460077E+03  0.12076442949E+03 -0.23965369675E+03  0.45245323136E+03  0.00000000000E+00 0. -1.
         -2    1    5    5    0  503  0.30656528417E+03  0.45954571146E+02 -0.25209608328E+03  0.39955791979E+03  0.00000000000E+00 0.  1.
         -3    1    6    6    0  502  0.86061104366E+02  0.45372224439E+02  0.14399112267E+03  0.17377743192E+03  0.00000000000E+00 0.  1.
<mgrwt>
<rscale>  0 0.21771165E+04</rscale>
<asrwt>0</asrwt>
<pdfrwt beam="1">  1        2 0.19132010E+00 0.21771165E+04</pdfrwt>
<pdfrwt beam="2">  1       -2 0.14659394E+00 0.21771165E+04</pdfrwt>
<totfact> 0.52029417E+00</totfact>
</mgrwt>
</event>
<event>
12    1  0.2404191E-008  0.2540232E+04  0.7818608E-02  0.8388791E-01
         -2   -1    0    0    0  501 -0.00000000000E+00  0.00000000000E+00  0.66603832322E+03  0.66603832322E+03  0.00000000000E+00 0.  1.
          2   -1    0    0  501    0  0.00000000000E+00 -0.00000000000E+00 -0.24220742139E+04  0.24220742139E+04  0.00000000000E+00 0. -1.
         23    2    1    2    0    0 -0.56881201280E+03 -0.63930829554E+03 -0.16135209296E+04  0.18294489048E+04  0.10569438137E+03 0.  0.
        254    2    1    2    0    0  0.56881201280E+03  0.63930829554E+03 -0.14251496108E+03  0.12586636324E+04  0.91195472620E+03 0.  0.
        -24    2    4    4    0    0 -0.15791115823E+03 -0.43010359335E+02  0.12986044311E+03  0.22318752075E+03  0.78505476417E+02 0.  0.
         24    2    4    4    0    0  0.72672317104E+03  0.68231865487E+03 -0.27237540419E+03  0.10354761116E+04  0.65856683834E+02 0.  0.
         13    1    3    3    0    0 -0.28908057800E+03 -0.39350583145E+03 -0.96961992951E+03  0.10856229676E+04  0.00000000000E+00 0. -1.
        -13    1    3    3    0    0 -0.27973143480E+03 -0.24580246408E+03 -0.64390100008E+03  0.74382593721E+03  0.00000000000E+00 0.  1.
          2    1    6    6  502    0  0.63974433434E+03  0.62525426686E+03 -0.25325502668E+03  0.92970630851E+03  0.00000000000E+00 0. -1.
          1    1    5    5  503    0 -0.15035372015E+03 -0.23659389839E+02  0.13306307469E+03  0.20216772675E+03  0.00000000000E+00 0. -1.
         -2    1    5    5    0  503 -0.75574380817E+01 -0.19350969496E+02 -0.32026315821E+01  0.21019794001E+02  0.00000000000E+00 0.  1.
         -1    1    6    6    0  502  0.86978836694E+02  0.57064388014E+02 -0.19120377514E+02  0.10576980310E+03  0.00000000000E+00 0.  1.
<mgrwt>
<rscale>  0 0.25402317E+04</rscale>
<asrwt>0</asrwt>
<pdfrwt beam="1">  1        2 0.37262681E+00 0.25402317E+04</pdfrwt>
<pdfrwt beam="2">  1       -2 0.10246743E+00 0.25402317E+04</pdfrwt>
<totfact> 0.26745705E+00</totfact>
</mgrwt>
</event>
<event>
11    1  0.2404191E-008  0.1719662E+04  0.7818608E-02  0.8750229E-01
         -2   -1    0    0    0  501 -0.00000000000E+00  0.00000000000E+00  0.48496852361E+03  0.48496852361E+03  0.00000000000E+00 0.  1.
          2   -1    0    0  501    0  0.00000000000E+00 -0.00000000000E+00 -0.15244479951E+04  0.15244479951E+04  0.00000000000E+00 0. -1.
         23    2    1    2    0    0  0.43110419287E+03 -0.35675287419E+03 -0.77071145571E+02  0.57245685040E+03  0.92970133549E+02 0.  0.
        254    2    1    2    0    0 -0.43110419287E+03  0.35675287419E+03 -0.96240832597E+03  0.14369596684E+04  0.90857023077E+03 0.  0.
        -24    2    4    4    0    0  0.22821859636E+03  0.32344615072E+03 -0.32318282921E+03  0.51696536725E+03  0.78133921617E+02 0.  0.
         13    1    3    3    0    0  0.11564904343E+03 -0.14449378523E+03 -0.47594008921E+02  0.19109773652E+03  0.00000000000E+00 0. -1.
        -13    1    3    3    0    0  0.31545514944E+03 -0.21225908897E+03 -0.29477136650E+02  0.38135911388E+03  0.00000000000E+00 0.  1.
          2    1    4    4  502    0 -0.16915199503E+02 -0.55491459426E+01 -0.13213630727E+02  0.22170183398E+02  0.00000000000E+00 0. -1.
          3    1    5    5  503    0  0.49079316601E+02  0.89735985463E+02 -0.44530737863E+02  0.11155408114E+03  0.00000000000E+00 0. -1.
         -4    1    5    5    0  503  0.17913927976E+03  0.23371016526E+03 -0.27865209134E+03  0.40541128611E+03  0.00000000000E+00 0.  1.
         -3    1    4    4    0  502 -0.64240758972E+03  0.38855869418E+02 -0.62601186603E+03  0.89782411771E+03  0.00000000000E+00 0.  1.
<mgrwt>
<rscale>  0 0.17196619E+04</rscale>
<asrwt>0</asrwt>
<pdfrwt beam="1">  1        2 0.23453046E+00 0.17196619E+04</pdfrwt>
<pdfrwt beam="2">  1       -2 0.74610543E-01 0.17196619E+04</pdfrwt>
<totfact> 0.18871284E+01</totfact>
</mgrwt>
</event>
<event>
12    1  0.3275854E-008  0.1457506E+04  0.7818608E-02  0.8913213E-01
         -2   -1    0    0    0  501 -0.00000000000E+00  0.00000000000E+00  0.44167625103E+03  0.44167625103E+03  0.00000000000E+00 0. -1.
          2   -1    0    0  501    0  0.00000000000E+00 -0.00000000000E+00 -0.12024210713E+04  0.12024210713E+04  0.00000000000E+00 0.  1.
         23    2    1    2    0    0  0.44370266462E+02 -0.24085046960E+03  0.17344665529E+03  0.31362410918E+03  0.91097038223E+02 0.  0.
        254    2    1    2    0    0 -0.44370266462E+02  0.24085046960E+03 -0.93419147557E+03  0.13304732132E+04  0.91513255250E+03 0.  0.
        -24    2    4    4    0    0  0.25628435122E+03  0.39200256097E+03 -0.19778932072E+03  0.51473663811E+03  0.80532693577E+02 0.  0.
         24    2    4    4    0    0 -0.30065461768E+03 -0.15115209137E+03 -0.73640215485E+03  0.81573657505E+03  0.99488051232E+02 0.  0.
         11    1    3    3    0    0 -0.11096749565E+02 -0.17568063577E+02 -0.62459907769E+01  0.21697629122E+02  0.00000000000E+00 0.  1.
        -11    1    3    3    0    0  0.55467016027E+02 -0.22328240602E+03  0.17969264607E+03  0.29192648005E+03  0.00000000000E+00 0. -1.
          4    1    6    6  502    0 -0.39136879609E+02 -0.42111359723E+02 -0.63744571089E+02  0.85839573080E+02  0.00000000000E+00 0. -1.
          1    1    5    5  503    0  0.31371302992E+02  0.13079040437E+02 -0.20975154861E+02  0.39939667896E+02  0.00000000000E+00 0. -1.
         -4    1    5    5    0  503  0.22491304823E+03  0.37892352054E+03 -0.17681416586E+03  0.47479697022E+03  0.00000000000E+00 0.  1.
         -3    1    6    6    0  502 -0.26151773807E+03 -0.10904073165E+03 -0.67265758376E+03  0.72989700197E+03  0.00000000000E+00 0.  1.
<mgrwt>
<rscale>  0 0.14575059E+04</rscale>
<asrwt>0</asrwt>
<pdfrwt beam="1">  1        2 0.18498786E+00 0.14575059E+04</pdfrwt>
<pdfrwt beam="2">  1       -2 0.67950192E-01 0.14575059E+04</pdfrwt>
<totfact> 0.36291793E+01</totfact>
</mgrwt>
</event>
<event>
12    1  0.2404191E-008  0.1850018E+04  0.7818608E-02  0.8680143E-01
          2   -1    0    0  501    0  0.00000000000E+00  0.00000000000E+00  0.46841367052E+03  0.46841367052E+03  0.00000000000E+00 0. -1.
         -2   -1    0    0    0  501 -0.00000000000E+00 -0.00000000000E+00 -0.18266798682E+04  0.18266798682E+04  0.00000000000E+00 0.  1.
         23    2    1    2    0    0 -0.19258529739E+03 -0.24293135051E+03  0.26106793538E+03  0.41520311069E+03  0.90179922444E+02 0.  0.
        254    2    1    2    0    0  0.19258529739E+03  0.24293135051E+03 -0.16193341331E+04  0.18798904281E+04  0.90312803585E+03 0.  0.
        -24    2    4    4    0    0  0.28378553369E+03  0.10784796028E+02 -0.15847496687E+04  0.16119891182E+04  0.80167721976E+02 0.  0.
         24    2    4    4    0    0 -0.91200236300E+02  0.23214655448E+03 -0.34584464316E+02  0.26790130985E+03  0.91463220966E+02 0.  0.
         13    1    3    3    0    0 -0.13256868106E+03 -0.19421809585E+03  0.23791392957E+03  0.33451182615E+03  0.00000000000E+00 0. -1.
        -13    1    3    3    0    0 -0.60016616325E+02 -0.48713254658E+02  0.23154005808E+02  0.80691284532E+02  0.00000000000E+00 0.  1.
          4    1    6    6  502    0  0.70910123933E+01  0.47374516870E+01  0.13081290695E+02  0.15615571443E+02  0.00000000000E+00 0. -1.
          3    1    5    5  503    0  0.13020967879E+03 -0.15983589768E+02 -0.54197098549E+03  0.55762225987E+03  0.00000000000E+00 0. -1.
         -4    1    5    5    0  503  0.15357585490E+03  0.26768385796E+02 -0.10427786833E+04  0.10543668583E+04  0.00000000000E+00 0.  1.
         -3    1    6    6    0  502 -0.98291248693E+02  0.22740910279E+03 -0.47665755011E+02  0.25228573841E+03  0.00000000000E+00 0.  1.
<mgrwt>
<rscale>  0 0.18500182E+04</rscale>
<asrwt>0</asrwt>
<pdfrwt beam="1">  1        2 0.72063642E-01 0.18500182E+04</pdfrwt>
<pdfrwt beam="2">  1       -2 0.28102767E+00 0.18500182E+04</pdfrwt>
<totfact> 0.25943921E+00</totfact>
</mgrwt>
</event>
<event>
11    1  0.2404191E-008  0.1585806E+04  0.7818608E-02  0.8829316E-01
         -1   -1    0    0    0  501 -0.00000000000E+00  0.00000000000E+00  0.89393581590E+03  0.89393581590E+03  0.00000000000E+00 0.  1.
          1   -1    0    0  501    0  0.00000000000E+00 -0.00000000000E+00 -0.70328865196E+03  0.70328865196E+03  0.00000000000E+00 0. -1.
         23    2    1    2    0    0  0.13138759023E+03  0.41068223440E+03  0.37625580263E+03  0.57948762161E+03  0.91185953234E+02 0.  0.
        254    2    1    2    0    0 -0.13138759023E+03 -0.41068223440E+03 -0.18560863870E+03  0.10177368462E+04  0.90300339143E+03 0.  0.
        -24    2    4    4    0    0 -0.21757141997E+03 -0.17830321692E+03  0.32271371853E+03  0.43479459040E+03  0.75979153484E+02 0.  0.
         13    1    3    3    0    0  0.13525234735E+03  0.41234088857E+03  0.37742314148E+03  0.57512297257E+03  0.00000000000E+00 0.  1.
        -13    1    3    3    0    0 -0.38647571227E+01 -0.16586541732E+01 -0.11673388444E+01  0.43646490422E+01  0.00000000000E+00 0. -1.
          4    1    4    4  502    0  0.57188963039E+01 -0.19759058662E+03 -0.35554801216E+03  0.40680355781E+03  0.00000000000E+00 0. -1.
          3    1    5    5  503    0 -0.34569982929E+02 -0.30355064637E+02  0.10315766763E+03  0.11295139689E+03  0.00000000000E+00 0. -1.
         -4    1    5    5    0  503 -0.18300143704E+03 -0.14794815228E+03  0.21955605090E+03  0.32184319351E+03  0.00000000000E+00 0.  1.
         -3    1    4    4    0  502  0.80464933433E+02 -0.34788430855E+02 -0.15277434507E+03  0.17613869804E+03  0.00000000000E+00 0.  1.
<mgrwt>
<rscale>  0 0.15858057E+04</rscale>
<asrwt>0</asrwt>
<pdfrwt beam="1">  1        1 0.10819825E+00 0.15858057E+04</pdfrwt>
<pdfrwt beam="2">  1       -1 0.13752859E+00 0.15858057E+04</pdfrwt>
<totfact> 0.11412174E+01</totfact>
</mgrwt>
</event>
<event>
11    1  0.2404191E-008  0.1342551E+04  0.7818608E-02  0.8996486E-01
          2   -1    0    0  501    0  0.00000000000E+00  0.00000000000E+00  0.59250064401E+03  0.59250064401E+03  0.00000000000E+00 0. -1.
         -2   -1    0    0    0  501 -0.00000000000E+00 -0.00000000000E+00 -0.76052393281E+03  0.76052393281E+03  0.00000000000E+00 0.  1.
         23    2    1    2    0    0 -0.23212102720E+03 -0.81757175422E+02 -0.29300250851E+03  0.39335540679E+03  0.91178939769E+02 0.  0.
        254    2    1    2    0    0  0.23212102720E+03  0.81757175422E+02  0.12497921972E+03  0.95966917003E+03  0.91911952626E+03 0.  0.
        -24    2    4    4    0    0 -0.31265224161E+03 -0.38462342813E+02  0.14524254449E+03  0.35592416659E+03  0.79723519945E+02 0.  0.
         11    1    3    3    0    0 -0.11002114544E+03  0.88691600630E+01 -0.12149546787E+03  0.16414768703E+03  0.00000000000E+00 0. -1.
        -11    1    3    3    0    0 -0.12209988176E+03 -0.90626335485E+02 -0.17150704064E+03  0.22920771976E+03  0.00000000000E+00 0.  1.
          4    1    4    4  502    0  0.35101803083E+03  0.15566908137E+03 -0.90707198033E+02  0.39455584730E+03  0.00000000000E+00 0. -1.
          3    1    5    5  503    0 -0.27545640092E+03 -0.36524649247E+02  0.95580463961E+02  0.29384673539E+03  0.00000000000E+00 0. -1.
         -4    1    5    5    0  503 -0.37195840689E+02 -0.19376935661E+01  0.49662080531E+02  0.62077431193E+02  0.00000000000E+00 0.  1.
         -3    1    4    4    0  502  0.19375523798E+03 -0.35449563133E+02  0.70443873260E+02  0.20918915615E+03  0.00000000000E+00 0.  1.
<mgrwt>
<rscale>  0 0.13425512E+04</rscale>
<asrwt>0</asrwt>
<pdfrwt beam="1">  1        2 0.91153946E-01 0.13425512E+04</pdfrwt>
<pdfrwt beam="2">  1       -2 0.11700368E+00 0.13425512E+04</pdfrwt>
<totfact> 0.27812932E+01</totfact>
</mgrwt>
</event>
<event>
12    1  0.2404191E-008  0.1784336E+04  0.7818608E-02  0.8714674E-01
          2   -1    0    0  501    0  0.00000000000E+00  0.00000000000E+00  0.99269909326E+03  0.99269909326E+03  0.00000000000E+00 0. -1.
         -2   -1    0    0    0  501 -0.00000000000E+00 -0.00000000000E+00 -0.80181778963E+03  0.80181778963E+03  0.00000000000E+00 0.  1.
         23    2    1    2    0    0 -0.16846206487E+01  0.38030824316E+02 -0.59521136971E+03  0.60415475620E+03  0.96318291434E+02 0.  0.
        254    2    1    2    0    0  0.16846206487E+01 -0.38030824316E+02  0.78609267335E+03  0.11903621267E+04  0.89306837365E+03 0.  0.
        -24    2    4    4    0    0  0.71507766761E+02 -0.29218592875E+03 -0.46376479945E+02  0.31505137858E+03  0.81367165289E+02 0.  0.
         24    2    4    4    0    0 -0.69823146112E+02  0.25415510444E+03  0.83246915329E+03  0.87531074810E+03  0.60777674467E+02 0.  0.
         11    1    3    3    0    0  0.31128393756E+02  0.48391820899E+02 -0.22110347708E+03  0.22846770626E+03  0.00000000000E+00 0.  1.
        -11    1    3    3    0    0 -0.32813014405E+02 -0.10360996583E+02 -0.37410789263E+03  0.37568704994E+03  0.00000000000E+00 0. -1.
          2    1    6    6  502    0 -0.45741568840E+02  0.16328468974E+03  0.62392643513E+03  0.64655887394E+03  0.00000000000E+00 0. -1.
          3    1    5    5  503    0 -0.12865318973E+02 -0.10349766576E+02  0.28827645164E+01  0.16761397069E+02  0.00000000000E+00 0. -1.
         -4    1    5    5    0  503  0.84373085734E+02 -0.28183616218E+03 -0.49259244461E+02  0.29828998152E+03  0.00000000000E+00 0.  1.
         -1    1    6    6    0  502 -0.24081577272E+02  0.90870414700E+02  0.20854271817E+03  0.22875187416E+03  0.00000000000E+00 0.  1.
<mgrwt>
<rscale>  0 0.17843361E+04</rscale>
<asrwt>0</asrwt>
<pdfrwt beam="1">  1        2 0.15272294E+00 0.17843361E+04</pdfrwt>
<pdfrwt beam="2">  1       -2 0.12335658E+00 0.17843361E+04</pdfrwt>
<totfact> 0.11930511E+01</totfact>
</mgrwt>
</event>
<event>
12    1  0.2404191E-008  0.1556614E+04  0.7818608E-02  0.8847654E-01
         -3   -1    0    0    0  501 -0.00000000000E+00  0.00000000000E+00  0.39366110941E+03  0.39366110941E+03  0.00000000000E+00 0.  1.
          3   -1    0    0  501    0  0.00000000000E+00 -0.00000000000E+00 -0.15387894813E+04  0.15387894813E+04  0.00000000000E+00 0. -1.
         23    2    1    2    0    0 -0.15505686161E+02  0.49064694896E+03 -0.56439740677E+03  0.75338228924E+03  0.89808608367E+02 0.  0.
        254    2    1    2    0    0  0.15505686161E+02 -0.49064694896E+03 -0.58073096507E+03  0.11790683014E+04  0.90109863545E+03 0.  0.
        -24    2    4    4    0    0  0.20225692884E+03 -0.65416341797E+03 -0.20477609189E+03  0.71909188087E+03  0.79512531468E+02 0.  0.
         24    2    4    4    0    0 -0.18675124267E+03  0.16351646900E+03 -0.37595487318E+03  0.45997642056E+03  0.92857840413E+02 0.  0.
         11    1    3    3    0    0  0.14641135459E+02  0.41644398003E+03 -0.49803834667E+03  0.64937057687E+03  0.00000000000E+00 0. -1.
        -11    1    3    3    0    0 -0.30146821619E+02  0.74202968928E+02 -0.66359060103E+02  0.10401171237E+03  0.00000000000E+00 0.  1.
          4    1    6    6  502    0 -0.13684892502E+03  0.14454626097E+03 -0.22788856591E+03  0.30257965615E+03  0.00000000000E+00 0. -1.
          3    1    5    5  503    0  0.11254315143E+03 -0.41519038369E+03 -0.16510408235E+03  0.46076932803E+03  0.00000000000E+00 0. -1.
         -4    1    5    5    0  503  0.89713777409E+02 -0.23897303427E+03 -0.39672009542E+02  0.25832255284E+03  0.00000000000E+00 0.  1.
         -3    1    6    6    0  502 -0.49902317652E+02  0.18970208036E+02 -0.14806630726E+03  0.15739676441E+03  0.00000000000E+00 0.  1.
<mgrwt>
<rscale>  0 0.15566137E+04</rscale>
<asrwt>0</asrwt>
<pdfrwt beam="1">  1        3 0.23673685E+00 0.15566137E+04</pdfrwt>
<pdfrwt beam="2">  1       -3 0.60563247E-01 0.15566137E+04</pdfrwt>
<totfact> 0.59240572E-01</totfact>
</mgrwt>
</event>
<event>
12    1  0.2404191E-008  0.2101369E+04  0.7818608E-02  0.8560640E-01
          2   -1    0    0  501    0  0.00000000000E+00  0.00000000000E+00  0.29983017929E+04  0.29983017929E+04  0.00000000000E+00 0.  1.
         -2   -1    0    0    0  501 -0.00000000000E+00 -0.00000000000E+00 -0.36818777779E+03  0.36818777779E+03  0.00000000000E+00 0. -1.
         23    2    1    2    0    0 -0.20344673559E+03  0.82314431999E+03  0.12894245624E+04  0.15457188095E+04  0.87600173169E+02 0.  0.
        254    2    1    2    0    0  0.20344673559E+03 -0.82314431999E+03  0.13406894527E+04  0.18207707611E+04  0.89375657212E+03 0.  0.
        -24    2    4    4    0    0 -0.24690898649E+03  0.29812275125E+02  0.34489154680E+03  0.43277164023E+03  0.80549948292E+02 0.  0.
         24    2    4    4    0    0  0.45035572208E+03 -0.85295659512E+03  0.99579790593E+03  0.13879991209E+04  0.67622929841E+02 0.  0.
         13    1    3    3    0    0 -0.11597532238E+03  0.60412467230E+03  0.97118730949E+03  0.11496180606E+04  0.00000000000E+00 0.  1.
        -13    1    3    3    0    0 -0.87471413213E+02  0.21901964769E+03  0.31823725288E+03  0.39610074896E+03  0.00000000000E+00 0. -1.
          4    1    6    6  502    0  0.43328132361E+03 -0.83780858407E+03  0.96236081262E+03  0.13475141048E+04  0.00000000000E+00 0. -1.
          3    1    5    5  503    0 -0.16660095874E+03  0.56034676432E+02  0.25154778066E+03  0.30687464928E+03  0.00000000000E+00 0. -1.
         -2    1    5    5    0  503 -0.80308027751E+02 -0.26222401307E+02  0.93343766142E+02  0.12589699095E+03  0.00000000000E+00 0.  1.
         -3    1    6    6    0  502  0.17074398476E+02 -0.15148011045E+02  0.33437093310E+02  0.40485016128E+02  0.00000000000E+00 0.  1.
<mgrwt>
<rscale>  0 0.21013691E+04</rscale>
<asrwt>0</asrwt>
<pdfrwt beam="1">  1        2 0.46127718E+00 0.21013691E+04</pdfrwt>
<pdfrwt beam="2">  1       -2 0.56644275E-01 0.21013691E+04</pdfrwt>
<totfact> 0.47103109E+00</totfact>
</mgrwt>
</event>
<event>
11    1  0.2404191E-008  0.2435510E+04  0.7818608E-02  0.8426328E-01
          2   -1    0    0  501    0  0.00000000000E+00  0.00000000000E+00  0.12048218092E+04  0.12048218092E+04  0.00000000000E+00 0.  1.
         -2   -1    0    0    0  501 -0.00000000000E+00 -0.00000000000E+00 -0.12308271321E+04  0.12308271321E+04  0.00000000000E+00 0. -1.
         23    2    1    2    0    0 -0.21892421986E+03  0.70764204510E+03 -0.74986128728E+03  0.10578210932E+04  0.89489870753E+02 0.  0.
        254    2    1    2    0    0  0.21892421986E+03 -0.70764204510E+03  0.72385596431E+03  0.13778278482E+04  0.90871174971E+03 0.  0.
        -24    2    4    4    0    0  0.32795265953E+03 -0.44009982394E+03 -0.30243973387E+02  0.55526581002E+03  0.78515093571E+02 0.  0.
         11    1    3    3    0    0 -0.63188109618E+02  0.10691157318E+03 -0.14959939721E+03  0.19442942504E+03  0.00000000000E+00 0.  1.
        -11    1    3    3    0    0 -0.15573611024E+03  0.60073047192E+03 -0.60026189007E+03  0.86339166813E+03  0.00000000000E+00 0. -1.
          4    1    4    4  502    0  0.26103959484E+02  0.27877151911E+01  0.55835719485E+02  0.61699397300E+02  0.00000000000E+00 0. -1.
          1    1    5    5  503    0  0.18156472128E+03 -0.18338893716E+03 -0.29531165179E+02  0.25974860924E+03  0.00000000000E+00 0. -1.
         -4    1    5    5    0  503  0.14638793825E+03 -0.25671088678E+03 -0.71280820759E+00  0.29551720078E+03  0.00000000000E+00 0.  1.
         -3    1    4    4    0  502 -0.13513239916E+03 -0.27032993635E+03  0.69826421821E+03  0.76086264084E+03  0.00000000000E+00 0.  1.
<mgrwt>
<rscale>  0 0.24355101E+04</rscale>
<asrwt>0</asrwt>
<pdfrwt beam="1">  1        2 0.18535720E+00 0.24355101E+04</pdfrwt>
<pdfrwt beam="2">  1       -2 0.18935802E+00 0.24355101E+04</pdfrwt>
<totfact> 0.26409815E+00</totfact>
</mgrwt>
</event>
<event>
12    1  0.2404191E-008  0.1721624E+04  0.7818608E-02  0.8749126E-01
         -2   -1    0    0    0  501 -0.00000000000E+00  0.00000000000E+00  0.28276799281E+03  0.28276799281E+03  0.00000000000E+00 0.  1.
          2   -1    0    0  501    0  0.00000000000E+00 -0.00000000000E+00 -0.26205143912E+04  0.26205143912E+04  0.00000000000E+00 0. -1.
         23    2    1    2    0    0 -0.17549744366E+03 -0.55869716584E+03 -0.93065165065E+03  0.11033753217E+04  0.91557248484E+02 0.  0.
        254    2    1    2    0    0  0.17549744366E+03  0.55869716584E+03 -0.14070947478E+04  0.17999070624E+04  0.95750087630E+03 0.  0.
        -24    2    4    4    0    0  0.48272987268E+03  0.38026998455E+03 -0.42752386461E+03  0.75304862204E+03  0.81683420757E+02 0.  0.
         24    2    4    4    0    0 -0.30723242902E+03  0.17842718129E+03 -0.97957088318E+03  0.10468584403E+04  0.10062531727E+03 0.  0.
         11    1    3    3    0    0 -0.17820560564E+03 -0.55956303232E+03 -0.93075185188E+03  0.11005303425E+04  0.00000000000E+00 0. -1.
        -11    1    3    3    0    0  0.27081619840E+01  0.86586647696E+00  0.10020122615E+00  0.28449791517E+01  0.00000000000E+00 0.  1.
          2    1    6    6  502    0 -0.46817376800E+02  0.27897804307E+02 -0.69205871123E+02  0.88088630671E+02  0.00000000000E+00 0. -1.
          3    1    5    5  503    0  0.24262513482E+02  0.11734428452E+02 -0.41447739944E+02  0.49439675545E+02  0.00000000000E+00 0. -1.
         -4    1    5    5    0  503  0.45846735920E+03  0.36853555610E+03 -0.38607612466E+03  0.70360894650E+03  0.00000000000E+00 0.  1.
         -1    1    6    6    0  502 -0.26041505222E+03  0.15052937699E+03 -0.91036501205E+03  0.95876980967E+03  0.00000000000E+00 0.  1.
<mgrwt>
<rscale>  0 0.17216243E+04</rscale>
<asrwt>0</asrwt>
<pdfrwt beam="1">  1        2 0.40315607E+00 0.17216243E+04</pdfrwt>
<pdfrwt beam="2">  1       -2 0.43502767E-01 0.17216243E+04</pdfrwt>
<totfact> 0.14117661E+01</totfact>
</mgrwt>
</event>
<event>
12    1  0.2404191E-008  0.2318873E+04  0.7818608E-02  0.8470517E-01
          1   -1    0    0  501    0  0.00000000000E+00  0.00000000000E+00  0.82521638851E+03  0.82521638851E+03  0.00000000000E+00 0. -1.
         -1   -1    0    0    0  501 -0.00000000000E+00 -0.00000000000E+00 -0.16290189805E+04  0.16290189805E+04  0.00000000000E+00 0.  1.
         23    2    1    2    0    0 -0.44361560460E+03  0.87236285310E+03 -0.46085834761E+03  0.10856956259E+04  0.92373283187E+02 0.  0.
        254    2    1    2    0    0  0.44361560460E+03 -0.87236285310E+03 -0.34294424442E+03  0.13685397431E+04  0.89301652932E+03 0.  0.
        -24    2    4    4    0    0  0.54194941708E+03 -0.48450758394E+03 -0.54971747103E+03  0.91530556053E+03  0.84487878545E+02 0.  0.
         24    2    4    4    0    0 -0.98333812477E+02 -0.38785526916E+03  0.20677322661E+03  0.45323418260E+03  0.50643938887E+02 0.  0.
         11    1    3    3    0    0 -0.40242615982E+03  0.73368604346E+03 -0.37071274203E+03  0.91524311610E+03  0.00000000000E+00 0. -1.
        -11    1    3    3    0    0 -0.41189444780E+02  0.13867680964E+03 -0.90145605586E+02  0.17045250981E+03  0.00000000000E+00 0.  1.
          4    1    6    6  502    0 -0.98959543041E+02 -0.38143326795E+03  0.19468108878E+03  0.43952821910E+03  0.00000000000E+00 0. -1.
          1    1    5    5  503    0  0.37153666822E+03 -0.36956597977E+03 -0.36182090552E+03  0.63681463308E+03  0.00000000000E+00 0. -1.
         -2    1    5    5    0  503  0.17041274886E+03 -0.11494160417E+03 -0.18789656551E+03  0.27849092745E+03  0.00000000000E+00 0.  1.
         -3    1    6    6    0  502  0.62573056415E+00 -0.64220012113E+01  0.12092137826E+02  0.13705963501E+02  0.00000000000E+00 0.  1.
<mgrwt>
<rscale>  0 0.23188731E+04</rscale>
<asrwt>0</asrwt>
<pdfrwt beam="1">  1        1 0.12695637E+00 0.23188731E+04</pdfrwt>
<pdfrwt beam="2">  1       -1 0.25061830E+00 0.23188731E+04</pdfrwt>
<totfact> 0.13105099E+00</totfact>
</mgrwt>
</event>
<event>
12    1  0.2404191E-008  0.2395260E+04  0.7818608E-02  0.8441280E-01
         -2   -1    0    0    0  501 -0.00000000000E+00  0.00000000000E+00  0.65051796596E+03  0.65051796596E+03  0.00000000000E+00 0.  1.
          2   -1    0    0  501    0  0.00000000000E+00 -0.00000000000E+00 -0.22048850378E+04  0.22048850378E+04  0.00000000000E+00 0. -1.
         23    2    1    2    0    0  0.40972462631E+03 -0.93458064802E+03 -0.73914373316E+03  0.12631608549E+04  0.89031624077E+02 0.  0.
        254    2    1    2    0    0 -0.40972462631E+03  0.93458064802E+03 -0.81522333864E+03  0.15922421488E+04  0.91067596405E+03 0.  0.
        -24    2    4    4    0    0 -0.58279121568E+03  0.21805820793E+03 -0.40000567599E+03  0.74420267241E+03  0.81474497065E+02 0.  0.
         24    2    4    4    0    0  0.17306658937E+03  0.71652244008E+03 -0.41521766266E+03  0.84803947640E+03  0.58384883695E+02 0.  0.
         13    1    3    3    0    0  0.31851032884E+03 -0.78396896490E+03 -0.58069924820E+03  0.10262883534E+04  0.00000000000E+00 0. -1.
        -13    1    3    3    0    0  0.91214297468E+02 -0.15061168312E+03 -0.15844448496E+03  0.23687250150E+03  0.00000000000E+00 0.  1.
          4    1    6    6  502    0  0.69714912013E+02  0.33330356820E+03 -0.16067831232E+03  0.37652218737E+03  0.00000000000E+00 0. -1.
          3    1    5    5  503    0 -0.45346046939E+03  0.13769640294E+03 -0.32354380085E+03  0.57381816610E+03  0.00000000000E+00 0. -1.
         -4    1    5    5    0  503 -0.12933074630E+03  0.80361804997E+02 -0.76461875133E+02  0.17038450630E+03  0.00000000000E+00 0.  1.
         -3    1    6    6    0  502  0.10335167736E+03  0.38321887188E+03 -0.25453935034E+03  0.47151728902E+03  0.00000000000E+00 0.  1.
<mgrwt>
<rscale>  0 0.23952598E+04</rscale>
<asrwt>0</asrwt>
<pdfrwt beam="1">  1        2 0.33921308E+00 0.23952598E+04</pdfrwt>
<pdfrwt beam="2">  1       -2 0.10007969E+00 0.23952598E+04</pdfrwt>
<totfact> 0.38051516E+00</totfact>
</mgrwt>
</event>
<event>
12    1  0.2404191E-008  0.1710357E+04  0.7818608E-02  0.8755479E-01
         -2   -1    0    0    0  501 -0.00000000000E+00  0.00000000000E+00  0.21392608291E+03  0.21392608291E+03  0.00000000000E+00 0.  1.
          2   -1    0    0  501    0  0.00000000000E+00 -0.00000000000E+00 -0.34186111096E+04  0.34186111096E+04  0.00000000000E+00 0. -1.
         23    2    1    2    0    0 -0.39779497682E+03 -0.45150914726E+03 -0.14179627421E+04  0.15431576917E+04  0.92822247799E+02 0.  0.
        254    2    1    2    0    0  0.39779497682E+03  0.45150914726E+03 -0.17867222846E+04  0.20893795009E+04  0.90057138680E+03 0.  0.
        -24    2    4    4    0    0  0.62750546426E+03  0.51806937338E+03 -0.14356746624E+04  0.16521780239E+04  0.79821694586E+02 0.  0.
         24    2    4    4    0    0 -0.22971048744E+03 -0.66560226111E+02 -0.35104762220E+03  0.43720147702E+03  0.10350616751E+03 0.  0.
         11    1    3    3    0    0 -0.19150897273E+03 -0.17549479536E+03 -0.70391168253E+03  0.75031044684E+03  0.00000000000E+00 0.  1.
        -11    1    3    3    0    0 -0.20628600409E+03 -0.27601435190E+03 -0.71405105959E+03  0.79284724483E+03  0.00000000000E+00 0. -1.
          4    1    6    6  502    0 -0.22322520840E+03 -0.78097060518E+02 -0.35185020252E+03  0.42394246017E+03  0.00000000000E+00 0. -1.
          1    1    5    5  503    0  0.52027442126E+03  0.46473138242E+03 -0.12101867877E+04  0.13968581862E+04  0.00000000000E+00 0. -1.
         -2    1    5    5    0  503  0.10723104300E+03  0.53337990955E+02 -0.22548787466E+03  0.25531983762E+03  0.00000000000E+00 0.  1.
         -3    1    6    6    0  502 -0.64852790495E+01  0.11536834407E+02  0.80258032131E+00  0.13259016844E+02  0.00000000000E+00 0.  1.
<mgrwt>
<rscale>  0 0.17103568E+04</rscale>
<asrwt>0</asrwt>
<pdfrwt beam="1">  1        2 0.52594020E+00 0.17103568E+04</pdfrwt>
<pdfrwt beam="2">  1       -2 0.32911703E-01 0.17103568E+04</pdfrwt>
<totfact> 0.76494281E+00</totfact>
</mgrwt>
</event>
<event>
12    1  0.2404191E-008  0.1148489E+04  0.7818608E-02  0.9159178E-01
          2   -1    0    0  501    0  0.00000000000E+00  0.00000000000E+00  0.15951449236E+04  0.15951449236E+04  0.00000000000E+00 0. -1.
         -2   -1    0    0    0  501 -0.00000000000E+00 -0.00000000000E+00 -0.20672537264E+03  0.20672537264E+03  0.00000000000E+00 0.  1.
         23    2    1    2    0    0 -0.83668283895E+02  0.85672100028E+01 -0.28720960907E+02  0.12983481076E+03  0.94648854569E+02 0.  0.
        254    2    1    2    0    0  0.83668283895E+02 -0.85672100028E+01  0.14171405119E+04  0.16720354855E+04  0.88336948981E+03 0.  0.
        -24    2    4    4    0    0  0.41878615703E+03 -0.22469123433E+03  0.73569606402E+03  0.87958200059E+03  0.80918483898E+02 0.  0.
         24    2    4    4    0    0 -0.33511787314E+03  0.21612402433E+03  0.68144444787E+03  0.79245348492E+03  0.67841045319E+02 0.  0.
         11    1    3    3    0    0 -0.32248685211E+02  0.58975856891E+01 -0.60867482670E+02  0.69134721099E+02  0.00000000000E+00 0.  1.
        -11    1    3    3    0    0 -0.51419598684E+02  0.26696243137E+01  0.32146521764E+02  0.60700089657E+02  0.00000000000E+00 0. -1.
          2    1    6    6  502    0 -0.28996891468E+03  0.17408795261E+03  0.61445826197E+03  0.70138972221E+03  0.00000000000E+00 0. -1.
          1    1    5    5  503    0  0.31574749972E+03 -0.19805494279E+03  0.52932427894E+03  0.64738430335E+03  0.00000000000E+00 0. -1.
         -2    1    5    5    0  503  0.10303865731E+03 -0.26636291544E+02  0.20637178507E+03  0.23219769724E+03  0.00000000000E+00 0.  1.
         -1    1    6    6    0  502 -0.45148958460E+02  0.42036071724E+02  0.66986185905E+02  0.91063762706E+02  0.00000000000E+00 0.  1.
<mgrwt>
<rscale>  0 0.11484893E+04</rscale>
<asrwt>0</asrwt>
<pdfrwt beam="1">  1        2 0.24540690E+00 0.11484893E+04</pdfrwt>
<pdfrwt beam="2">  1       -2 0.31803905E-01 0.11484893E+04</pdfrwt>
<totfact> 0.10204682E+02</totfact>
</mgrwt>
</event>
<event>
11    1  0.2404191E-008  0.1731441E+04  0.7818608E-02  0.8743633E-01
         -1   -1    0    0    0  501 -0.00000000000E+00  0.00000000000E+00  0.50172714622E+03  0.50172714622E+03  0.00000000000E+00 0.  1.
          1   -1    0    0  501    0  0.00000000000E+00 -0.00000000000E+00 -0.14937845750E+04  0.14937845750E+04  0.00000000000E+00 0. -1.
         23    2    1    2    0    0 -0.60644489489E+03 -0.14463934290E+03 -0.28907250984E+03  0.69567065760E+03  0.10816098117E+03 0.  0.
        254    2    1    2    0    0  0.60644489489E+03  0.14463934290E+03 -0.70298491899E+03  0.12998410637E+04  0.89816649036E+03 0.  0.
        -24    2    4    4    0    0  0.20699645318E+03  0.35421238968E+02  0.19544732102E+03  0.29741181652E+03  0.78434287864E+02 0.  0.
         13    1    3    3    0    0 -0.44999852835E+03 -0.58476255490E+02 -0.19648574284E+03  0.49449448441E+03  0.00000000000E+00 0.  1.
        -13    1    3    3    0    0 -0.15644636655E+03 -0.86163087414E+02 -0.92586766997E+02  0.20117617319E+03  0.00000000000E+00 0. -1.
          2    1    4    4  502    0  0.24696232112E+03  0.12198533061E+03 -0.69710358042E+03  0.74954933845E+03  0.00000000000E+00 0. -1.
          3    1    5    5  503    0  0.16153338221E+03 -0.41044312170E+01  0.12229896815E+03  0.20264974102E+03  0.00000000000E+00 0. -1.
         -4    1    5    5    0  503  0.45463070965E+02  0.39525670185E+02  0.73148352875E+02  0.94762075502E+02  0.00000000000E+00 0.  1.
         -1    1    4    4    0  502  0.15248612059E+03 -0.12767226675E+02 -0.20132865959E+03  0.25287990870E+03  0.00000000000E+00 0.  1.
<mgrwt>
<rscale>  0 0.17314413E+04</rscale>
<asrwt>0</asrwt>
<pdfrwt beam="1">  1        1 0.22981301E+00 0.17314413E+04</pdfrwt>
<pdfrwt beam="2">  1       -1 0.77188791E-01 0.17314413E+04</pdfrwt>
<totfact> 0.10552774E+01</totfact>
</mgrwt>
</event>
<event>
12    1  0.2404191E-008  0.1589288E+04  0.7818608E-02  0.8827156E-01
         -2   -1    0    0    0  501 -0.00000000000E+00  0.00000000000E+00  0.33903856471E+03  0.33903856471E+03  0.00000000000E+00 0.  1.
          2   -1    0    0  501    0  0.00000000000E+00 -0.00000000000E+00 -0.18624994630E+04  0.18624994630E+04  0.00000000000E+00 0. -1.
         23    2    1    2    0    0  0.23869478560E+03  0.34331577406E+03 -0.93606303407E+03  0.10288052671E+04  0.85938073918E+02 0.  0.
        254    2    1    2    0    0 -0.23869478560E+03 -0.34331577406E+03 -0.58739786426E+03  0.11727327606E+04  0.92489186151E+03 0.  0.
        -24    2    4    4    0    0 -0.46281431704E+03 -0.51800900741E+03 -0.50301928049E+03  0.86135585590E+03  0.79844161530E+02 0.  0.
         24    2    4    4    0    0  0.22411953143E+03  0.17469323335E+03 -0.84378583772E+02  0.31137690472E+03  0.95333841025E+02 0.  0.
         11    1    3    3    0    0  0.62586740990E+02  0.49019006317E+02 -0.12408246103E+03  0.14736492209E+03  0.00000000000E+00 0. -1.
        -11    1    3    3    0    0  0.17610804461E+03  0.29429676774E+03 -0.81198057305E+03  0.88144034505E+03  0.00000000000E+00 0.  1.
          2    1    6    6  502    0  0.21365164486E+03  0.12809097861E+03 -0.86142686049E+02  0.26358089178E+03  0.00000000000E+00 0. -1.
          3    1    5    5  503    0 -0.36177718409E+03 -0.35225296312E+03 -0.35517032256E+03  0.61734175217E+03  0.00000000000E+00 0. -1.
         -4    1    5    5    0  503 -0.10103713295E+03 -0.16575604429E+03 -0.14784895793E+03  0.24401410372E+03  0.00000000000E+00 0.  1.
         -1    1    6    6    0  502  0.10467886577E+02  0.46602254738E+02  0.17641022763E+01  0.47796012939E+02  0.00000000000E+00 0.  1.
<mgrwt>
<rscale>  0 0.15892881E+04</rscale>
<asrwt>0</asrwt>
<pdfrwt beam="1">  1        2 0.28653838E+00 0.15892881E+04</pdfrwt>
<pdfrwt beam="2">  1       -2 0.52159779E-01 0.15892881E+04</pdfrwt>
<totfact> 0.26528019E+01</totfact>
</mgrwt>
</event>
<event>
11    1  0.2404191E-008  0.2957005E+04  0.7818608E-02  0.8256116E-01
          1   -1    0    0  501    0  0.00000000000E+00  0.00000000000E+00  0.11007597987E+04  0.11007597987E+04  0.00000000000E+00 0. -1.
         -1   -1    0    0    0  501 -0.00000000000E+00 -0.00000000000E+00 -0.19858740998E+04  0.19858740998E+04  0.00000000000E+00 0.  1.
         23    2    1    2    0    0 -0.24310451749E+03 -0.35734916109E+03 -0.16923209735E+04  0.17490857468E+04  0.92479419198E+02 0.  0.
        254    2    1    2    0    0  0.24310451749E+03  0.35734916109E+03  0.80720667241E+03  0.13375481517E+04  0.97501498283E+03 0.  0.
        -24    2    4    4    0    0  0.12626352876E+02  0.57088264642E+03  0.17452657092E+03  0.60208916973E+03  0.77365519299E+02 0.  0.
         13    1    3    3    0    0 -0.66048926769E+01 -0.66491165978E+02 -0.27960819951E+03  0.28748120807E+03  0.00000000000E+00 0. -1.
        -13    1    3    3    0    0 -0.23649962481E+03 -0.29085799511E+03 -0.14127127740E+04  0.14616045387E+04  0.00000000000E+00 0.  1.
          2    1    4    4  502    0  0.97548995340E+02 -0.19712694098E+03  0.26641971803E+03  0.34547692182E+03  0.00000000000E+00 0. -1.
          1    1    5    5  503    0  0.57187575805E+01  0.31937073628E+02 -0.73001113479E+01  0.33256164630E+02  0.00000000000E+00 0. -1.
         -2    1    5    5    0  503  0.69075952954E+01  0.53894557279E+03  0.18182668227E+03  0.56883300510E+03  0.00000000000E+00 0.  1.
         -1    1    4    4    0  502  0.13292916927E+03 -0.16406544345E+02  0.36626038346E+03  0.38998206014E+03  0.00000000000E+00 0.  1.
<mgrwt>
<rscale>  0 0.29570055E+04</rscale>
<asrwt>0</asrwt>
<pdfrwt beam="1">  1        1 0.16934766E+00 0.29570055E+04</pdfrwt>
<pdfrwt beam="2">  1       -1 0.30551909E+00 0.29570055E+04</pdfrwt>
<totfact> 0.32886465E-01</totfact>
</mgrwt>
</event>
<event>
11    1  0.2404191E-008  0.2595739E+04  0.7818608E-02  0.8369650E-01
         -2   -1    0    0    0  501 -0.00000000000E+00  0.00000000000E+00  0.92320625380E+03  0.92320625380E+03  0.00000000000E+00 0.  1.
          2   -1    0    0  501    0  0.00000000000E+00 -0.00000000000E+00 -0.18245810708E+04  0.18245810708E+04  0.00000000000E+00 0. -1.
         23    2    1    2    0    0 -0.29717730057E+03 -0.71842663139E+03 -0.12734425958E+04  0.14952913390E+04  0.98939229807E+02 0.  0.
        254    2    1    2    0    0  0.29717730057E+03  0.71842663139E+03  0.37206777874E+03  0.12524959856E+04  0.90876872158E+03 0.  0.
        -24    2    4    4    0    0  0.27396499586E+03  0.18554934921E+03 -0.24924846332E+03  0.42334655562E+03  0.87247519976E+02 0.  0.
         13    1    3    3    0    0 -0.56406867500E+02 -0.72657063121E+02 -0.11403402162E+03  0.14650782098E+03  0.00000000000E+00 0.  1.
        -13    1    3    3    0    0 -0.24077043307E+03 -0.64576956826E+03 -0.11594085742E+04  0.13487835181E+04  0.00000000000E+00 0. -1.
          2    1    4    4  502    0 -0.40679145653E+02  0.22768259362E+03  0.20537939759E+03  0.30931351940E+03  0.00000000000E+00 0. -1.
          3    1    5    5  503    0  0.15225532378E+03  0.88383654106E+02 -0.80080397079E+02  0.19340688697E+03  0.00000000000E+00 0. -1.
         -4    1    5    5    0  503  0.12170967208E+03  0.97165695104E+02 -0.16916806624E+03  0.22993966865E+03  0.00000000000E+00 0.  1.
         -1    1    4    4    0  502  0.63891450371E+02  0.30519468855E+03  0.41593684446E+03  0.51983591058E+03  0.00000000000E+00 0.  1.
<mgrwt>
<rscale>  0 0.25957386E+04</rscale>
<asrwt>0</asrwt>
<pdfrwt beam="1">  1        2 0.28070478E+00 0.25957386E+04</pdfrwt>
<pdfrwt beam="2">  1       -2 0.14203173E+00 0.25957386E+04</pdfrwt>
<totfact> 0.25598612E+00</totfact>
</mgrwt>
</event>
<event>
12    1  0.2404191E-008  0.1756254E+04  0.7818608E-02  0.8729915E-01
          2   -1    0    0  501    0  0.00000000000E+00  0.00000000000E+00  0.54405761605E+03  0.54405761605E+03  0.00000000000E+00 0.  1.
         -2   -1    0    0    0  501 -0.00000000000E+00 -0.00000000000E+00 -0.14173264733E+04  0.14173264733E+04  0.00000000000E+00 0. -1.
         23    2    1    2    0    0 -0.25173441599E+02 -0.49997029577E+03  0.12686652408E+03  0.52445146839E+03  0.91379587173E+02 0.  0.
        254    2    1    2    0    0  0.25173441599E+02  0.49997029577E+03 -0.10001353813E+04  0.14369326210E+04  0.90216438492E+03 0.  0.
        -24    2    4    4    0    0 -0.40413501588E+03  0.38973052942E+03 -0.44256105039E+03  0.71850518126E+03  0.71933410580E+02 0.  0.
         24    2    4    4    0    0  0.42930845748E+03  0.11023976635E+03 -0.55757433094E+03  0.71842743972E+03  0.93756567058E+02 0.  0.
         13    1    3    3    0    0 -0.55587270259E+02 -0.36510367467E+03  0.75401338970E+02  0.37692970139E+03  0.00000000000E+00 0.  1.
        -13    1    3    3    0    0  0.30413828660E+02 -0.13486662110E+03  0.51465185105E+02  0.14752176700E+03  0.00000000000E+00 0. -1.
          2    1    6    6  502    0  0.10290396997E+03  0.58753927867E+02 -0.19220421058E+03  0.22579572547E+03  0.00000000000E+00 0. -1.
          3    1    5    5  503    0 -0.97368060773E+02  0.60955862909E+02 -0.69740364609E+02  0.13438703411E+03  0.00000000000E+00 0. -1.
         -4    1    5    5    0  503 -0.30676695510E+03  0.32877466651E+03 -0.37282068578E+03  0.58411814715E+03  0.00000000000E+00 0.  1.
         -1    1    6    6    0  502  0.32640448751E+03  0.51485838483E+02 -0.36537012036E+03  0.49263171425E+03  0.00000000000E+00 0.  1.
<mgrwt>
<rscale>  0 0.17562543E+04</rscale>
<asrwt>0</asrwt>
<pdfrwt beam="1">  1        2 0.83701171E-01 0.17562543E+04</pdfrwt>
<pdfrwt beam="2">  1       -2 0.21805023E+00 0.17562543E+04</pdfrwt>
<totfact> 0.53685428E+00</totfact>
</mgrwt>
</event>
<event>
12    1  0.2404191E-008  0.2234708E+04  0.7818608E-02  0.8504119E-01
          3   -1    0    0  501    0  0.00000000000E+00  0.00000000000E+00  0.10224357281E+04  0.10224357281E+04  0.00000000000E+00 0. -1.
         -3   -1    0    0    0  501 -0.00000000000E+00 -0.00000000000E+00 -0.12210841133E+04  0.12210841133E+04  0.00000000000E+00 0.  1.
         23    2    1    2    0    0  0.95433588115E+02  0.66950770530E+03 -0.72909458122E+03  0.99722992970E+03  0.74434448617E+02 0.  0.
        254    2    1    2    0    0 -0.95433588115E+02 -0.66950770530E+03  0.53044619600E+03  0.12462899117E+04  0.90250608856E+03 0.  0.
        -24    2    4    4    0    0 -0.44401918069E+02  0.11925952050E+03  0.41936336735E+03  0.44548473670E+03  0.79979079748E+02 0.  0.
         24    2    4    4    0    0 -0.51031670046E+02 -0.78876722580E+03  0.11108282865E+03  0.80080517497E+03  0.64742301483E+02 0.  0.
         11    1    3    3    0    0  0.36717298070E+02  0.28385108128E+03 -0.36285153562E+03  0.46214806418E+03  0.00000000000E+00 0.  1.
        -11    1    3    3    0    0  0.58716290044E+02  0.38565662402E+03 -0.36624304560E+03  0.53508186553E+03  0.00000000000E+00 0. -1.
          4    1    6    6  502    0 -0.10186531462E+02 -0.14181129194E+03  0.45363963483E+02  0.14923839026E+03  0.00000000000E+00 0. -1.
          1    1    5    5  503    0 -0.39671784580E+02  0.20204155986E+02  0.75921231223E+02  0.88011884204E+02  0.00000000000E+00 0. -1.
         -2    1    5    5    0  503 -0.47301334892E+01  0.99055364514E+02  0.34344213613E+03  0.35747285249E+03  0.00000000000E+00 0.  1.
         -3    1    6    6    0  502 -0.40845138584E+02 -0.64695593386E+03  0.65718865166E+02  0.65156678471E+03  0.00000000000E+00 0.  1.
<mgrwt>
<rscale>  0 0.22347081E+04</rscale>
<asrwt>0</asrwt>
<pdfrwt beam="1">  1        3 0.15729781E+00 0.22347081E+04</pdfrwt>
<pdfrwt beam="2">  1       -3 0.18785909E+00 0.22347081E+04</pdfrwt>
<totfact> 0.11915408E-01</totfact>
</mgrwt>
</event>
<event>
11    1  0.2404191E-008  0.1802802E+04  0.7818608E-02  0.8704811E-01
          1   -1    0    0  501    0  0.00000000000E+00  0.00000000000E+00  0.80144343458E+03  0.80144343458E+03  0.00000000000E+00 0. -1.
         -1   -1    0    0    0  501 -0.00000000000E+00 -0.00000000000E+00 -0.10138259036E+04  0.10138259036E+04  0.00000000000E+00 0.  1.
         23    2    1    2    0    0 -0.62045045606E+03  0.18283806466E+03 -0.26466981194E+03  0.70488001703E+03  0.91745314570E+02 0.  0.
        254    2    1    2    0    0  0.62045045606E+03 -0.18283806466E+03  0.52287342881E+02  0.11103893212E+04  0.90102272562E+03 0.  0.
        -24    2    4    4    0    0  0.27630564522E+03 -0.46178352476E+03 -0.15238491144E+03  0.56461325438E+03  0.77318383752E+02 0.  0.
         11    1    3    3    0    0 -0.76537065046E+02  0.26766720558E+02 -0.67976029537E+02  0.10580699526E+03  0.00000000000E+00 0. -1.
        -11    1    3    3    0    0 -0.54391339101E+03  0.15607134410E+03 -0.19669378240E+03  0.59907302176E+03  0.00000000000E+00 0.  1.
          4    1    4    4  502    0  0.36233971131E+03  0.18388385941E+03  0.18739149887E+03  0.44745828185E+03  0.00000000000E+00 0. -1.
          1    1    5    5  503    0  0.23085392598E+03 -0.40448971212E+03 -0.15661217853E+03  0.49135815534E+03  0.00000000000E+00 0. -1.
         -2    1    5    5    0  503  0.45451719235E+02 -0.57293812647E+02  0.42272670943E+01  0.73255099045E+02  0.00000000000E+00 0.  1.
         -3    1    4    4    0  502 -0.18194900477E+02  0.95061600696E+02  0.17280755447E+02  0.98317784958E+02  0.00000000000E+00 0.  1.
<mgrwt>
<rscale>  0 0.18028024E+04</rscale>
<asrwt>0</asrwt>
<pdfrwt beam="1">  1        1 0.12329899E+00 0.18028024E+04</pdfrwt>
<pdfrwt beam="2">  1       -1 0.15597322E+00 0.18028024E+04</pdfrwt>
<totfact> 0.65238453E+00</totfact>
</mgrwt>
</event>
<event>
11    1  0.2404191E-008  0.2569476E+04  0.7818608E-02  0.8378644E-01
          4   -1    0    0  501    0  0.00000000000E+00  0.00000000000E+00  0.22957792474E+04  0.22957792474E+04  0.00000000000E+00 0. -1.
         -4   -1    0    0    0  501 -0.00000000000E+00 -0.00000000000E+00 -0.71895051233E+03  0.71895051233E+03  0.00000000000E+00 0.  1.
         23    2    1    2    0    0  0.18559811254E+03  0.46583405343E+03  0.18745646165E+04  0.19430888106E+04  0.10076507151E+03 0.  0.
        254    2    1    2    0    0 -0.18559811254E+03 -0.46583405343E+03 -0.29773588145E+03  0.10716409491E+04  0.89906598426E+03 0.  0.
        -24    2    4    4    0    0 -0.41413962177E+03  0.14479230567E+02 -0.12547738207E+03  0.44025769366E+03  0.79755808405E+02 0.  0.
         13    1    3    3    0    0 -0.53559624555E+01  0.83105619397E+02  0.27582079403E+03  0.28811862267E+03  0.00000000000E+00 0.  1.
        -13    1    3    3    0    0  0.19095407500E+03  0.38272843403E+03  0.15987438225E+04  0.16549701879E+04  0.00000000000E+00 0. -1.
          2    1    4    4  502    0  0.14649001504E+03 -0.50026880620E+03 -0.13143823276E+03  0.53759111972E+03  0.00000000000E+00 0. -1.
          1    1    5    5  503    0 -0.31969509926E+03  0.24473749084E+02 -0.12804094589E+03  0.34525121971E+03  0.00000000000E+00 0. -1.
         -2    1    5    5    0  503 -0.94444522514E+02 -0.99945185169E+01  0.25635638216E+01  0.95006473952E+02  0.00000000000E+00 0.  1.
         -1    1    4    4    0  502  0.82051494188E+02  0.19955522206E+02 -0.40820266619E+02  0.93792135768E+02  0.00000000000E+00 0.  1.
<mgrwt>
<rscale>  0 0.25694760E+04</rscale>
<asrwt>0</asrwt>
<pdfrwt beam="1">  1        4 0.35319680E+00 0.25694760E+04</pdfrwt>
<pdfrwt beam="2">  1       -4 0.11060777E+00 0.25694760E+04</pdfrwt>
<totfact> 0.16168561E-02</totfact>
</mgrwt>
</event>
<event>
12    1  0.2404191E-008  0.1293993E+04  0.7818608E-02  0.9034343E-01
         -2   -1    0    0    0  501 -0.00000000000E+00  0.00000000000E+00  0.30392769294E+03  0.30392769294E+03  0.00000000000E+00 0.  1.
          2   -1    0    0  501    0  0.00000000000E+00 -0.00000000000E+00 -0.13773154069E+04  0.13773154069E+04  0.00000000000E+00 0. -1.
         23    2    1    2    0    0  0.22569764287E+03  0.10816395559E+03 -0.53499353696E+01  0.26716232366E+03  0.93317833706E+02 0.  0.
        254    2    1    2    0    0 -0.22569764287E+03 -0.10816395559E+03 -0.10680377786E+04  0.14140807762E+04  0.89234571652E+03 0.  0.
        -24    2    4    4    0    0  0.30820290416E+03 -0.54014926203E+02 -0.16538293436E+03  0.36278943373E+03  0.79737167382E+02 0.  0.
         24    2    4    4    0    0 -0.53390054704E+03 -0.54149029386E+02 -0.90265484427E+03  0.10512913425E+04  0.49455104835E+02 0.  0.
         13    1    3    3    0    0  0.11571634399E+03  0.19088886438E+02 -0.35344815638E+02  0.12249046430E+03  0.00000000000E+00 0.  1.
        -13    1    3    3    0    0  0.10998129888E+03  0.89075069152E+02  0.29994880269E+02  0.14467185936E+03  0.00000000000E+00 0. -1.
          4    1    6    6  502    0 -0.21162564987E+03 -0.33920327702E+02 -0.32008362258E+03  0.38521361575E+03  0.00000000000E+00 0. -1.
          1    1    5    5  503    0  0.51861143230E+02  0.61333301721E+01 -0.70159385689E+00  0.52227274006E+02  0.00000000000E+00 0. -1.
         -2    1    5    5    0  503  0.25634176093E+03 -0.60148256375E+02 -0.16468134051E+03  0.31056215973E+03  0.00000000000E+00 0.  1.
         -3    1    6    6    0  502 -0.32227489717E+03 -0.20228701685E+02 -0.58257122169E+03  0.66607772674E+03  0.00000000000E+00 0.  1.
<mgrwt>
<rscale>  0 0.12939927E+04</rscale>
<asrwt>0</asrwt>
<pdfrwt beam="1">  1        2 0.21189468E+00 0.12939927E+04</pdfrwt>
<pdfrwt beam="2">  1       -2 0.46758107E-01 0.12939927E+04</pdfrwt>
<totfact> 0.63375857E+01</totfact>
</mgrwt>
</event>
<event>
11    1  0.2404191E-008  0.2272155E+04  0.7818608E-02  0.8488981E-01
         -2   -1    0    0    0  501 -0.00000000000E+00  0.00000000000E+00  0.57662454173E+03  0.57662454173E+03  0.00000000000E+00 0.  1.
          2   -1    0    0  501    0  0.00000000000E+00 -0.00000000000E+00 -0.22383240926E+04  0.22383240926E+04  0.00000000000E+00 0. -1.
         23    2    1    2    0    0  0.66263022475E+03  0.36776380105E+03 -0.14291488143E+04  0.16201825996E+04  0.90533389284E+02 0.  0.
        254    2    1    2    0    0 -0.66263022475E+03 -0.36776380105E+03 -0.23255073663E+03  0.11947660348E+04  0.89389988512E+03 0.  0.
        -24    2    4    4    0    0 -0.50113466310E+03 -0.15407829690E+03 -0.55038575905E+03  0.76380864136E+03  0.74853755531E+02 0.  0.
         13    1    3    3    0    0  0.10008423834E+03  0.72607739796E+02 -0.30206537452E+03  0.32639275287E+03  0.00000000000E+00 0.  1.
        -13    1    3    3    0    0  0.56254598640E+03  0.29515606125E+03 -0.11270834397E+04  0.12937898467E+04  0.00000000000E+00 0. -1.
          2    1    4    4  502    0 -0.32661624378E+02  0.75050567042E+01  0.52429313859E+02  0.62224918922E+02  0.00000000000E+00 0. -1.
          1    1    5    5  503    0 -0.10647999470E+03 -0.58437097542E+02 -0.15627653605E+03  0.19792735880E+03  0.00000000000E+00 0. -1.
         -2    1    5    5    0  503 -0.39465466839E+03 -0.95641199360E+02 -0.39410922300E+03  0.56588128256E+03  0.00000000000E+00 0.  1.
         -1    1    4    4    0  502 -0.12883393727E+03 -0.22119056085E+03  0.26540570857E+03  0.36873247449E+03  0.00000000000E+00 0.  1.
<mgrwt>
<rscale>  0 0.22721555E+04</rscale>
<asrwt>0</asrwt>
<pdfrwt beam="1">  1        2 0.34435755E+00 0.22721555E+04</pdfrwt>
<pdfrwt beam="2">  1       -2 0.88711469E-01 0.22721555E+04</pdfrwt>
<totfact> 0.48769991E+00</totfact>
</mgrwt>
</event>
<event>
11    1  0.2404191E-008  0.1612722E+04  0.7818608E-02  0.8812770E-01
          2   -1    0    0  501    0  0.00000000000E+00  0.00000000000E+00  0.10103948693E+04  0.10103948693E+04  0.00000000000E+00 0. -1.
         -2   -1    0    0    0  501 -0.00000000000E+00 -0.00000000000E+00 -0.64352850244E+03  0.64352850244E+03  0.00000000000E+00 0.  1.
         23    2    1    2    0    0 -0.28962545430E+03 -0.31042647486E+03 -0.22757135375E+03  0.49022549489E+03  0.91020957552E+02 0.  0.
        254    2    1    2    0    0  0.28962545430E+03  0.31042647486E+03  0.59443772067E+03  0.11636978769E+04  0.90586370104E+03 0.  0.
        -24    2    4    4    0    0  0.33458342801E+03 -0.14334523638E+03  0.56425413310E+03  0.67637407080E+03  0.81272565122E+02 0.  0.
         11    1    3    3    0    0 -0.71193873336E+02 -0.27390025300E+02 -0.32137196562E+02  0.82774274321E+02  0.00000000000E+00 0. -1.
        -11    1    3    3    0    0 -0.21843158096E+03 -0.28303644956E+03 -0.19543415719E+03  0.40745122057E+03  0.00000000000E+00 0.  1.
          4    1    4    4  502    0  0.51171253122E+02  0.11929757355E+03 -0.32246559822E+02  0.13375443478E+03  0.00000000000E+00 0. -1.
          3    1    5    5  503    0  0.30323232670E+02  0.64589629045E+01  0.27423335518E+02  0.41391496376E+02  0.00000000000E+00 0. -1.
         -4    1    5    5    0  503  0.30426019534E+03 -0.14980419929E+03  0.53683079758E+03  0.63498257442E+03  0.00000000000E+00 0.  1.
         -3    1    4    4    0  502 -0.96129226829E+02  0.33447413769E+03  0.62430147395E+02  0.35356937132E+03  0.00000000000E+00 0.  1.
<mgrwt>
<rscale>  0 0.16127218E+04</rscale>
<asrwt>0</asrwt>
<pdfrwt beam="1">  1        2 0.15544536E+00 0.16127218E+04</pdfrwt>
<pdfrwt beam="2">  1       -2 0.99004385E-01 0.16127218E+04</pdfrwt>
<totfact> 0.20102263E+01</totfact>
</mgrwt>
</event>
<event>
11    1  0.2404191E-008  0.1154959E+04  0.7818608E-02  0.9153220E-01
         -1   -1    0    0    0  501 -0.00000000000E+00  0.00000000000E+00  0.10994279318E+03  0.10994279318E+03  0.00000000000E+00 0.  1.
          1   -1    0    0  501    0  0.00000000000E+00 -0.00000000000E+00 -0.30332390320E+04  0.30332390320E+04  0.00000000000E+00 0. -1.
         23    2    1    2    0    0 -0.13661669462E+03  0.96940695256E+02 -0.94100633497E+03  0.96108529886E+03  0.10064993582E+03 0.  0.
        254    2    1    2    0    0  0.13661669462E+03 -0.96940695256E+02 -0.19822899038E+04  0.21820965263E+04  0.89666625211E+03 0.  0.
        -24    2    4    4    0    0  0.43864316875E+03 -0.23779750365E+03 -0.79866614703E+03  0.94499824025E+03  0.78731044817E+02 0.  0.
         13    1    3    3    0    0 -0.70689098973E+02  0.94242992817E+02 -0.74534489958E+03  0.75459771385E+03  0.00000000000E+00 0. -1.
        -13    1    3    3    0    0 -0.65927595643E+02  0.26977024383E+01 -0.19566143539E+03  0.20648758501E+03  0.00000000000E+00 0.  1.
          2    1    4    4  502    0 -0.26815494585E+03  0.15230904841E+03 -0.90306091643E+03  0.95426628359E+03  0.00000000000E+00 0. -1.
          3    1    5    5  503    0  0.33843553358E+03 -0.20336767073E+03 -0.67640718891E+03  0.78321370333E+03  0.00000000000E+00 0. -1.
         -4    1    5    5    0  503  0.10020763517E+03 -0.34429832923E+02 -0.12225895813E+03  0.16178453691E+03  0.00000000000E+00 0.  1.
         -1    1    4    4    0  502 -0.33871528292E+02 -0.11452240016E+02 -0.28056284035E+03  0.28283200246E+03  0.00000000000E+00 0.  1.
<mgrwt>
<rscale>  0 0.11549593E+04</rscale>
<asrwt>0</asrwt>
<pdfrwt beam="1">  1        1 0.46665214E+00 0.11549593E+04</pdfrwt>
<pdfrwt beam="2">  1       -1 0.16914277E-01 0.11549593E+04</pdfrwt>
<totfact> 0.15400574E+01</totfact>
</mgrwt>
</event>
<event>
12    1  0.2404191E-008  0.2941795E+04  0.7818608E-02  0.8260550E-01
          2   -1    0    0  501    0  0.00000000000E+00  0.00000000000E+00  0.32965276296E+04  0.32965276296E+04  0.00000000000E+00 0.  1.
         -2   -1    0    0    0  501 -0.00000000000E+00 -0.00000000000E+00 -0.65630865097E+03  0.65630865097E+03  0.00000000000E+00 0. -1.
         23    2    1    2    0    0 -0.92845471725E+03 -0.50765155164E+02 -0.81976430693E+02  0.93855911490E+03  0.97815203435E+02 0.  0.
        254    2    1    2    0    0  0.92845471725E+03  0.50765155164E+02  0.27221954093E+04  0.30142771657E+04  0.90050748025E+03 0.  0.
        -24    2    4    4    0    0  0.99872973512E+03 -0.10091944330E+03  0.17164367392E+04  0.19900717188E+04  0.81145229456E+02 0.  0.
         24    2    4    4    0    0 -0.70275017869E+02  0.15168459846E+03  0.10057586702E+04  0.10242054469E+04  0.97465375481E+02 0.  0.
         13    1    3    3    0    0 -0.84772860933E+03 -0.21894694331E+02 -0.88281899172E+02  0.85259419799E+03  0.00000000000E+00 0. -1.
        -13    1    3    3    0    0 -0.80726107916E+02 -0.28870460832E+02  0.63054684791E+01  0.85964916918E+02  0.00000000000E+00 0.  1.
          4    1    6    6  502    0 -0.58549603188E+02  0.16345688299E+03  0.84923343571E+03  0.86680080581E+03  0.00000000000E+00 0. -1.
          3    1    5    5  503    0  0.78241647387E+03 -0.10529403260E+03  0.13869610858E+04  0.15959083386E+04  0.00000000000E+00 0. -1.
         -4    1    5    5    0  503  0.21631326124E+03  0.43745893057E+01  0.32947565342E+03  0.39416338011E+03  0.00000000000E+00 0.  1.
         -3    1    6    6    0  502 -0.11725414680E+02 -0.11772284530E+02  0.15652523444E+03  0.15740464113E+03  0.00000000000E+00 0.  1.
<mgrwt>
<rscale>  0 0.29417951E+04</rscale>
<asrwt>0</asrwt>
<pdfrwt beam="1">  1        2 0.50715809E+00 0.29417951E+04</pdfrwt>
<pdfrwt beam="2">  1       -2 0.10097056E+00 0.29417951E+04</pdfrwt>
<totfact> 0.77700887E-01</totfact>
</mgrwt>
</event>
<event>
11    1  0.2404191E-008  0.2248690E+04  0.7818608E-02  0.8498431E-01
         -2   -1    0    0    0  501 -0.00000000000E+00  0.00000000000E+00  0.14516885233E+04  0.14516885233E+04  0.00000000000E+00 0.  1.
          2   -1    0    0  501    0  0.00000000000E+00 -0.00000000000E+00 -0.87081464614E+03  0.87081464614E+03  0.00000000000E+00 0. -1.
         23    2    1    2    0    0  0.21177428583E+03  0.69368980527E+03  0.86421259382E+03  0.11317882386E+04  0.89595287935E+02 0.  0.
        254    2    1    2    0    0 -0.21177428583E+03 -0.69368980527E+03 -0.28333871670E+03  0.11907149308E+04  0.90081481115E+03 0.  0.
        -24    2    4    4    0    0  0.22133800438E+02  0.20431694027E+03 -0.69449981975E+02  0.23064238428E+03  0.78340872008E+02 0.  0.
         13    1    3    3    0    0  0.12600505980E+03  0.36196164195E+03  0.39061563964E+03  0.54724225282E+03  0.00000000000E+00 0. -1.
        -13    1    3    3    0    0  0.85769226033E+02  0.33172816331E+03  0.47359695418E+03  0.58454598577E+03  0.00000000000E+00 0.  1.
          4    1    4    4  502    0 -0.10164009329E+03 -0.19575882638E+03 -0.33946182107E+02  0.22316937503E+03  0.00000000000E+00 0. -1.
          3    1    5    5  503    0  0.50626474816E+02  0.13674409956E+03 -0.55338993772E+02  0.15596279348E+03  0.00000000000E+00 0. -1.
         -4    1    5    5    0  503 -0.28492674378E+02  0.67572840704E+02 -0.14110988203E+02  0.74679590800E+02  0.00000000000E+00 0.  1.
         -3    1    4    4    0  502 -0.13226799298E+03 -0.70224791915E+03 -0.17994255262E+03  0.73690317150E+03  0.00000000000E+00 0.  1.
<mgrwt>
<rscale>  0 0.22486900E+04</rscale>
<asrwt>0</asrwt>
<pdfrwt beam="1">  1        2 0.13397148E+00 0.22486900E+04</pdfrwt>
<pdfrwt beam="2">  1       -2 0.22333670E+00 0.22486900E+04</pdfrwt>
<totfact> 0.26305787E+00</totfact>
</mgrwt>
</event>
<event>
12    1  0.2404191E-008  0.1686685E+04  0.7818608E-02  0.8768995E-01
         -1   -1    0    0    0  501 -0.00000000000E+00  0.00000000000E+00  0.16438277738E+04  0.16438277738E+04  0.00000000000E+00 0.  1.
          1   -1    0    0  501    0  0.00000000000E+00 -0.00000000000E+00 -0.43266497835E+03  0.43266497835E+03  0.00000000000E+00 0. -1.
         23    2    1    2    0    0  0.49253513164E+03 -0.26082203164E+02  0.26047424992E+02  0.50239616815E+03  0.91936413883E+02 0.  0.
        254    2    1    2    0    0 -0.49253513164E+03  0.26082203164E+02  0.11851153705E+04  0.15740965840E+04  0.91104910806E+03 0.  0.
        -24    2    4    4    0    0  0.89098023395E+02 -0.28900272562E+03  0.63884367551E+03  0.71105118658E+03  0.77533960358E+02 0.  0.
         24    2    4    4    0    0 -0.58163315504E+03  0.31508492879E+03  0.54627169497E+03  0.86304539746E+03  0.94122016301E+02 0.  0.
         11    1    3    3    0    0  0.59597587408E+02 -0.84809574723E+01 -0.26792272893E+02  0.65891008121E+02  0.00000000000E+00 0.  1.
        -11    1    3    3    0    0  0.43293754423E+03 -0.17601245692E+02  0.52839697885E+02  0.43650516003E+03  0.00000000000E+00 0. -1.
          4    1    6    6  502    0 -0.32827835268E+02 -0.29121175051E+00  0.12743035391E+02  0.35215572175E+02  0.00000000000E+00 0. -1.
          1    1    5    5  503    0  0.86085064221E+01 -0.71578572139E+02  0.90479238896E+02  0.11568963239E+03  0.00000000000E+00 0. -1.
         -2    1    5    5    0  503  0.80489516973E+02 -0.21742415348E+03  0.54836443662E+03  0.59536155419E+03  0.00000000000E+00 0.  1.
         -3    1    6    6    0  502 -0.54880531977E+03  0.31537614054E+03  0.53352865958E+03  0.82782982528E+03  0.00000000000E+00 0.  1.
<mgrwt>
<rscale>  0 0.16866852E+04</rscale>
<asrwt>0</asrwt>
<pdfrwt beam="1">  1        1 0.66563844E-01 0.16866852E+04</pdfrwt>
<pdfrwt beam="2">  1       -1 0.25289658E+00 0.16866852E+04</pdfrwt>
<totfact> 0.34347435E+00</totfact>
</mgrwt>
</event>
<event>
12    1  0.2404191E-008  0.1305596E+04  0.7818608E-02  0.9025139E-01
         -2   -1    0    0    0  501 -0.00000000000E+00  0.00000000000E+00  0.66804016031E+03  0.66804016031E+03  0.00000000000E+00 0. -1.
          2   -1    0    0  501    0  0.00000000000E+00 -0.00000000000E+00 -0.63790389669E+03  0.63790389669E+03  0.00000000000E+00 0.  1.
         23    2    1    2    0    0  0.68360816907E+02  0.40138890018E+02 -0.30832014779E+03  0.33083573236E+03  0.90036861879E+02 0.  0.
        254    2    1    2    0    0 -0.68360816907E+02 -0.40138890018E+02  0.33845641141E+03  0.97510832464E+03  0.91104290270E+03 0.  0.
        -24    2    4    4    0    0  0.36651683136E+03 -0.22431074705E+03  0.14005863536E+03  0.45894754793E+03  0.79790547695E+02 0.  0.
         24    2    4    4    0    0 -0.43487764827E+03  0.18417185703E+03  0.19839777605E+03  0.51616077670E+03  0.63422614061E+02 0.  0.
         11    1    3    3    0    0  0.73253724334E+02  0.30970492984E+02 -0.13128644069E+03  0.15349726080E+03  0.00000000000E+00 0. -1.
        -11    1    3    3    0    0 -0.48929074276E+01  0.91683970345E+01 -0.17703370710E+03  0.17733847156E+03  0.00000000000E+00 0.  1.
          4    1    6    6  502    0 -0.74650390177E+01 -0.49769757843E+01  0.55037648351E+01  0.10525612707E+02  0.00000000000E+00 0. -1.
          3    1    5    5  503    0  0.75826080827E+02 -0.80183140288E+02  0.56112936735E+02  0.12380465334E+03  0.00000000000E+00 0. -1.
         -4    1    5    5    0  503  0.29069075054E+03 -0.14412760676E+03  0.83945698623E+02  0.33514289459E+03  0.00000000000E+00 0.  1.
         -3    1    6    6    0  502 -0.42741260925E+03  0.18914883282E+03  0.19289401122E+03  0.50563516399E+03  0.00000000000E+00 0.  1.
<mgrwt>
<rscale>  0 0.13055963E+04</rscale>
<asrwt>0</asrwt>
<pdfrwt beam="1">  1        2 0.98139060E-01 0.13055963E+04</pdfrwt>
<pdfrwt beam="2">  1       -2 0.10277541E+00 0.13055963E+04</pdfrwt>
<totfact> 0.34896860E+01</totfact>
</mgrwt>
</event>
<event>
12    1  0.2404191E-008  0.1761609E+04  0.7818608E-02  0.8726986E-01
          2   -1    0    0  501    0  0.00000000000E+00  0.00000000000E+00  0.49370487983E+03  0.49370487983E+03  0.00000000000E+00 0. -1.
         -2   -1    0    0    0  501 -0.00000000000E+00 -0.00000000000E+00 -0.15714172509E+04  0.15714172509E+04  0.00000000000E+00 0.  1.
         23    2    1    2    0    0 -0.42328159083E+03 -0.23509307912E+03 -0.89182308566E+03  0.10187946183E+04  0.90321631730E+02 0.  0.
        254    2    1    2    0    0  0.42328159083E+03  0.23509307912E+03 -0.18588928545E+03  0.10463275125E+04  0.90874109400E+03 0.  0.
        -24    2    4    4    0    0  0.19495244123E+03  0.49477459897E+02 -0.53986025540E+03  0.58173688292E+03  0.80710793630E+02 0.  0.
         24    2    4    4    0    0  0.22832914960E+03  0.18561561923E+03  0.35397096995E+03  0.46459062955E+03  0.62941614527E+02 0.  0.
         13    1    3    3    0    0 -0.17513942086E+02  0.52936006526E+01 -0.17182119704E+02  0.25099514194E+02  0.00000000000E+00 0. -1.
        -13    1    3    3    0    0 -0.40576764874E+03 -0.24038667978E+03 -0.87464096595E+03  0.99369510409E+03  0.00000000000E+00 0.  1.
          2    1    6    6  502    0  0.19657747725E+03  0.17229907246E+03  0.33613933370E+03  0.42581607132E+03  0.00000000000E+00 0. -1.
          1    1    5    5  503    0  0.15381593645E+03  0.89249118926E+01 -0.33217806484E+03  0.36617108449E+03  0.00000000000E+00 0. -1.
         -2    1    5    5    0  503  0.41136504784E+02  0.40552548005E+02 -0.20768219057E+03  0.21556579843E+03  0.00000000000E+00 0.  1.
         -3    1    6    6    0  502  0.31751672346E+02  0.13316546764E+02  0.17831636254E+02  0.38774558231E+02  0.00000000000E+00 0.  1.
<mgrwt>
<rscale>  0 0.17616088E+04</rscale>
<asrwt>0</asrwt>
<pdfrwt beam="1">  1        2 0.75954599E-01 0.17616088E+04</pdfrwt>
<pdfrwt beam="2">  1       -2 0.24175649E+00 0.17616088E+04</pdfrwt>
<totfact> 0.42742457E+00</totfact>
</mgrwt>
</event>
<event>
11    1  0.2404191E-008  0.2433745E+04  0.7818608E-02  0.8426977E-01
          1   -1    0    0  501    0  0.00000000000E+00  0.00000000000E+00  0.52983377945E+03  0.52983377945E+03  0.00000000000E+00 0. -1.
         -1   -1    0    0    0  501 -0.00000000000E+00 -0.00000000000E+00 -0.27947981889E+04  0.27947981889E+04  0.00000000000E+00 0.  1.
         23    2    1    2    0    0 -0.49206078243E+03  0.91257981873E+03 -0.75793027833E+03  0.12874549388E+04  0.90311535864E+02 0.  0.
        254    2    1    2    0    0  0.49206078243E+03 -0.91257981873E+03 -0.15070341312E+04  0.20371770296E+04  0.89666751817E+03 0.  0.
        -24    2    4    4    0    0 -0.13527758553E+03 -0.28168822628E+03 -0.11723263712E+03  0.34291122184E+03  0.78716789109E+02 0.  0.
         13    1    3    3    0    0 -0.93238951485E+02  0.11862359130E+03 -0.87718791334E+02  0.17452691724E+03  0.00000000000E+00 0. -1.
        -13    1    3    3    0    0 -0.39882183095E+03  0.79395622743E+03 -0.67021148699E+03  0.11129280216E+04  0.00000000000E+00 0.  1.
          4    1    4    4  502    0  0.35451736661E+03 -0.20708706624E+03 -0.91023363349E+03  0.99854538393E+03  0.00000000000E+00 0. -1.
          1    1    5    5  503    0 -0.11367244989E+03 -0.27785291030E+03 -0.11137377481E+03  0.32019959922E+03  0.00000000000E+00 0. -1.
         -2    1    5    5    0  503 -0.21605135636E+02 -0.38353159826E+01 -0.58588623098E+01  0.22711622621E+02  0.00000000000E+00 0.  1.
         -3    1    4    4    0  502  0.27282100135E+03 -0.42380452621E+03 -0.47956786057E+03  0.69572042381E+03  0.00000000000E+00 0.  1.
<mgrwt>
<rscale>  0 0.24337448E+04</rscale>
<asrwt>0</asrwt>
<pdfrwt beam="1">  1        1 0.81512891E-01 0.24337448E+04</pdfrwt>
<pdfrwt beam="2">  1       -1 0.42996894E+00 0.24337448E+04</pdfrwt>
<totfact> 0.16253388E-01</totfact>
</mgrwt>
</event>
<event>
12    1  0.2404191E-008  0.1889067E+04  0.7818608E-02  0.8660318E-01
          2   -1    0    0  501    0  0.00000000000E+00  0.00000000000E+00  0.53050240747E+03  0.53050240747E+03  0.00000000000E+00 0. -1.
         -2   -1    0    0    0  501 -0.00000000000E+00 -0.00000000000E+00 -0.16816950718E+04  0.16816950718E+04  0.00000000000E+00 0.  1.
         23    2    1    2    0    0  0.17616412943E+03  0.57783222608E+02 -0.12673319162E+04  0.12840946336E+04  0.91630458145E+02 0.  0.
        254    2    1    2    0    0 -0.17616412943E+03 -0.57783222608E+02  0.11613925186E+03  0.92810284571E+03  0.90195003469E+03 0.  0.
        -24    2    4    4    0    0 -0.16922249302E+03  0.11399461170E+03  0.47506332721E+03  0.52414534193E+03  0.86093849718E+02 0.  0.
         24    2    4    4    0    0 -0.69416364141E+01 -0.17177783431E+03 -0.35892407536E+03  0.40395750378E+03  0.69277430029E+02 0.  0.
         11    1    3    3    0    0  0.10517504658E+03  0.74433808126E+02 -0.66522616945E+03  0.67758987503E+03  0.00000000000E+00 0. -1.
        -11    1    3    3    0    0  0.70989082858E+02 -0.16650585519E+02 -0.60210574676E+03  0.60650475857E+03  0.00000000000E+00 0.  1.
          4    1    6    6  502    0 -0.60721578337E+01 -0.87092480686E+02 -0.25709025928E+03  0.27150943392E+03  0.00000000000E+00 0. -1.
          1    1    5    5  503    0 -0.14098995515E+03  0.47106699509E+02  0.32957562720E+03  0.36154847896E+03  0.00000000000E+00 0. -1.
         -4    1    5    5    0  503 -0.28232537868E+02  0.66887912195E+02  0.14548770001E+03  0.16259686297E+03  0.00000000000E+00 0.  1.
         -3    1    6    6    0  502 -0.86947858037E+00 -0.84685353625E+02 -0.10183381608E+03  0.13244806986E+03  0.00000000000E+00 0.  1.
<mgrwt>
<rscale>  0 0.18890667E+04</rscale>
<asrwt>0</asrwt>
<pdfrwt beam="1">  1        2 0.81615756E-01 0.18890667E+04</pdfrwt>
<pdfrwt beam="2">  1       -2 0.25872232E+00 0.18890667E+04</pdfrwt>
<totfact> 0.30595617E+00</totfact>
</mgrwt>
</event>
<event>
11    1  0.2404191E-008  0.1238628E+04  0.7818608E-02  0.9079702E-01
         -2   -1    0    0    0  501 -0.00000000000E+00  0.00000000000E+00  0.22577590561E+03  0.22577590561E+03  0.00000000000E+00 0.  1.
          2   -1    0    0  501    0  0.00000000000E+00 -0.00000000000E+00 -0.16988076189E+04  0.16988076189E+04  0.00000000000E+00 0. -1.
         23    2    1    2    0    0  0.25315744337E+03  0.23227569888E+02 -0.16056977600E+03  0.31386100735E+03  0.89988153859E+02 0.  0.
        254    2    1    2    0    0 -0.25315744337E+03 -0.23227569888E+02 -0.13124619373E+04  0.16107225172E+04  0.89846673801E+03 0.  0.
        -24    2    4    4    0    0 -0.56930176707E+03  0.54769550344E+02 -0.74312720468E+03  0.94099524233E+03  0.78293027239E+02 0.  0.
         13    1    3    3    0    0  0.21944029980E+03  0.26765018009E+02 -0.96162488902E+02  0.24107599556E+03  0.00000000000E+00 0.  1.
        -13    1    3    3    0    0  0.33717143567E+02 -0.35374481214E+01 -0.64407287094E+02  0.72785011784E+02  0.00000000000E+00 0. -1.
          4    1    4    4  502    0  0.30988152161E+03 -0.39332163232E+02 -0.52158790847E+03  0.60797000153E+03  0.00000000000E+00 0. -1.
          1    1    5    5  503    0 -0.49464452792E+03  0.67884000689E+02 -0.67089207423E+03  0.83628800172E+03  0.00000000000E+00 0. -1.
         -2    1    5    5    0  503 -0.74657239148E+02 -0.13114450345E+02 -0.72235130452E+02  0.10470724061E+03  0.00000000000E+00 0.  1.
         -1    1    4    4    0  502  0.62628020921E+01 -0.38664956999E+02 -0.47746824135E+02  0.61757273295E+02  0.00000000000E+00 0.  1.
<mgrwt>
<rscale>  0 0.12386280E+04</rscale>
<asrwt>0</asrwt>
<pdfrwt beam="1">  1        2 0.26135502E+00 0.12386280E+04</pdfrwt>
<pdfrwt beam="2">  1       -2 0.34734755E-01 0.12386280E+04</pdfrwt>
<totfact> 0.75132204E+01</totfact>
</mgrwt>
</event>
<event>
12    1  0.2404191E-008  0.2292951E+04  0.7818608E-02  0.8480706E-01
         -2   -1    0    0    0  501 -0.00000000000E+00  0.00000000000E+00  0.53472810404E+03  0.53472810404E+03  0.00000000000E+00 0.  1.
          2   -1    0    0  501    0  0.00000000000E+00 -0.00000000000E+00 -0.24580835362E+04  0.24580835362E+04  0.00000000000E+00 0. -1.
         23    2    1    2    0    0 -0.70600573496E+03  0.66210963798E+02  0.19807436727E+02  0.71549481749E+03  0.93340825864E+02 0.  0.
        254    2    1    2    0    0  0.70600573496E+03 -0.66210963798E+02 -0.19431628689E+04  0.22773168228E+04  0.95260799211E+03 0.  0.
        -24    2    4    4    0    0  0.76034981119E+03 -0.31639444637E+02 -0.72689402176E+03  0.10559498894E+04  0.86731540803E+02 0.  0.
         24    2    4    4    0    0 -0.54344076230E+02 -0.34571519162E+02 -0.12162688471E+04  0.12213669334E+04  0.90987960095E+02 0.  0.
         13    1    3    3    0    0 -0.70193392171E+02 -0.20971837325E+02 -0.30928260787E+01  0.73324592317E+02  0.00000000000E+00 0. -1.
        -13    1    3    3    0    0 -0.63581234279E+03  0.87182801123E+02  0.22900262805E+02  0.64217022517E+03  0.00000000000E+00 0.  1.
          4    1    6    6  502    0 -0.37111908730E+02 -0.11368031092E+02 -0.11241618137E+04  0.11248316804E+04  0.00000000000E+00 0. -1.
          3    1    5    5  503    0  0.68607145231E+03 -0.28185726711E+02 -0.68803534493E+03  0.97204995177E+03  0.00000000000E+00 0. -1.
         -4    1    5    5    0  503  0.74278358878E+02 -0.34537179251E+01 -0.38858676833E+02  0.83899937606E+02  0.00000000000E+00 0.  1.
         -3    1    6    6    0  502 -0.17232167500E+02 -0.23203488069E+02 -0.92107033449E+02  0.96535252971E+02  0.00000000000E+00 0.  1.
<mgrwt>
<rscale>  0 0.22929512E+04</rscale>
<asrwt>0</asrwt>
<pdfrwt beam="1">  1        2 0.37816669E+00 0.22929512E+04</pdfrwt>
<pdfrwt beam="2">  1       -2 0.82265864E-01 0.22929512E+04</pdfrwt>
<totfact> 0.43334706E+00</totfact>
</mgrwt>
</event>
<event>
11    1  0.2404191E-008  0.2658311E+04  0.7818608E-02  0.8348660E-01
          2   -1    0    0  501    0  0.00000000000E+00  0.00000000000E+00  0.26820343001E+04  0.26820343001E+04  0.00000000000E+00 0. -1.
         -2   -1    0    0    0  501 -0.00000000000E+00 -0.00000000000E+00 -0.65869928166E+03  0.65869928166E+03  0.00000000000E+00 0.  1.
         23    2    1    2    0    0 -0.10357086948E+04  0.54267346442E+03  0.77968770691E+03  0.14083107449E+04  0.90770283880E+02 0.  0.
        254    2    1    2    0    0  0.10357086948E+04 -0.54267346442E+03  0.12436473116E+04  0.19324228369E+04  0.90576619251E+03 0.  0.
        -24    2    4    4    0    0  0.98002463440E+03 -0.14392413739E+03  0.10866467991E+04  0.14725204027E+04  0.79703381855E+02 0.  0.
         13    1    3    3    0    0 -0.78148740467E+03  0.42576594194E+03  0.54894395139E+03  0.10456283579E+04  0.00000000000E+00 0.  1.
        -13    1    3    3    0    0 -0.25422129013E+03  0.11690752248E+03  0.23074375551E+03  0.36268238705E+03  0.00000000000E+00 0. -1.
          4    1    4    4  502    0  0.25002448243E+02 -0.31666776660E+03  0.18538399087E+03  0.36779181733E+03  0.00000000000E+00 0. -1.
          3    1    5    5  503    0  0.86120746478E+03 -0.12020801921E+03  0.98900111916E+03  0.13169098219E+04  0.00000000000E+00 0. -1.
         -4    1    5    5    0  503  0.11881716961E+03 -0.23716118182E+02  0.97645679957E+02  0.15561058084E+03  0.00000000000E+00 0.  1.
         -3    1    4    4    0  502  0.30681612160E+02 -0.82081560425E+02 -0.28383478413E+02  0.92110616834E+02  0.00000000000E+00 0.  1.
<mgrwt>
<rscale>  0 0.26583108E+04</rscale>
<asrwt>0</asrwt>
<pdfrwt beam="1">  1        2 0.41262066E+00 0.26583108E+04</pdfrwt>
<pdfrwt beam="2">  1       -2 0.10133835E+00 0.26583108E+04</pdfrwt>
<totfact> 0.19169101E+00</totfact>
</mgrwt>
</event>
<event>
12    1  0.2404191E-008  0.1687093E+04  0.7818608E-02  0.8768760E-01
         -2   -1    0    0    0  501 -0.00000000000E+00  0.00000000000E+00  0.82528192689E+03  0.82528192689E+03  0.00000000000E+00 0.  1.
          2   -1    0    0  501    0  0.00000000000E+00 -0.00000000000E+00 -0.86221522542E+03  0.86221522542E+03  0.00000000000E+00 0. -1.
         23    2    1    2    0    0 -0.12990383897E+03 -0.49431870003E+03 -0.37696747745E+03  0.64159896896E+03  0.91207309645E+02 0.  0.
        254    2    1    2    0    0  0.12990383897E+03  0.49431870003E+03  0.34003417893E+03  0.10458981834E+04  0.84679028249E+03 0.  0.
        -24    2    4    4    0    0 -0.35147728673E+03  0.16803581073E+03  0.82457831820E+02  0.40643264712E+03  0.81338095872E+02 0.  0.
         24    2    4    4    0    0  0.48138112571E+03  0.32628288930E+03  0.25757634711E+03  0.63946553623E+03  0.66198832353E+02 0.  0.
         11    1    3    3    0    0 -0.13161550336E+03 -0.39039379820E+03 -0.32848683680E+03  0.52690944227E+03  0.00000000000E+00 0. -1.
        -11    1    3    3    0    0  0.17116643861E+01 -0.10392490182E+03 -0.48480640655E+02  0.11468952669E+03  0.00000000000E+00 0.  1.
          4    1    6    6  502    0  0.37739367445E+03  0.27363916731E+03  0.22943785873E+03  0.51956338441E+03  0.00000000000E+00 0. -1.
          3    1    5    5  503    0 -0.32920066907E+03  0.15200913970E+03  0.97032137876E+02  0.37535995371E+03  0.00000000000E+00 0. -1.
         -4    1    5    5    0  503 -0.22276617664E+02  0.16026671029E+02 -0.14574306055E+02  0.31072693411E+02  0.00000000000E+00 0.  1.
         -3    1    6    6    0  502  0.10398745126E+03  0.52643721994E+02  0.28138488376E+02  0.11990215182E+03  0.00000000000E+00 0.  1.
<mgrwt>
<rscale>  0 0.16870929E+04</rscale>
<asrwt>0</asrwt>
<pdfrwt beam="1">  1        2 0.13264850E+00 0.16870929E+04</pdfrwt>
<pdfrwt beam="2">  1       -2 0.12696645E+00 0.16870929E+04</pdfrwt>
<totfact> 0.13665533E+01</totfact>
</mgrwt>
</event>
<event>
12    1  0.2404191E-008  0.1429168E+04  0.7818608E-02  0.8932972E-01
          1   -1    0    0  501    0  0.00000000000E+00  0.00000000000E+00  0.46026283983E+03  0.46026283983E+03  0.00000000000E+00 0. -1.
         -1   -1    0    0    0  501 -0.00000000000E+00 -0.00000000000E+00 -0.11094314292E+04  0.11094314292E+04  0.00000000000E+00 0.  1.
         23    2    1    2    0    0  0.98306777059E+02  0.34644799640E+03 -0.46405009321E+03  0.59461216378E+03  0.92361786912E+02 0.  0.
        254    2    1    2    0    0 -0.98306777059E+02 -0.34644799640E+03 -0.18511849621E+03  0.97508210530E+03  0.88703202750E+03 0.  0.
        -24    2    4    4    0    0 -0.11477001840E+03 -0.44124303902E+03 -0.47556794524E+03  0.66306773506E+03  0.75009160328E+02 0.  0.
         24    2    4    4    0    0  0.16463241337E+02  0.94795042624E+02  0.29044944903E+03  0.31201437024E+03  0.61114207612E+02 0.  0.
         13    1    3    3    0    0  0.32508413835E+02  0.23505922040E+02 -0.72133873491E+02  0.82538603368E+02  0.00000000000E+00 0. -1.
        -13    1    3    3    0    0  0.65798363223E+02  0.32294207436E+03 -0.39191621972E+03  0.51207356041E+03  0.00000000000E+00 0.  1.
          2    1    6    6  502    0  0.28380305999E+01  0.48346306790E+02  0.22754243158E+03  0.23263915829E+03  0.00000000000E+00 0. -1.
          1    1    5    5  503    0 -0.27673841845E+02 -0.23058939848E+03 -0.26971050545E+03  0.35592284131E+03  0.00000000000E+00 0. -1.
         -2    1    5    5    0  503 -0.87096176550E+02 -0.21065364054E+03 -0.20585743979E+03  0.30714489375E+03  0.00000000000E+00 0.  1.
         -1    1    6    6    0  502  0.13625210737E+02  0.46448735834E+02  0.62907017446E+02  0.79375211950E+02  0.00000000000E+00 0.  1.
<mgrwt>
<rscale>  0 0.14291677E+04</rscale>
<asrwt>0</asrwt>
<pdfrwt beam="1">  1        1 0.70809667E-01 0.14291677E+04</pdfrwt>
<pdfrwt beam="2">  1       -1 0.17068176E+00 0.14291677E+04</pdfrwt>
<totfact> 0.11749525E+01</totfact>
</mgrwt>
</event>
<event>
11    1  0.2404191E-008  0.1934250E+04  0.7818608E-02  0.8637993E-01
          2   -1    0    0  501    0  0.00000000000E+00  0.00000000000E+00  0.87808996692E+03  0.87808996692E+03  0.00000000000E+00 0. -1.
         -2   -1    0    0    0  501 -0.00000000000E+00 -0.00000000000E+00 -0.10651876085E+04  0.10651876085E+04  0.00000000000E+00 0.  1.
         23    2    1    2    0    0  0.23907627689E+03  0.15156404680E+03  0.63250743261E+03  0.69891979839E+03  0.91071981521E+02 0.  0.
        254    2    1    2    0    0 -0.23907627689E+03 -0.15156404680E+03 -0.81960507419E+03  0.12443577770E+04  0.89249351435E+03 0.  0.
        -24    2    4    4    0    0 -0.51284955438E+03 -0.90732896397E+02 -0.22829518759E+03  0.57416786125E+03  0.79390908185E+02 0.  0.
         11    1    3    3    0    0  0.22918450070E+03  0.12723173373E+03  0.50769459328E+03  0.57137312631E+03  0.00000000000E+00 0. -1.
        -11    1    3    3    0    0  0.98917761923E+01  0.24332313066E+02  0.12481283933E+03  0.12754667207E+03  0.00000000000E+00 0.  1.
          4    1    4    4  502    0  0.14279597515E+03 -0.10280216878E+03 -0.36843730136E+03  0.40829526259E+03  0.00000000000E+00 0. -1.
          1    1    5    5  503    0 -0.21531557389E+03 -0.15429646602E+02 -0.59590347481E+02  0.22394168854E+03  0.00000000000E+00 0. -1.
         -2    1    5    5    0  503 -0.29753398049E+03 -0.75303249795E+02 -0.16870484011E+03  0.35022617271E+03  0.00000000000E+00 0.  1.
         -3    1    4    4    0  502  0.13097730234E+03  0.41971018379E+02 -0.22287258524E+03  0.26189465318E+03  0.00000000000E+00 0.  1.
<mgrwt>
<rscale>  0 0.19342498E+04</rscale>
<asrwt>0</asrwt>
<pdfrwt beam="1">  1        2 0.13509076E+00 0.19342498E+04</pdfrwt>
<pdfrwt beam="2">  1       -2 0.16387502E+00 0.19342498E+04</pdfrwt>
<totfact> 0.66848712E+00</totfact>
</mgrwt>
</event>
<event>
11    1  0.2404191E-008  0.1598604E+04  0.7818608E-02  0.8821406E-01
          2   -1    0    0  501    0  0.00000000000E+00  0.00000000000E+00  0.92880783617E+03  0.92880783617E+03  0.00000000000E+00 0. -1.
         -2   -1    0    0    0  501 -0.00000000000E+00 -0.00000000000E+00 -0.68785332154E+03  0.68785332154E+03  0.00000000000E+00 0.  1.
         23    2    1    2    0    0  0.17339256793E+03 -0.15642220153E+03 -0.40901598742E+03  0.47962878408E+03  0.90646592903E+02 0.  0.
        254    2    1    2    0    0 -0.17339256793E+03  0.15642220153E+03  0.64997050205E+03  0.11370323736E+04  0.90324308878E+03 0.  0.
        -24    2    4    4    0    0  0.16086615649E+03 -0.56621753514E+02  0.69442869838E+03  0.71954381494E+03  0.80175689719E+02 0.  0.
         11    1    3    3    0    0  0.12681417004E+03 -0.65391392223E+02 -0.28637732617E+03  0.31995287285E+03  0.00000000000E+00 0. -1.
        -11    1    3    3    0    0  0.46578397885E+02 -0.91030809307E+02 -0.12263866125E+03  0.15967591123E+03  0.00000000000E+00 0.  1.
          2    1    4    4  502    0 -0.45574959201E+02 -0.65668255002E+01  0.17980520654E+02  0.49431763334E+02  0.00000000000E+00 0. -1.
          3    1    5    5  503    0  0.57450493803E+02  0.18674905388E+02  0.23455632406E+03  0.24221061183E+03  0.00000000000E+00 0. -1.
         -4    1    5    5    0  503  0.10341566269E+03 -0.75296658902E+02  0.45987237432E+03  0.47733320311E+03  0.00000000000E+00 0.  1.
         -1    1    4    4    0  502 -0.28868376522E+03  0.21961078054E+03 -0.62438716985E+02  0.36805679536E+03  0.00000000000E+00 0.  1.
<mgrwt>
<rscale>  0 0.15986038E+04</rscale>
<asrwt>0</asrwt>
<pdfrwt beam="1">  1        2 0.14289351E+00 0.15986038E+04</pdfrwt>
<pdfrwt beam="2">  1       -2 0.10582359E+00 0.15986038E+04</pdfrwt>
<totfact> 0.19404425E+01</totfact>
</mgrwt>
</event>
<event>
12    1  0.2404191E-008  0.3205877E+04  0.7818608E-02  0.8187267E-01
         -2   -1    0    0    0  501 -0.00000000000E+00  0.00000000000E+00  0.81581705958E+03  0.81581705958E+03  0.00000000000E+00 0.  1.
          2   -1    0    0  501    0  0.00000000000E+00 -0.00000000000E+00 -0.31494944103E+04  0.31494944103E+04  0.00000000000E+00 0. -1.
         23    2    1    2    0    0 -0.12465454644E+04  0.78613971835E+03 -0.11916345796E+04  0.18970386265E+04  0.82893469966E+02 0.  0.
        254    2    1    2    0    0  0.12465454644E+04 -0.78613971835E+03 -0.11420427711E+04  0.20682728434E+04  0.89532095473E+03 0.  0.
        -24    2    4    4    0    0  0.38071560848E+03 -0.31793508027E+03 -0.93354676998E+03  0.10601723404E+04  0.80179360571E+02 0.  0.
         24    2    4    4    0    0  0.86582985596E+03 -0.46820463807E+03 -0.20849600114E+03  0.10081005030E+04  0.62602867395E+02 0.  0.
         11    1    3    3    0    0 -0.11053576831E+04  0.67941509289E+03 -0.10764407491E+04  0.16858662943E+04  0.00000000000E+00 0. -1.
        -11    1    3    3    0    0 -0.14118778134E+03  0.10672462546E+03 -0.11519383050E+03  0.21117233214E+03  0.00000000000E+00 0.  1.
          2    1    6    6  502    0  0.21930896321E+03 -0.13758973447E+03 -0.32523240957E+02  0.26093125068E+03  0.00000000000E+00 0. -1.
          1    1    5    5  503    0  0.33473559276E+03 -0.26652407726E+03 -0.74127904828E+03  0.85590748814E+03  0.00000000000E+00 0. -1.
         -2    1    5    5    0  503  0.45980015717E+02 -0.51411003010E+02 -0.19226772169E+03  0.20426485229E+03  0.00000000000E+00 0.  1.
         -1    1    6    6    0  502  0.64652089275E+03 -0.33061490361E+03 -0.17597276018E+03  0.74716925229E+03  0.00000000000E+00 0.  1.
<mgrwt>
<rscale>  0 0.32058766E+04</rscale>
<asrwt>0</asrwt>
<pdfrwt beam="1">  1        2 0.48453761E+00 0.32058766E+04</pdfrwt>
<pdfrwt beam="2">  1       -2 0.12551032E+00 0.32058766E+04</pdfrwt>
<totfact> 0.55813867E-01</totfact>
</mgrwt>
</event>
<event>
12    1  0.2404191E-008  0.1368521E+04  0.7818608E-02  0.8976925E-01
         -2   -1    0    0    0  501 -0.00000000000E+00  0.00000000000E+00  0.18499931347E+03  0.18499931347E+03  0.00000000000E+00 0.  1.
          2   -1    0    0  501    0  0.00000000000E+00 -0.00000000000E+00 -0.25308873473E+04  0.25308873473E+04  0.00000000000E+00 0. -1.
         23    2    1    2    0    0 -0.84258909832E+02  0.27218510174E+03 -0.11928981738E+04  0.12298148743E+04  0.90853060611E+02 0.  0.
        254    2    1    2    0    0  0.84258909832E+02 -0.27218510174E+03 -0.11529898601E+04  0.14860717864E+04  0.89321858667E+03 0.  0.
        -24    2    4    4    0    0  0.29632313924E+03 -0.45906241899E+03 -0.40709013760E+03  0.68658649784E+03  0.84456684205E+02 0.  0.
         24    2    4    4    0    0 -0.21206422940E+03  0.18687731725E+03 -0.74589972246E+03  0.79948528861E+03  0.53999644808E+02 0.  0.
         13    1    3    3    0    0 -0.88594493784E+02  0.19041778803E+03 -0.72502050820E+03  0.75482624202E+03  0.00000000000E+00 0. -1.
        -13    1    3    3    0    0  0.43355839512E+01  0.81767313716E+02 -0.46787766555E+03  0.47498863229E+03  0.00000000000E+00 0.  1.
          4    1    6    6  502    0  0.13594263759E+01  0.57872765528E+01 -0.61496682077E+01  0.85533051527E+01  0.00000000000E+00 0. -1.
          3    1    5    5  503    0  0.42458168984E+01 -0.48926435175E+02 -0.42373138573E+02  0.64863748678E+02  0.00000000000E+00 0. -1.
         -4    1    5    5    0  503  0.29207732234E+03 -0.41013598382E+03 -0.36471699903E+03  0.62172274916E+03  0.00000000000E+00 0.  1.
         -1    1    6    6    0  502 -0.21342365578E+03  0.18109004070E+03 -0.73975005425E+03  0.79093198345E+03  0.00000000000E+00 0.  1.
<mgrwt>
<rscale>  0 0.13685210E+04</rscale>
<asrwt>0</asrwt>
<pdfrwt beam="1">  1        2 0.38936728E+00 0.13685210E+04</pdfrwt>
<pdfrwt beam="2">  1       -2 0.28461433E-01 0.13685210E+04</pdfrwt>
<totfact> 0.37008705E+01</totfact>
</mgrwt>
</event>
<event>
12    1  0.2404191E-008  0.2554486E+04  0.7818608E-02  0.8383828E-01
          1   -1    0    0  501    0  0.00000000000E+00  0.00000000000E+00  0.11257795792E+04  0.11257795792E+04  0.00000000000E+00 0. -1.
         -1   -1    0    0    0  501 -0.00000000000E+00 -0.00000000000E+00 -0.14490847167E+04  0.14490847167E+04  0.00000000000E+00 0.  1.
         23    2    1    2    0    0 -0.66931126177E+03  0.72522822362E+03 -0.65840652904E+03  0.11898642063E+04  0.91346212766E+02 0.  0.
        254    2    1    2    0    0  0.66931126177E+03 -0.72522822362E+03  0.33510139151E+03  0.13850000896E+04  0.91213966255E+03 0.  0.
        -24    2    4    4    0    0 -0.18110236963E+03 -0.20951096930E+03  0.25783370755E+03  0.38559128771E+03  0.74226045716E+02 0.  0.
         24    2    4    4    0    0  0.85041363140E+03 -0.51571725432E+03  0.77267683962E+02  0.99940880185E+03  0.60663229033E+02 0.  0.
         13    1    3    3    0    0 -0.65871393845E+03  0.69237364408E+03 -0.64433360855E+03  0.11525845370E+04  0.00000000000E+00 0.  1.
        -13    1    3    3    0    0 -0.10597323322E+02  0.32854579549E+02 -0.14072920491E+02  0.37279669393E+02  0.00000000000E+00 0. -1.
          2    1    6    6  502    0  0.15986229171E+03 -0.12524319924E+03  0.19010326741E+02  0.20396863433E+03  0.00000000000E+00 0. -1.
          3    1    5    5  503    0 -0.32603117223E+02 -0.81792788967E+02  0.10577689571E+03  0.13762912208E+03  0.00000000000E+00 0. -1.
         -4    1    5    5    0  503 -0.14849925240E+03 -0.12771818034E+03  0.15205681184E+03  0.24796216562E+03  0.00000000000E+00 0.  1.
         -1    1    6    6    0  502  0.69055133969E+03 -0.39047405508E+03  0.58257357221E+02  0.79544016752E+03  0.00000000000E+00 0.  1.
<mgrwt>
<rscale>  0 0.25544862E+04</rscale>
<asrwt>0</asrwt>
<pdfrwt beam="1">  1        1 0.17319686E+00 0.25544862E+04</pdfrwt>
<pdfrwt beam="2">  1       -1 0.22293611E+00 0.25544862E+04</pdfrwt>
<totfact> 0.11277484E+00</totfact>
</mgrwt>
</event>
<event>
12    1  0.2404191E-008  0.2270039E+04  0.7818608E-02  0.8489829E-01
          2   -1    0    0  501    0  0.00000000000E+00  0.00000000000E+00  0.22627406881E+04  0.22627406881E+04  0.00000000000E+00 0. -1.
         -2   -1    0    0    0  501 -0.00000000000E+00 -0.00000000000E+00 -0.56934025517E+03  0.56934025517E+03  0.00000000000E+00 0.  1.
         23    2    1    2    0    0 -0.84449704573E+03 -0.14410333135E+02  0.12749073499E+04  0.15315431307E+04  0.82780990562E+02 0.  0.
        254    2    1    2    0    0  0.84449704573E+03  0.14410333135E+02  0.41849308302E+03  0.13005378126E+04  0.89603528025E+03 0.  0.
        -24    2    4    4    0    0  0.97058157828E+03  0.18799432641E+03  0.31476530475E+03  0.10406644025E+04  0.80837705714E+02 0.  0.
         24    2    4    4    0    0 -0.12608453255E+03 -0.17358399328E+03  0.10372777827E+03  0.25987341008E+03  0.10366303687E+03 0.  0.
         11    1    3    3    0    0 -0.66475430381E+03 -0.53723147325E+01  0.10602696071E+04  0.12514386865E+04  0.00000000000E+00 0. -1.
        -11    1    3    3    0    0 -0.17974274192E+03 -0.90380184023E+01  0.21463774275E+03  0.28010444421E+03  0.00000000000E+00 0.  1.
          4    1    6    6  502    0 -0.82260464614E+02 -0.33518173728E+02  0.20525308784E+02  0.91167649466E+02  0.00000000000E+00 0. -1.
          1    1    5    5  503    0  0.97168371700E+02  0.44199919389E+02  0.34080782733E+02  0.11205724021E+03  0.00000000000E+00 0. -1.
         -2    1    5    5    0  503  0.87341320658E+03  0.14379440702E+03  0.28068452202E+03  0.92860716227E+03  0.00000000000E+00 0.  1.
         -3    1    6    6    0  502 -0.43824067938E+02 -0.14006581955E+03  0.83202469488E+02  0.16870576062E+03  0.00000000000E+00 0.  1.
<mgrwt>
<rscale>  0 0.22700391E+04</rscale>
<asrwt>0</asrwt>
<pdfrwt beam="1">  1        2 0.34811395E+00 0.22700391E+04</pdfrwt>
<pdfrwt beam="2">  1       -2 0.87590810E-01 0.22700391E+04</pdfrwt>
<totfact> 0.48653974E+00</totfact>
</mgrwt>
</event>
<event>
12    1  0.2404191E-008  0.1588289E+04  0.7818608E-02  0.8827775E-01
          1   -1    0    0  501    0  0.00000000000E+00  0.00000000000E+00  0.18312321418E+04  0.18312321418E+04  0.00000000000E+00 0. -1.
         -1   -1    0    0    0  501 -0.00000000000E+00 -0.00000000000E+00 -0.34439404741E+03  0.34439404741E+03  0.00000000000E+00 0.  1.
         23    2    1    2    0    0 -0.16079980382E+03 -0.41837722465E+03  0.91547646681E+03  0.10232461773E+04  0.89663254073E+02 0.  0.
        254    2    1    2    0    0  0.16079980382E+03  0.41837722465E+03  0.57136162756E+03  0.11523800119E+04  0.89477902484E+03 0.  0.
        -24    2    4    4    0    0  0.49246611683E+03  0.35473848238E+03  0.49882887150E+03  0.79052048707E+03  0.87921159747E+02 0.  0.
         24    2    4    4    0    0 -0.33166631301E+03  0.63638742275E+02  0.72532756061E+02  0.36185952480E+03  0.10783729541E+03 0.  0.
         11    1    3    3    0    0 -0.53912203517E+01 -0.57388438302E+01  0.89736630707E+00  0.79249512098E+01  0.00000000000E+00 0.  1.
        -11    1    3    3    0    0 -0.15540858347E+03 -0.41263838082E+03  0.91457910051E+03  0.10153212261E+04  0.00000000000E+00 0. -1.
          4    1    6    6  502    0 -0.14966110872E+03  0.27302153844E+02  0.87776448588E+02  0.17563758139E+03  0.00000000000E+00 0. -1.
          1    1    5    5  503    0  0.30092520561E+03  0.16967364298E+03  0.25448518640E+03  0.42907788872E+03  0.00000000000E+00 0. -1.
         -2    1    5    5    0  503  0.19154091122E+03  0.18506483939E+03  0.24434368511E+03  0.36144259835E+03  0.00000000000E+00 0.  1.
         -3    1    6    6    0  502 -0.18200520429E+03  0.36336588431E+02 -0.15243692527E+02  0.18622194341E+03  0.00000000000E+00 0.  1.
<mgrwt>
<rscale>  0 0.15882890E+04</rscale>
<asrwt>0</asrwt>
<pdfrwt beam="1">  1        1 0.28172802E+00 0.15882890E+04</pdfrwt>
<pdfrwt beam="2">  1       -1 0.52983701E-01 0.15882890E+04</pdfrwt>
<totfact> 0.13385341E+01</totfact>
</mgrwt>
</event>
<event>
11    1  0.2404191E-008  0.1814337E+04  0.7818608E-02  0.8698712E-01
          1   -1    0    0  501    0  0.00000000000E+00  0.00000000000E+00  0.30889459217E+04  0.30889459217E+04  0.00000000000E+00 0. -1.
         -1   -1    0    0    0  501 -0.00000000000E+00 -0.00000000000E+00 -0.26641915297E+03  0.26641915297E+03  0.00000000000E+00 0.  1.
         23    2    1    2    0    0  0.24111160007E+03  0.18101957559E+03  0.22033146153E+04  0.22256938084E+04  0.90635227984E+02 0.  0.
        254    2    1    2    0    0 -0.24111160007E+03 -0.18101957559E+03  0.61921215350E+03  0.11296712663E+04  0.89544993630E+03 0.  0.
        -24    2    4    4    0    0 -0.77247964123E+02  0.30229653846E+03  0.48980835003E+03  0.58627579026E+03  0.80353203788E+02 0.  0.
         11    1    3    3    0    0  0.18001864291E+03  0.11262884907E+03  0.12427308755E+04  0.12607426377E+04  0.00000000000E+00 0.  1.
        -11    1    3    3    0    0  0.61092957163E+02  0.68390726526E+02  0.96058373972E+03  0.96495117073E+03  0.00000000000E+00 0. -1.
          4    1    4    4  502    0 -0.15698218418E+03 -0.36795080146E+03  0.49944590901E+02  0.40314471423E+03  0.00000000000E+00 0. -1.
          3    1    5    5  503    0 -0.21983773023E+02  0.10542729630E+03  0.24280153966E+03  0.26561398446E+03  0.00000000000E+00 0. -1.
         -4    1    5    5    0  503 -0.55264191100E+02  0.19686924216E+03  0.24700681037E+03  0.32066180580E+03  0.00000000000E+00 0.  1.
         -3    1    4    4    0  502 -0.68814517628E+01 -0.11536531259E+03  0.79459212575E+02  0.14025076182E+03  0.00000000000E+00 0.  1.
<mgrwt>
<rscale>  0 0.18143366E+04</rscale>
<asrwt>0</asrwt>
<pdfrwt beam="1">  1        1 0.47522242E+00 0.18143366E+04</pdfrwt>
<pdfrwt beam="2">  1       -1 0.40987564E-01 0.18143366E+04</pdfrwt>
<totfact> 0.28326282E+00</totfact>
</mgrwt>
</event>
<event>
12    1  0.2404191E-008  0.1473754E+04  0.7818608E-02  0.8902096E-01
         -2   -1    0    0    0  501 -0.00000000000E+00  0.00000000000E+00  0.87099806782E+03  0.87099806782E+03  0.00000000000E+00 0. -1.
          2   -1    0    0  501    0  0.00000000000E+00 -0.00000000000E+00 -0.62340902926E+03  0.62340902926E+03  0.00000000000E+00 0.  1.
         23    2    1    2    0    0 -0.41572743940E+03 -0.13736276738E+03  0.74870773028E+02  0.46052211527E+03  0.12156131076E+03 0.  0.
        254    2    1    2    0    0  0.41572743940E+03  0.13736276738E+03  0.17271826554E+03  0.10338849818E+04  0.92053719242E+03 0.  0.
        -24    2    4    4    0    0  0.23867553214E+03  0.52118609921E+03  0.17840372347E+03  0.60590829027E+03  0.81829139196E+02 0.  0.
         24    2    4    4    0    0  0.17705190726E+03 -0.38382333183E+03 -0.56854579327E+01  0.42797669154E+03  0.66813143522E+02 0.  0.
         11    1    3    3    0    0 -0.31012436923E+03 -0.13578213580E+03  0.14470746999E+02  0.33885589166E+03  0.00000000000E+00 0.  1.
        -11    1    3    3    0    0 -0.10560307016E+03 -0.15806315769E+01  0.60400026029E+02  0.12166622361E+03  0.00000000000E+00 0. -1.
          4    1    6    6  502    0  0.16301493412E+03 -0.36552281929E+03 -0.20183376080E+02  0.40073453662E+03  0.00000000000E+00 0. -1.
          3    1    5    5  503    0  0.15205010656E+03  0.39284487479E+03  0.15721477605E+03  0.44962519542E+03  0.00000000000E+00 0. -1.
         -4    1    5    5    0  503  0.86625425573E+02  0.12834122442E+03  0.21188947421E+02  0.15628309484E+03  0.00000000000E+00 0.  1.
         -3    1    6    6    0  502  0.14036973143E+02 -0.18300512540E+02  0.14497918147E+02  0.27242154923E+02  0.00000000000E+00 0.  1.
<mgrwt>
<rscale>  0 0.14737545E+04</rscale>
<asrwt>0</asrwt>
<pdfrwt beam="1">  1        2 0.95909082E-01 0.14737545E+04</pdfrwt>
<pdfrwt beam="2">  1       -2 0.13399970E+00 0.14737545E+04</pdfrwt>
<totfact> 0.18417378E+01</totfact>
</mgrwt>
</event>
<event>
12    1  0.2404191E-008  0.1633630E+04  0.7818608E-02  0.8800150E-01
          2   -1    0    0  501    0  0.00000000000E+00  0.00000000000E+00  0.12313246066E+04  0.12313246066E+04  0.00000000000E+00 0. -1.
         -2   -1    0    0    0  501 -0.00000000000E+00 -0.00000000000E+00 -0.54184454231E+03  0.54184454231E+03  0.00000000000E+00 0.  1.
         23    2    1    2    0    0  0.31858115950E+03 -0.40037009144E+03 -0.14419981940E+02  0.52002268676E+03  0.91790487294E+02 0.  0.
        254    2    1    2    0    0 -0.31858115950E+03  0.40037009144E+03  0.70390004621E+03  0.12531464621E+04  0.90172646363E+03 0.  0.
        -24    2    4    4    0    0 -0.41973063540E+02 -0.27542458245E+03  0.28278701442E+03  0.40492421273E+03  0.79841617269E+02 0.  0.
         24    2    4    4    0    0 -0.27660809596E+03  0.67579467389E+03  0.42111303180E+03  0.84822224941E+03  0.94521525818E+02 0.  0.
         11    1    3    3    0    0  0.20345675664E+03 -0.31984013343E+03 -0.17829503061E+02  0.37948682975E+03  0.00000000000E+00 0.  1.
        -11    1    3    3    0    0  0.11512440286E+03 -0.80529958009E+02  0.34095211216E+01  0.14053585701E+03  0.00000000000E+00 0. -1.
          2    1    6    6  502    0 -0.12194515644E+03  0.37415876188E+03  0.18316634812E+03  0.43406832567E+03  0.00000000000E+00 0. -1.
          1    1    5    5  503    0 -0.46469008074E+02 -0.68258561847E+02  0.83199930657E+02  0.11722127980E+03  0.00000000000E+00 0. -1.
         -2    1    5    5    0  503  0.44959445346E+01 -0.20716602060E+03  0.19958708376E+03  0.28770293292E+03  0.00000000000E+00 0.  1.
         -1    1    6    6    0  502 -0.15466293952E+03  0.30163591201E+03  0.23794668368E+03  0.41415392374E+03  0.00000000000E+00 0.  1.
<mgrwt>
<rscale>  0 0.16336297E+04</rscale>
<asrwt>0</asrwt>
<pdfrwt beam="1">  1        2 0.18943455E+00 0.16336297E+04</pdfrwt>
<pdfrwt beam="2">  1       -2 0.83360699E-01 0.16336297E+04</pdfrwt>
<totfact> 0.21859673E+01</totfact>
</mgrwt>
</event>
<event>
12    1  0.2404191E-008  0.1320683E+04  0.7818608E-02  0.9013322E-01
         -2   -1    0    0    0  501 -0.00000000000E+00  0.00000000000E+00  0.39778361135E+03  0.39778361135E+03  0.00000000000E+00 0.  1.
          2   -1    0    0  501    0  0.00000000000E+00 -0.00000000000E+00 -0.10962018494E+04  0.10962018494E+04  0.00000000000E+00 0. -1.
         23    2    1    2    0    0 -0.30157281265E+03  0.51568391191E+02  0.11330210436E+02  0.31321245338E+03  0.66092412462E+02 0.  0.
        254    2    1    2    0    0  0.30157281265E+03 -0.51568391191E+02 -0.70974844846E+03  0.11807730073E+04  0.89267943545E+03 0.  0.
        -24    2    4    4    0    0  0.16046167420E+03 -0.49626223072E+02  0.18899973776E+03  0.26534493281E+03  0.80475596226E+02 0.  0.
         24    2    4    4    0    0  0.14111113845E+03 -0.19421681194E+01 -0.89874818622E+03  0.91542807454E+03  0.10170610602E+03 0.  0.
         13    1    3    3    0    0 -0.86069257858E+01 -0.77397249600E+00  0.12991145210E+02  0.15602822142E+02  0.00000000000E+00 0. -1.
        -13    1    3    3    0    0 -0.29296588686E+03  0.52342363687E+02 -0.16609347744E+01  0.29760963124E+03  0.00000000000E+00 0.  1.
          4    1    6    6  502    0  0.30029347471E+02  0.34296862449E+02 -0.12803192444E+03  0.13590515133E+03  0.00000000000E+00 0. -1.
          3    1    5    5  503    0  0.46843423428E+02  0.16518147377E+02  0.26418356623E+02  0.56259088847E+02  0.00000000000E+00 0. -1.
         -4    1    5    5    0  503  0.11361825077E+03 -0.66144370449E+02  0.16258138114E+03  0.20908584396E+03  0.00000000000E+00 0.  1.
         -3    1    6    6    0  502  0.11108179098E+03 -0.36239030568E+02 -0.77071626179E+03  0.77952292321E+03  0.00000000000E+00 0.  1.
<mgrwt>
<rscale>  0 0.13206834E+04</rscale>
<asrwt>0</asrwt>
<pdfrwt beam="1">  1        2 0.16864644E+00 0.13206834E+04</pdfrwt>
<pdfrwt beam="2">  1       -2 0.61197478E-01 0.13206834E+04</pdfrwt>
<totfact> 0.53250909E+01</totfact>
</mgrwt>
</event>
<event>
12    1  0.2404191E-008  0.1805858E+04  0.7818608E-02  0.8703191E-01
          1   -1    0    0  501    0  0.00000000000E+00  0.00000000000E+00  0.10878285182E+04  0.10878285182E+04  0.00000000000E+00 0. -1.
         -1   -1    0    0    0  501 -0.00000000000E+00 -0.00000000000E+00 -0.74945674294E+03  0.74945674294E+03  0.00000000000E+00 0.  1.
         23    2    1    2    0    0 -0.25677993629E+03  0.12932881142E+03  0.74934391506E+03  0.80784910498E+03  0.91880336501E+02 0.  0.
        254    2    1    2    0    0  0.25677993629E+03 -0.12932881142E+03 -0.41097213984E+03  0.10294361561E+04  0.89898766547E+03 0.  0.
        -24    2    4    4    0    0  0.43399305595E+03  0.90055975430E+01  0.10897068748E+03  0.45463579455E+03  0.79925099636E+02 0.  0.
         24    2    4    4    0    0 -0.17721311967E+03 -0.13833440896E+03 -0.51994282732E+03  0.57480036158E+03  0.97539804710E+02 0.  0.
         13    1    3    3    0    0 -0.21083764035E+03  0.65939884284E+02  0.50319427866E+03  0.54954987126E+03  0.00000000000E+00 0. -1.
        -13    1    3    3    0    0 -0.45942295940E+02  0.63388927138E+02  0.24614963640E+03  0.25829923372E+03  0.00000000000E+00 0.  1.
          2    1    6    6  502    0 -0.45931712804E+02 -0.55333540201E+02 -0.76736145534E+02  0.10516633940E+03  0.00000000000E+00 0. -1.
          1    1    5    5  503    0  0.35030967446E+03  0.23781000431E+02  0.58953378439E+02  0.35603076388E+03  0.00000000000E+00 0. -1.
         -2    1    5    5    0  503  0.83683381492E+02 -0.14775402888E+02  0.50017309042E+02  0.98605030664E+02  0.00000000000E+00 0.  1.
         -1    1    6    6    0  502 -0.13128140686E+03 -0.83000868764E+02 -0.44320668178E+03  0.46963402217E+03  0.00000000000E+00 0.  1.
<mgrwt>
<rscale>  0 0.18058576E+04</rscale>
<asrwt>0</asrwt>
<pdfrwt beam="1">  1        1 0.16735823E+00 0.18058576E+04</pdfrwt>
<pdfrwt beam="2">  1       -1 0.11530104E+00 0.18058576E+04</pdfrwt>
<totfact> 0.83323052E+00</totfact>
</mgrwt>
</event>
<event>
12    1  0.2404191E-008  0.1195729E+04  0.7818608E-02  0.9116603E-01
         -2   -1    0    0    0  501 -0.00000000000E+00  0.00000000000E+00  0.12202051673E+04  0.12202051673E+04  0.00000000000E+00 0.  1.
          2   -1    0    0  501    0  0.00000000000E+00 -0.00000000000E+00 -0.29293578708E+03  0.29293578708E+03  0.00000000000E+00 0. -1.
         23    2    1    2    0    0 -0.18786237730E+03  0.13026827463E+01  0.40329706442E+03  0.45604081726E+03  0.10015355732E+03 0.  0.
        254    2    1    2    0    0  0.18786237730E+03 -0.13026827463E+01  0.52397231581E+03  0.10571001371E+04  0.89867666176E+03 0.  0.
        -24    2    4    4    0    0  0.43690955295E+03 -0.20017014071E+03  0.53505981275E+03  0.72334587202E+03  0.77344713264E+02 0.  0.
         24    2    4    4    0    0 -0.24904717564E+03  0.19886745797E+03 -0.11087496932E+02  0.33375426511E+03  0.98469362516E+02 0.  0.
         11    1    3    3    0    0 -0.58267053951E+02  0.43873949715E+02  0.10295574254E+03  0.12617391950E+03  0.00000000000E+00 0. -1.
        -11    1    3    3    0    0 -0.12959532335E+03 -0.42571266969E+02  0.30034132188E+03  0.32986689776E+03  0.00000000000E+00 0.  1.
          2    1    6    6  502    0 -0.33048053292E+02  0.10833423731E+02  0.28094239782E+02  0.44708200647E+02  0.00000000000E+00 0. -1.
          1    1    5    5  503    0  0.45994640167E+02 -0.26215291521E+02  0.28025444989E+02  0.59901368936E+02  0.00000000000E+00 0. -1.
         -2    1    5    5    0  503  0.39091491278E+03 -0.17395484919E+03  0.50703436776E+03  0.66344450309E+03  0.00000000000E+00 0.  1.
         -1    1    6    6    0  502 -0.21599912235E+03  0.18803403424E+03 -0.39181736714E+02  0.28904606446E+03  0.00000000000E+00 0.  1.
<mgrwt>
<rscale>  0 0.11957287E+04</rscale>
<asrwt>0</asrwt>
<pdfrwt beam="1">  1        2 0.45067045E-01 0.11957287E+04</pdfrwt>
<pdfrwt beam="2">  1       -2 0.18772387E+00 0.11957287E+04</pdfrwt>
<totfact> 0.17852639E+01</totfact>
</mgrwt>
</event>
<event>
12    1  0.2404191E-008  0.1829322E+04  0.7818608E-02  0.8690860E-01
          1   -1    0    0  501    0  0.00000000000E+00  0.00000000000E+00  0.73758035490E+03  0.73758035490E+03  0.00000000000E+00 0. -1.
         -1   -1    0    0    0  501 -0.00000000000E+00 -0.00000000000E+00 -0.11342559439E+04  0.11342559439E+04  0.00000000000E+00 0.  1.
         23    2    1    2    0    0 -0.68145867408E+03  0.26223091390E+02 -0.59095193566E+02  0.69083546893E+03  0.93208520156E+02 0.  0.
        254    2    1    2    0    0  0.68145867408E+03 -0.26223091390E+02 -0.33758039547E+03  0.11810008299E+04  0.90317709328E+03 0.  0.
        -24    2    4    4    0    0 -0.11647804377E+03  0.19083288038E+02 -0.34693039952E+03  0.37595284184E+03  0.83955527568E+02 0.  0.
         24    2    4    4    0    0  0.79793671785E+03 -0.45306379428E+02  0.93500040514E+01  0.80504798807E+03  0.96224564436E+02 0.  0.
         11    1    3    3    0    0 -0.71360755247E+02  0.23092375109E+01  0.22457447989E+02  0.74846689556E+02  0.00000000000E+00 0.  1.
        -11    1    3    3    0    0 -0.61009791883E+03  0.23913853879E+02 -0.81552641554E+02  0.61598877938E+03  0.00000000000E+00 0. -1.
          2    1    6    6  502    0  0.21051132655E+03  0.20182155745E+02 -0.25209967493E+02  0.21297389624E+03  0.00000000000E+00 0. -1.
          3    1    5    5  503    0 -0.18706880488E+02  0.37672048486E+02 -0.69792472576E+02  0.81486930504E+02  0.00000000000E+00 0. -1.
         -4    1    5    5    0  503 -0.97771163284E+02 -0.18588760448E+02 -0.27713792695E+03  0.29446591133E+03  0.00000000000E+00 0.  1.
         -1    1    6    6    0  502  0.58742539130E+03 -0.65488535174E+02  0.34559971544E+02  0.59207409183E+03  0.00000000000E+00 0.  1.
<mgrwt>
<rscale>  0 0.18293222E+04</rscale>
<asrwt>0</asrwt>
<pdfrwt beam="1">  1        1 0.11347390E+00 0.18293222E+04</pdfrwt>
<pdfrwt beam="2">  1       -1 0.17450091E+00 0.18293222E+04</pdfrwt>
<totfact> 0.53966195E+00</totfact>
</mgrwt>
</event>
<event>
11    1  0.2404191E-008  0.1626241E+04  0.7818608E-02  0.8804587E-01
          1   -1    0    0  501    0  0.00000000000E+00  0.00000000000E+00  0.27752791189E+04  0.27752791189E+04  0.00000000000E+00 0. -1.
         -1   -1    0    0    0  501 -0.00000000000E+00 -0.00000000000E+00 -0.23823365695E+03  0.23823365695E+03  0.00000000000E+00 0.  1.
         23    2    1    2    0    0 -0.15486904516E+03 -0.32098165804E+02  0.18932365178E+04  0.19018826505E+04  0.88308496332E+02 0.  0.
        254    2    1    2    0    0  0.15486904516E+03  0.32098165804E+02  0.64380894423E+03  0.11116301254E+04  0.89230984849E+03 0.  0.
        -24    2    4    4    0    0  0.40626939559E+03  0.83210634731E+02  0.70600271724E+03  0.82272939470E+03  0.80405152965E+02 0.  0.
         13    1    3    3    0    0 -0.14266826502E+03 -0.28946085179E+02  0.18681080172E+04  0.18737715105E+04  0.00000000000E+00 0. -1.
        -13    1    3    3    0    0 -0.12200780142E+02 -0.31520806258E+01  0.25128500564E+02  0.28111139944E+02  0.00000000000E+00 0.  1.
          2    1    4    4  502    0 -0.26243038180E+03 -0.56481463216E+02 -0.53126895744E+02  0.27364635578E+03  0.00000000000E+00 0. -1.
          3    1    5    5  503    0  0.18335409321E+03  0.45527470205E+02  0.39899525509E+03  0.44146198888E+03  0.00000000000E+00 0. -1.
         -4    1    5    5    0  503  0.22291530238E+03  0.37683164527E+02  0.30700746215E+03  0.38126740582E+03  0.00000000000E+00 0.  1.
         -1    1    4    4    0  502  0.11030031381E+02  0.53689942888E+01 -0.90668772689E+01  0.15254374957E+02  0.00000000000E+00 0.  1.
<mgrwt>
<rscale>  0 0.16262409E+04</rscale>
<asrwt>0</asrwt>
<pdfrwt beam="1">  1        1 0.42696600E+00 0.16262409E+04</pdfrwt>
<pdfrwt beam="2">  1       -1 0.36651334E-01 0.16262409E+04</pdfrwt>
<totfact> 0.59537634E+00</totfact>
</mgrwt>
</event>
<event>
11    1  0.2404191E-008  0.2616310E+04  0.7818608E-02  0.8362682E-01
         -1   -1    0    0    0  501 -0.00000000000E+00  0.00000000000E+00  0.11081376096E+04  0.11081376096E+04  0.00000000000E+00 0.  1.
          1   -1    0    0  501    0  0.00000000000E+00 -0.00000000000E+00 -0.15442748910E+04  0.15442748910E+04  0.00000000000E+00 0. -1.
         23    2    1    2    0    0 -0.42344798641E+03  0.66824093611E+03 -0.10343409897E+04  0.13053502480E+04  0.90685396089E+02 0.  0.
        254    2    1    2    0    0  0.42344798641E+03 -0.66824093611E+03  0.59820370828E+03  0.13470622527E+04  0.91152338977E+03 0.  0.
        -24    2    4    4    0    0 -0.22140423288E+03 -0.10440120816E+03 -0.34036834466E+02  0.25971737424E+03  0.79844610207E+02 0.  0.
         13    1    3    3    0    0 -0.32415199645E+03  0.43404532473E+03 -0.71688610060E+03  0.89855191389E+03  0.00000000000E+00 0. -1.
        -13    1    3    3    0    0 -0.99295989962E+02  0.23419561139E+03 -0.31745488909E+03  0.40679833410E+03  0.00000000000E+00 0.  1.
          2    1    4    4  502    0  0.11336802183E+03 -0.10176961752E+03  0.19031453162E+02  0.15353032154E+03  0.00000000000E+00 0. -1.
          1    1    5    5  503    0 -0.33440634357E+02 -0.52231745020E+02 -0.14343882113E+02  0.63656721311E+02  0.00000000000E+00 0. -1.
         -2    1    5    5    0  503 -0.18796359853E+03 -0.52169463138E+02 -0.19692952353E+02  0.19606065293E+03  0.00000000000E+00 0.  1.
         -1    1    4    4    0  502  0.53148419746E+03 -0.46207011044E+03  0.61320908958E+03  0.93381455689E+03  0.00000000000E+00 0.  1.
<mgrwt>
<rscale>  0 0.26163097E+04</rscale>
<asrwt>0</asrwt>
<pdfrwt beam="1">  1        1 0.23758075E+00 0.26163097E+04</pdfrwt>
<pdfrwt beam="2">  1       -1 0.17048271E+00 0.26163097E+04</pdfrwt>
<totfact> 0.13085469E+00</totfact>
</mgrwt>
</event>
<event>
12    1  0.2404191E-008  0.1486500E+04  0.7818608E-02  0.8893480E-01
          1   -1    0    0  501    0  0.00000000000E+00  0.00000000000E+00  0.14808366582E+04  0.14808366582E+04  0.00000000000E+00 0. -1.
         -1   -1    0    0    0  501 -0.00000000000E+00 -0.00000000000E+00 -0.37304627144E+03  0.37304627144E+03  0.00000000000E+00 0.  1.
         23    2    1    2    0    0  0.42872813380E+03 -0.14503218695E+03  0.20174662693E+03  0.50361704821E+03  0.89923755479E+02 0.  0.
        254    2    1    2    0    0 -0.42872813380E+03  0.14503218695E+03  0.90604375986E+03  0.13502658815E+04  0.89300644338E+03 0.  0.
        -24    2    4    4    0    0 -0.60038579895E+03 -0.10516308972E+03  0.34351861253E+03  0.70419006183E+03  0.79725924343E+02 0.  0.
         24    2    4    4    0    0  0.17165766514E+03  0.25019527667E+03  0.56252514733E+03  0.64607581964E+03  0.94421358134E+02 0.  0.
         11    1    3    3    0    0  0.12667571792E+03 -0.20706881675E+02  0.96008045806E+02  0.16029054033E+03  0.00000000000E+00 0. -1.
        -11    1    3    3    0    0  0.30205241589E+03 -0.12432530528E+03  0.10573858112E+03  0.34332650788E+03  0.00000000000E+00 0.  1.
          2    1    6    6  502    0  0.10087800453E+03  0.10507275233E+03  0.35057232037E+03  0.37962824827E+03  0.00000000000E+00 0. -1.
          1    1    5    5  503    0 -0.41179475597E+03 -0.34603284695E+02  0.22459553362E+03  0.47033547823E+03  0.00000000000E+00 0. -1.
         -2    1    5    5    0  503 -0.18859104297E+03 -0.70559805025E+02  0.11892307890E+03  0.23385458360E+03  0.00000000000E+00 0.  1.
         -1    1    6    6    0  502  0.70779660608E+02  0.14512252435E+03  0.21195282696E+03  0.26644757137E+03  0.00000000000E+00 0.  1.
<mgrwt>
<rscale>  0 0.14865000E+04</rscale>
<asrwt>0</asrwt>
<pdfrwt beam="1">  1        1 0.22782102E+00 0.14865000E+04</pdfrwt>
<pdfrwt beam="2">  1       -1 0.57391735E-01 0.14865000E+04</pdfrwt>
<totfact> 0.20082740E+01</totfact>
</mgrwt>
</event>
<event>
11    1  0.2404191E-008  0.1278965E+04  0.7818608E-02  0.9046414E-01
         -1   -1    0    0    0  501 -0.00000000000E+00  0.00000000000E+00  0.16368265448E+04  0.16368265448E+04  0.00000000000E+00 0.  1.
          1   -1    0    0  501    0  0.00000000000E+00 -0.00000000000E+00 -0.24983594666E+03  0.24983594666E+03  0.00000000000E+00 0. -1.
         23    2    1    2    0    0 -0.27283098702E+03 -0.12169022923E+03  0.21343824345E+03  0.37932145556E+03  0.95308045373E+02 0.  0.
        254    2    1    2    0    0  0.27283098702E+03  0.12169022923E+03  0.11735523547E+04  0.15073410359E+04  0.89755590909E+03 0.  0.
        -24    2    4    4    0    0  0.13649897182E+03 -0.32660378075E+03  0.19306893602E+03  0.41117718890E+03  0.80554749762E+02 0.  0.
         13    1    3    3    0    0 -0.14955910532E+03 -0.21611072659E+02  0.75177937605E+02  0.16877999511E+03  0.00000000000E+00 0. -1.
        -13    1    3    3    0    0 -0.12327188171E+03 -0.10007915657E+03  0.13826030584E+03  0.21054146046E+03  0.00000000000E+00 0.  1.
          2    1    4    4  502    0  0.10065802675E+03  0.25766176840E+03  0.41853900828E+03  0.50169365822E+03  0.00000000000E+00 0. -1.
          3    1    5    5  503    0  0.37348020538E+02 -0.18277977234E+03  0.12002544660E+03  0.22183198067E+03  0.00000000000E+00 0. -1.
         -4    1    5    5    0  503  0.99150951281E+02 -0.14382400841E+03  0.73043489422E+02  0.18934520823E+03  0.00000000000E+00 0.  1.
         -1    1    4    4    0  502  0.35673988452E+02  0.19063224159E+03  0.56194441038E+03  0.59447018878E+03  0.00000000000E+00 0.  1.
<mgrwt>
<rscale>  0 0.12789654E+04</rscale>
<asrwt>0</asrwt>
<pdfrwt beam="1">  1        1 0.38436300E-01 0.12789654E+04</pdfrwt>
<pdfrwt beam="2">  1       -1 0.25181946E+00 0.12789654E+04</pdfrwt>
<totfact> 0.74437037E+00</totfact>
</mgrwt>
</event>
<event>
11    1  0.2404191E-008  0.1530468E+04  0.7818608E-02  0.8864441E-01
         -2   -1    0    0    0  501 -0.00000000000E+00  0.00000000000E+00  0.72336625989E+03  0.72336625989E+03  0.00000000000E+00 0.  1.
          2   -1    0    0  501    0  0.00000000000E+00 -0.00000000000E+00 -0.80952543144E+03  0.80952543144E+03  0.00000000000E+00 0. -1.
         23    2    1    2    0    0  0.18040822427E+03  0.18386145783E+03 -0.47876119296E+03  0.55118602670E+03  0.90783220325E+02 0.  0.
        254    2    1    2    0    0 -0.18040822427E+03 -0.18386145783E+03  0.39260202142E+03  0.98170566463E+03  0.86212383199E+03 0.  0.
        -24    2    4    4    0    0 -0.44637890142E+02  0.32612393729E+03  0.24673251189E+03  0.41934333696E+03  0.81378978354E+02 0.  0.
         11    1    3    3    0    0  0.15206352468E+03  0.17480121902E+03 -0.35512779908E+03  0.42402185721E+03  0.00000000000E+00 0.  1.
        -11    1    3    3    0    0  0.28344699592E+02  0.90602388029E+01 -0.12363339388E+03  0.12716416950E+03  0.00000000000E+00 0. -1.
          2    1    4    4  502    0 -0.28556957969E+02 -0.18180905302E+03 -0.83730681523E+01  0.18422849910E+03  0.00000000000E+00 0. -1.
          3    1    5    5  503    0 -0.60839999321E+02  0.24129078305E+03  0.20951643480E+03  0.32529968330E+03  0.00000000000E+00 0. -1.
         -4    1    5    5    0  503  0.16202109179E+02  0.84833154238E+02  0.37216077094E+02  0.94043653662E+02  0.00000000000E+00 0.  1.
         -3    1    4    4    0  502 -0.10721337616E+03 -0.32817634210E+03  0.15424257768E+03  0.37813382857E+03  0.00000000000E+00 0.  1.
<mgrwt>
<rscale>  0 0.15304684E+04</rscale>
<asrwt>0</asrwt>
<pdfrwt beam="1">  1        2 0.12454237E+00 0.15304684E+04</pdfrwt>
<pdfrwt beam="2">  1       -2 0.11128712E+00 0.15304684E+04</pdfrwt>
<totfact> 0.20878269E+01</totfact>
</mgrwt>
</event>
<event>
11    1  0.2404191E-008  0.1927793E+04  0.7818608E-02  0.8641144E-01
         -2   -1    0    0    0  501 -0.00000000000E+00  0.00000000000E+00  0.53502704541E+03  0.53502704541E+03  0.00000000000E+00 0.  1.
          2   -1    0    0  501    0  0.00000000000E+00 -0.00000000000E+00 -0.17365415609E+04  0.17365415609E+04  0.00000000000E+00 0. -1.
         23    2    1    2    0    0 -0.71892157423E+03  0.22699959600E+03 -0.47372321101E+03  0.89509388521E+03  0.91664258081E+02 0.  0.
        254    2    1    2    0    0  0.71892157423E+03 -0.22699959600E+03 -0.72779130447E+03  0.13764747211E+04  0.89253875459E+03 0.  0.
        -24    2    4    4    0    0 -0.50017641023E+02  0.14054039712E+03 -0.43211451252E+03  0.46409952857E+03  0.80075294889E+02 0.  0.
         13    1    3    3    0    0 -0.60464211829E+03  0.15465506187E+03 -0.39483032208E+03  0.73851287234E+03  0.00000000000E+00 0.  1.
        -13    1    3    3    0    0 -0.11427945594E+03  0.72344534129E+02 -0.78892888933E+02  0.15658101288E+03  0.00000000000E+00 0. -1.
          2    1    4    4  502    0  0.65869588356E+03 -0.31952792927E+03 -0.30203696843E+03  0.79196255903E+03  0.00000000000E+00 0. -1.
          3    1    5    5  503    0 -0.70186854489E+02  0.95400561935E+02 -0.33084622836E+03  0.35140672814E+03  0.00000000000E+00 0. -1.
         -4    1    5    5    0  503  0.20169213466E+02  0.45139835181E+02 -0.10126828416E+03  0.11269280043E+03  0.00000000000E+00 0.  1.
         -1    1    4    4    0  502  0.11024333169E+03 -0.48012063842E+02  0.63601764834E+01  0.12041263348E+03  0.00000000000E+00 0.  1.
<mgrwt>
<rscale>  0 0.19277932E+04</rscale>
<asrwt>0</asrwt>
<pdfrwt beam="1">  1        2 0.26716024E+00 0.19277932E+04</pdfrwt>
<pdfrwt beam="2">  1       -2 0.82311852E-01 0.19277932E+04</pdfrwt>
<totfact> 0.11334693E+01</totfact>
</mgrwt>
</event>
<event>
12    1  0.2404191E-008  0.2023538E+04  0.7818608E-02  0.8595694E-01
         -1   -1    0    0    0  501 -0.00000000000E+00  0.00000000000E+00  0.56774777769E+03  0.56774777769E+03  0.00000000000E+00 0.  1.
          1   -1    0    0  501    0  0.00000000000E+00 -0.00000000000E+00 -0.18030472663E+04  0.18030472663E+04  0.00000000000E+00 0. -1.
         23    2    1    2    0    0  0.36706480860E+03  0.70584204494E+03 -0.69304065858E+03  0.10590521727E+04  0.91304895337E+02 0.  0.
        254    2    1    2    0    0 -0.36706480860E+03 -0.70584204494E+03 -0.54225882999E+03  0.13117428713E+04  0.89088447931E+03 0.  0.
        -24    2    4    4    0    0  0.65893804662E+02 -0.13310069436E+03 -0.56160661510E+03  0.58619893089E+03  0.78545579937E+02 0.  0.
         24    2    4    4    0    0 -0.43295861326E+03 -0.57274135059E+03  0.19347785113E+02  0.72554394036E+03  0.10273196746E+03 0.  0.
         11    1    3    3    0    0  0.21615161649E+03  0.43549320132E+03 -0.48007599155E+03  0.68326335141E+03  0.00000000000E+00 0.  1.
        -11    1    3    3    0    0  0.15091319211E+03  0.27034884362E+03 -0.21296466703E+03  0.37578882129E+03  0.00000000000E+00 0. -1.
          2    1    6    6  502    0 -0.26190547695E+03 -0.30889964547E+03  0.56539759953E+02  0.40891345574E+03  0.00000000000E+00 0. -1.
          3    1    5    5  503    0  0.52478803425E+02 -0.63952699042E+02 -0.41966378326E+03  0.42774018224E+03  0.00000000000E+00 0. -1.
         -2    1    5    5    0  503  0.13415001237E+02 -0.69147995314E+02 -0.14194283184E+03  0.15845874865E+03  0.00000000000E+00 0.  1.
         -1    1    6    6    0  502 -0.17105313632E+03 -0.26384170512E+03 -0.37191974841E+02  0.31663048463E+03  0.00000000000E+00 0.  1.
<mgrwt>
<rscale>  0 0.20235376E+04</rscale>
<asrwt>0</asrwt>
<pdfrwt beam="1">  1        1 0.27739188E+00 0.20235376E+04</pdfrwt>
<pdfrwt beam="2">  1       -1 0.87345813E-01 0.20235376E+04</pdfrwt>
<totfact> 0.48423242E+00</totfact>
</mgrwt>
</event>
<event>
12    1  0.2404191E-008  0.1291903E+04  0.7818608E-02  0.9036011E-01
         -2   -1    0    0    0  501 -0.00000000000E+00  0.00000000000E+00  0.13896003657E+03  0.13896003657E+03  0.00000000000E+00 0. -1.
          2   -1    0    0  501    0  0.00000000000E+00 -0.00000000000E+00 -0.30026845366E+04  0.30026845366E+04  0.00000000000E+00 0.  1.
         23    2    1    2    0    0 -0.15281588579E+03 -0.26474683993E+03 -0.96260029709E+03  0.10137124815E+04  0.87006200747E+02 0.  0.
        254    2    1    2    0    0  0.15281588579E+03  0.26474683993E+03 -0.19011242029E+04  0.21279320916E+04  0.90574729785E+03 0.  0.
        -24    2    4    4    0    0  0.40218573630E+03  0.23228078554E+03 -0.45105481255E+03  0.65217712678E+03  0.78592817434E+02 0.  0.
         24    2    4    4    0    0 -0.24936985051E+03  0.32466054394E+02 -0.14500693904E+04  0.14757549649E+04  0.10914262428E+03 0.  0.
         13    1    3    3    0    0 -0.35772579927E+02 -0.21642652187E+02 -0.73335447925E+02  0.84416644038E+02  0.00000000000E+00 0. -1.
        -13    1    3    3    0    0 -0.11704330587E+03 -0.24310418774E+03 -0.88926484916E+03  0.92929583745E+03  0.00000000000E+00 0.  1.
          2    1    6    6  502    0 -0.40409829205E+02  0.35970507805E+02 -0.50299106657E+03  0.50589212761E+03  0.00000000000E+00 0. -1.
          3    1    5    5  503    0  0.77098157899E+02  0.82492212712E+02 -0.11633490988E+03  0.16212002457E+03  0.00000000000E+00 0. -1.
         -4    1    5    5    0  503  0.32508757841E+03  0.14978857283E+03 -0.33471990267E+03  0.49005710221E+03  0.00000000000E+00 0.  1.
         -1    1    6    6    0  502 -0.20896002130E+03 -0.35044534109E+01 -0.94707832380E+03  0.96986283726E+03  0.00000000000E+00 0.  1.
<mgrwt>
<rscale>  0 0.12919027E+04</rscale>
<asrwt>0</asrwt>
<pdfrwt beam="1">  1        2 0.46195145E+00 0.12919027E+04</pdfrwt>
<pdfrwt beam="2">  1       -2 0.21378468E-01 0.12919027E+04</pdfrwt>
<totfact> 0.32697837E+01</totfact>
</mgrwt>
</event>
<event>
12    1  0.2404191E-008  0.2246927E+04  0.7818608E-02  0.8499146E-01
         -2   -1    0    0    0  501 -0.00000000000E+00  0.00000000000E+00  0.79007678809E+03  0.79007678809E+03  0.00000000000E+00 0. -1.
          2   -1    0    0  501    0  0.00000000000E+00 -0.00000000000E+00 -0.15975289966E+04  0.15975289966E+04  0.00000000000E+00 0.  1.
         23    2    1    2    0    0  0.32675997608E+03 -0.45225429606E+02  0.59621999894E+03  0.68748774177E+03  0.91343781941E+02 0.  0.
        254    2    1    2    0    0 -0.32675997608E+03  0.45225429606E+02 -0.14036722075E+04  0.17001180429E+04  0.90071542256E+03 0.  0.
        -24    2    4    4    0    0 -0.59098628891E+02  0.13566469936E+03  0.81020985634E+02  0.18597074002E+03  0.78250606637E+02 0.  0.
         24    2    4    4    0    0 -0.26766134719E+03 -0.90439269759E+02 -0.14846931931E+04  0.15141473029E+04  0.92229707698E+02 0.  0.
         11    1    3    3    0    0  0.31153797202E+03 -0.53976221512E+02  0.51437498215E+03  0.60378055845E+03  0.00000000000E+00 0. -1.
        -11    1    3    3    0    0  0.15222004061E+02  0.87507919055E+01  0.81845016786E+02  0.83707183320E+02  0.00000000000E+00 0.  1.
          2    1    6    6  502    0 -0.41374226431E+02  0.10920355080E+02 -0.35460770594E+03  0.35718021485E+03  0.00000000000E+00 0. -1.
          3    1    5    5  503    0 -0.16839881438E+01  0.73078468629E+02  0.72195931582E+01  0.73453528973E+02  0.00000000000E+00 0. -1.
         -4    1    5    5    0  503 -0.57414640747E+02  0.62586230736E+02  0.73801392476E+02  0.11251721104E+03  0.00000000000E+00 0.  1.
         -1    1    6    6    0  502 -0.22628712076E+03 -0.10135962484E+03 -0.11300854872E+04  0.11569670881E+04  0.00000000000E+00 0.  1.
<mgrwt>
<rscale>  0 0.22469273E+04</rscale>
<asrwt>0</asrwt>
<pdfrwt beam="1">  1        2 0.24577369E+00 0.22469273E+04</pdfrwt>
<pdfrwt beam="2">  1       -2 0.12155028E+00 0.22469273E+04</pdfrwt>
<totfact> 0.52396458E+00</totfact>
</mgrwt>
</event>
<event>
12    1  0.2404191E-008  0.1864018E+04  0.7818608E-02  0.8672977E-01
          2   -1    0    0  501    0  0.00000000000E+00  0.00000000000E+00  0.14383970938E+04  0.14383970938E+04  0.00000000000E+00 0. -1.
         -2   -1    0    0    0  501 -0.00000000000E+00 -0.00000000000E+00 -0.60389496311E+03  0.60389496311E+03  0.00000000000E+00 0.  1.
         23    2    1    2    0    0 -0.54337678298E+03  0.45666637072E+03  0.31240824861E+03  0.78078011324E+03  0.90643085884E+02 0.  0.
        254    2    1    2    0    0  0.54337678298E+03 -0.45666637072E+03  0.52209388212E+03  0.12615119437E+04  0.90278893432E+03 0.  0.
        -24    2    4    4    0    0  0.14275445228E+03  0.91815143258E+02 -0.19632562321E+03  0.27102590329E+03  0.78118088479E+02 0.  0.
         24    2    4    4    0    0  0.40062233070E+03 -0.54848151397E+03  0.71841950533E+03  0.99048604041E+03  0.60048210438E+02 0.  0.
         13    1    3    3    0    0 -0.22700321980E+03  0.23403349115E+03  0.17647732147E+03  0.37073761850E+03  0.00000000000E+00 0. -1.
        -13    1    3    3    0    0 -0.31637356318E+03  0.22263287957E+03  0.13593092714E+03  0.41004249474E+03  0.00000000000E+00 0.  1.
          2    1    6    6  502    0  0.24498424773E+03 -0.30446273470E+03  0.44649681504E+03  0.59335844504E+03  0.00000000000E+00 0. -1.
          3    1    5    5  503    0  0.77656669545E+02  0.89645008948E+01 -0.59014773928E+02  0.97947251840E+02  0.00000000000E+00 0. -1.
         -4    1    5    5    0  503  0.65097782735E+02  0.82850642363E+02 -0.13731084929E+03  0.17307865145E+03  0.00000000000E+00 0.  1.
         -1    1    6    6    0  502  0.15563808297E+03 -0.24401877928E+03  0.27192269029E+03  0.39712759537E+03  0.00000000000E+00 0.  1.
<mgrwt>
<rscale>  0 0.18640180E+04</rscale>
<asrwt>0</asrwt>
<pdfrwt beam="1">  1        2 0.22129186E+00 0.18640180E+04</pdfrwt>
<pdfrwt beam="2">  1       -2 0.92906917E-01 0.18640180E+04</pdfrwt>
<totfact> 0.12687160E+01</totfact>
</mgrwt>
</event>
<event>
12    1  0.2404191E-008  0.2308206E+04  0.7818608E-02  0.8474693E-01
         -2   -1    0    0    0  501 -0.00000000000E+00  0.00000000000E+00  0.29528116661E+03  0.29528116661E+03  0.00000000000E+00 0. -1.
          2   -1    0    0  501    0  0.00000000000E+00 -0.00000000000E+00 -0.45107993622E+04  0.45107993622E+04  0.00000000000E+00 0.  1.
         23    2    1    2    0    0  0.63690569257E+03 -0.48809193532E+03 -0.29240524673E+04  0.30335520588E+04  0.92047069573E+02 0.  0.
        254    2    1    2    0    0 -0.63690569257E+03  0.48809193532E+03 -0.12914657283E+04  0.17725284701E+04  0.91109321767E+03 0.  0.
        -24    2    4    4    0    0 -0.63335380874E+03  0.49108048831E+03 -0.43873845371E+03  0.91721927726E+03  0.80639188782E+02 0.  0.
         24    2    4    4    0    0 -0.35518838316E+01 -0.29885529976E+01 -0.85272727457E+03  0.85530919280E+03  0.66245476506E+02 0.  0.
         11    1    3    3    0    0  0.18224251764E+03 -0.11967463665E+03 -0.65915118145E+03  0.69427273740E+03  0.00000000000E+00 0. -1.
        -11    1    3    3    0    0  0.45466317493E+03 -0.36841729867E+03 -0.22649012859E+04  0.23392793214E+04  0.00000000000E+00 0.  1.
          2    1    6    6  502    0  0.21791760252E+02  0.12994942432E+02 -0.63768098234E+03  0.63818554088E+03  0.00000000000E+00 0. -1.
          3    1    5    5  503    0 -0.54175347894E+03  0.39624200562E+03 -0.39226668184E+03  0.77741733235E+03  0.00000000000E+00 0. -1.
         -4    1    5    5    0  503 -0.91600329801E+02  0.94838482698E+02 -0.46471771871E+02  0.13980194491E+03  0.00000000000E+00 0.  1.
         -1    1    6    6    0  502 -0.25343644083E+02 -0.15983495430E+02 -0.21504629223E+03  0.21712365192E+03  0.00000000000E+00 0.  1.
<mgrwt>
<rscale>  0 0.23082063E+04</rscale>
<asrwt>0</asrwt>
<pdfrwt beam="1">  1        2 0.69396912E+00 0.23082063E+04</pdfrwt>
<pdfrwt beam="2">  1       -2 0.45427873E-01 0.23082063E+04</pdfrwt>
<totfact> 0.50481119E-01</totfact>
</mgrwt>
</event>
<event>
12    1  0.2404191E-008  0.2484085E+04  0.7818608E-02  0.8408677E-01
          1   -1    0    0  501    0  0.00000000000E+00  0.00000000000E+00  0.92083037027E+03  0.92083037027E+03  0.00000000000E+00 0. -1.
         -1   -1    0    0    0  501 -0.00000000000E+00 -0.00000000000E+00 -0.16753021654E+04  0.16753021654E+04  0.00000000000E+00 0.  1.
         23    2    1    2    0    0  0.78352291722E+03  0.70961147827E+03 -0.55948696786E+03  0.11996065915E+04  0.92594250726E+02 0.  0.
        254    2    1    2    0    0 -0.78352291722E+03 -0.70961147827E+03 -0.19498482728E+03  0.13965259442E+04  0.89152062118E+03 0.  0.
        -24    2    4    4    0    0 -0.53665849432E+03  0.62877171273E+02  0.33213204751E+02  0.54847826343E+03  0.88144258464E+02 0.  0.
         24    2    4    4    0    0 -0.24686442290E+03 -0.77248864954E+03 -0.22819803203E+03  0.84804768074E+03  0.97107002936E+02 0.  0.
         13    1    3    3    0    0  0.19941490580E+03  0.14612178983E+03 -0.16485515734E+03  0.29714492259E+03  0.00000000000E+00 0.  1.
        -13    1    3    3    0    0  0.58410801142E+03  0.56348968844E+03 -0.39463181052E+03  0.90246166891E+03  0.00000000000E+00 0. -1.
          4    1    6    6  502    0 -0.21451581123E+03 -0.66220429349E+03 -0.15940601657E+03  0.71410211994E+03  0.00000000000E+00 0. -1.
          3    1    5    5  503    0 -0.29803025796E+03  0.31585665386E+02  0.62144172310E+02  0.30607447961E+03  0.00000000000E+00 0. -1.
         -4    1    5    5    0  503 -0.23862823635E+03  0.31291505887E+02 -0.28930967559E+02  0.24240378382E+03  0.00000000000E+00 0.  1.
         -3    1    6    6    0  502 -0.32348611671E+02 -0.11028435606E+03 -0.68792015460E+02  0.13394556080E+03  0.00000000000E+00 0.  1.
<mgrwt>
<rscale>  0 0.24840846E+04</rscale>
<asrwt>0</asrwt>
<pdfrwt beam="1">  1        1 0.14166621E+00 0.24840846E+04</pdfrwt>
<pdfrwt beam="2">  1       -1 0.25773879E+00 0.24840846E+04</pdfrwt>
<totfact> 0.96613432E-01</totfact>
</mgrwt>
</event>
<event>
12    1  0.2404191E-008  0.1433997E+04  0.7818608E-02  0.8929571E-01
         -2   -1    0    0    0  501 -0.00000000000E+00  0.00000000000E+00  0.49647052868E+03  0.49647052868E+03  0.00000000000E+00 0.  1.
          2   -1    0    0  501    0  0.00000000000E+00 -0.00000000000E+00 -0.10354837360E+04  0.10354837360E+04  0.00000000000E+00 0. -1.
         23    2    1    2    0    0  0.12251977620E+03  0.35370698720E+03 -0.37715878649E+03  0.53945788276E+03  0.92985636974E+02 0.  0.
        254    2    1    2    0    0 -0.12251977620E+03 -0.35370698720E+03 -0.16185442078E+03  0.99249638187E+03  0.90483837570E+03 0.  0.
        -24    2    4    4    0    0 -0.47212328422E+03 -0.37092983515E+03 -0.17417503873E+03  0.63036133182E+03  0.80803010022E+02 0.  0.
         24    2    4    4    0    0  0.34960350802E+03  0.17222847944E+02  0.12320617944E+02  0.36213505005E+03  0.92036718446E+02 0.  0.
         13    1    3    3    0    0  0.12722110487E+03  0.26241425775E+03 -0.31282800446E+03  0.42767722942E+03  0.00000000000E+00 0. -1.
        -13    1    3    3    0    0 -0.47013286686E+01  0.91292729456E+02 -0.64330782036E+02  0.11178065334E+03  0.00000000000E+00 0.  1.
          4    1    6    6  502    0  0.29478232413E+03  0.41311792714E+02  0.31336483208E+02  0.29930796517E+03  0.00000000000E+00 0. -1.
          3    1    5    5  503    0 -0.13311512604E+03 -0.10024630149E+03 -0.86581961426E+02  0.18779082456E+03  0.00000000000E+00 0. -1.
         -4    1    5    5    0  503 -0.33900815818E+03 -0.27068353366E+03 -0.87593077300E+02  0.44257050726E+03  0.00000000000E+00 0.  1.
         -3    1    6    6    0  502  0.54821183888E+02 -0.24088944770E+02 -0.19015865264E+02  0.62827084882E+02  0.00000000000E+00 0.  1.
<mgrwt>
<rscale>  0 0.14339974E+04</rscale>
<asrwt>0</asrwt>
<pdfrwt beam="1">  1        2 0.15930519E+00 0.14339974E+04</pdfrwt>
<pdfrwt beam="2">  1       -2 0.76380081E-01 0.14339974E+04</pdfrwt>
<totfact> 0.35601176E+01</totfact>
</mgrwt>
</event>
<event>
12    1  0.2404191E-008  0.1893784E+04  0.7818608E-02  0.8657957E-01
          2   -1    0    0  501    0  0.00000000000E+00  0.00000000000E+00  0.11703121499E+04  0.11703121499E+04  0.00000000000E+00 0.  1.
         -2   -1    0    0    0  501 -0.00000000000E+00 -0.00000000000E+00 -0.76612423273E+03  0.76612423273E+03  0.00000000000E+00 0. -1.
         23    2    1    2    0    0 -0.32685616195E+03 -0.32932391945E+03  0.72994830771E+03  0.87046838822E+03  0.97987185057E+02 0.  0.
        254    2    1    2    0    0  0.32685616195E+03  0.32932391945E+03 -0.32576039054E+03  0.10659679944E+04  0.90270634124E+03 0.  0.
        -24    2    4    4    0    0 -0.25332453064E+02  0.40279160553E+03 -0.51080640004E+03  0.65613545286E+03  0.81900815080E+02 0.  0.
         24    2    4    4    0    0  0.35218861502E+03 -0.73467686081E+02  0.18504600950E+03  0.40983254155E+03  0.65470337044E+02 0.  0.
         13    1    3    3    0    0 -0.16364781994E+03 -0.23141491181E+03  0.41754417021E+03  0.50465493602E+03  0.00000000000E+00 0.  1.
        -13    1    3    3    0    0 -0.16320834202E+03 -0.97909007643E+02  0.31240413750E+03  0.36581345220E+03  0.00000000000E+00 0. -1.
          2    1    6    6  502    0  0.29978364947E+03 -0.56441194665E+02  0.12890320487E+03  0.33116745185E+03  0.00000000000E+00 0. -1.
          1    1    5    5  503    0 -0.39607091490E+02  0.12555648543E+03 -0.19957581469E+03  0.23908922715E+03  0.00000000000E+00 0. -1.
         -2    1    5    5    0  503  0.14274638425E+02  0.27723512011E+03 -0.31123058535E+03  0.41704622571E+03  0.00000000000E+00 0.  1.
         -1    1    6    6    0  502  0.52404965553E+02 -0.17026491416E+02  0.56142804633E+02  0.78665089694E+02  0.00000000000E+00 0.  1.
<mgrwt>
<rscale>  0 0.18937840E+04</rscale>
<asrwt>0</asrwt>
<pdfrwt beam="1">  1        2 0.18004802E+00 0.18937840E+04</pdfrwt>
<pdfrwt beam="2">  1       -2 0.11786527E+00 0.18937840E+04</pdfrwt>
<totfact> 0.10267744E+01</totfact>
</mgrwt>
</event>
<event>
12    1  0.2404191E-008  0.1594586E+04  0.7818608E-02  0.8823881E-01
          2   -1    0    0  501    0  0.00000000000E+00  0.00000000000E+00  0.46350312166E+03  0.46350312166E+03  0.00000000000E+00 0. -1.
         -2   -1    0    0    0  501 -0.00000000000E+00 -0.00000000000E+00 -0.13714604537E+04  0.13714604537E+04  0.00000000000E+00 0.  1.
         23    2    1    2    0    0 -0.30266694627E+03  0.18419895914E+03  0.15564352059E+03  0.39888952769E+03  0.96702703615E+02 0.  0.
        254    2    1    2    0    0  0.30266694627E+03 -0.18419895914E+03 -0.10636008527E+04  0.14360740477E+04  0.89751064604E+03 0.  0.
        -24    2    4    4    0    0  0.52459208129E+03  0.89660658704E+02 -0.87197957085E+03  0.10247460179E+04  0.80747407117E+02 0.  0.
         24    2    4    4    0    0 -0.22192513501E+03 -0.27385961784E+03 -0.19162128182E+03  0.41132802979E+03  0.90676218572E+02 0.  0.
         11    1    3    3    0    0 -0.18633651746E+03  0.14992387226E+03  0.66066177666E+02  0.24811933630E+03  0.00000000000E+00 0.  1.
        -11    1    3    3    0    0 -0.11633042881E+03  0.34275086882E+02  0.89577342926E+02  0.15077019140E+03  0.00000000000E+00 0. -1.
          2    1    6    6  502    0 -0.20446583905E+03 -0.23887104551E+03 -0.13423074472E+03  0.34188236069E+03  0.00000000000E+00 0. -1.
          1    1    5    5  503    0  0.24084712939E+03  0.78002635647E+02 -0.44438343133E+03  0.51143756700E+03  0.00000000000E+00 0. -1.
         -2    1    5    5    0  503  0.28374495190E+03  0.11658023057E+02 -0.42759613952E+03  0.51330845090E+03  0.00000000000E+00 0.  1.
         -1    1    6    6    0  502 -0.17459295961E+02 -0.34988572331E+02 -0.57390537096E+02  0.69445669104E+02  0.00000000000E+00 0.  1.
<mgrwt>
<rscale>  0 0.15945861E+04</rscale>
<asrwt>0</asrwt>
<pdfrwt beam="1">  1        2 0.71308174E-01 0.15945861E+04</pdfrwt>
<pdfrwt beam="2">  1       -2 0.21099391E+00 0.15945861E+04</pdfrwt>
<totfact> 0.72707395E+00</totfact>
</mgrwt>
</event>
<event>
12    1  0.2404191E-008  0.1435225E+04  0.7818608E-02  0.8928708E-01
          1   -1    0    0  501    0  0.00000000000E+00  0.00000000000E+00  0.47182040691E+03  0.47182040691E+03  0.00000000000E+00 0. -1.
         -1   -1    0    0    0  501 -0.00000000000E+00 -0.00000000000E+00 -0.10914485637E+04  0.10914485637E+04  0.00000000000E+00 0.  1.
         23    2    1    2    0    0  0.39296270667E+03  0.70836478033E+02 -0.90362660396E+01  0.40957198319E+03  0.90719677334E+02 0.  0.
        254    2    1    2    0    0 -0.39296270667E+03 -0.70836478033E+02 -0.61059189070E+03  0.11536969874E+04  0.89373194316E+03 0.  0.
        -24    2    4    4    0    0 -0.15634624347E+02 -0.23602740020E+03 -0.68616149358E+03  0.73011860829E+03  0.79386470993E+02 0.  0.
         24    2    4    4    0    0 -0.37732808233E+03  0.16519092217E+03  0.75569602882E+02  0.42357837908E+03  0.63587387637E+02 0.  0.
         11    1    3    3    0    0  0.28649234956E+02  0.23764038480E+00  0.23503108060E+02  0.37057134604E+02  0.00000000000E+00 0.  1.
        -11    1    3    3    0    0  0.36431347172E+03  0.70598837649E+02 -0.32539374100E+02  0.37251484859E+03  0.00000000000E+00 0. -1.
          4    1    6    6  502    0 -0.23040399854E+03  0.70182858667E+02  0.57933119209E+02  0.24772541754E+03  0.00000000000E+00 0. -1.
          1    1    5    5  503    0 -0.32662738876E+02 -0.67860119277E+02 -0.28542009598E+03  0.29518889120E+03  0.00000000000E+00 0. -1.
         -2    1    5    5    0  503  0.17028114529E+02 -0.16816728092E+03 -0.40074139760E+03  0.43492971709E+03  0.00000000000E+00 0.  1.
         -3    1    6    6    0  502 -0.14692408379E+03  0.95008063499E+02  0.17636483673E+02  0.17585296154E+03  0.00000000000E+00 0.  1.
<mgrwt>
<rscale>  0 0.14352250E+04</rscale>
<asrwt>0</asrwt>
<pdfrwt beam="1">  1        1 0.72587756E-01 0.14352250E+04</pdfrwt>
<pdfrwt beam="2">  1       -1 0.16791516E+00 0.14352250E+04</pdfrwt>
<totfact> 0.11899212E+01</totfact>
</mgrwt>
</event>
<event>
11    1  0.2404191E-008  0.1652021E+04  0.7818608E-02  0.8789212E-01
         -1   -1    0    0    0  501 -0.00000000000E+00  0.00000000000E+00  0.63441921758E+03  0.63441921758E+03  0.00000000000E+00 0.  1.
          1   -1    0    0  501    0  0.00000000000E+00 -0.00000000000E+00 -0.10754607969E+04  0.10754607969E+04  0.00000000000E+00 0. -1.
         23    2    1    2    0    0 -0.44804873008E+03 -0.22299687268E+03 -0.45743306476E+03  0.68665815820E+03  0.10853178214E+03 0.  0.
        254    2    1    2    0    0  0.44804873008E+03  0.22299687268E+03  0.16391485443E+02  0.10232218563E+04  0.89232226051E+03 0.  0.
        -24    2    4    4    0    0  0.36220389847E+03 -0.86595944412E+02  0.37138571237E+03  0.53170091317E+03  0.78025585947E+02 0.  0.
         13    1    3    3    0    0 -0.17613265670E+03 -0.84879962194E+02 -0.10993374189E+03  0.22430503415E+03  0.00000000000E+00 0.  1.
        -13    1    3    3    0    0 -0.27191607338E+03 -0.13811691049E+03 -0.34749932287E+03  0.46235312405E+03  0.00000000000E+00 0. -1.
          2    1    4    4  502    0 -0.17894819655E+02  0.68055098636E+01 -0.13147992988E+02  0.23225185782E+02  0.00000000000E+00 0. -1.
          3    1    5    5  503    0  0.15944509454E+03  0.46538004333E+00  0.14394206810E+03  0.21480752715E+03  0.00000000000E+00 0. -1.
         -4    1    5    5    0  503  0.20275880393E+03 -0.87061324455E+02  0.22744364427E+03  0.31689338602E+03  0.00000000000E+00 0.  1.
         -1    1    4    4    0  502  0.10373965126E+03  0.30278730723E+03 -0.34184623394E+03  0.46829575732E+03  0.00000000000E+00 0.  1.
<mgrwt>
<rscale>  0 0.16520206E+04</rscale>
<asrwt>0</asrwt>
<pdfrwt beam="1">  1        1 0.16545551E+00 0.16520206E+04</pdfrwt>
<pdfrwt beam="2">  1       -1 0.97602957E-01 0.16520206E+04</pdfrwt>
<totfact> 0.12738056E+01</totfact>
</mgrwt>
</event>
<event>
12    1  0.2404191E-008  0.1031651E+04  0.7818608E-02  0.9274496E-01
         -1   -1    0    0    0  501 -0.00000000000E+00  0.00000000000E+00  0.89477500170E+02  0.89477500170E+02  0.00000000000E+00 0.  1.
          1   -1    0    0  501    0  0.00000000000E+00 -0.00000000000E+00 -0.29736628339E+04  0.29736628339E+04  0.00000000000E+00 0. -1.
         23    2    1    2    0    0 -0.31394942056E+02  0.21264646453E+02 -0.55776554140E+03  0.56629303203E+03  0.90263898560E+02 0.  0.
        254    2    1    2    0    0  0.31394942056E+02 -0.21264646453E+02 -0.23264197924E+04  0.24968473021E+04  0.90585847237E+03 0.  0.
        -24    2    4    4    0    0 -0.33789282589E+03  0.25861827717E+03 -0.11038822705E+04  0.11858242182E+04  0.81043409121E+02 0.  0.
         24    2    4    4    0    0  0.36928776794E+03 -0.27988292362E+03 -0.12225375219E+04  0.13110230839E+04  0.97342835922E+02 0.  0.
         11    1    3    3    0    0  0.58672589897E+01  0.25633447938E+01  0.54690513162E+00  0.64260851074E+01  0.00000000000E+00 0.  1.
        -11    1    3    3    0    0 -0.37262201046E+02  0.18701301659E+02 -0.55831244653E+03  0.55986694693E+03  0.00000000000E+00 0. -1.
          4    1    6    6  502    0  0.29790858291E+03 -0.18012622993E+03 -0.83938918810E+03  0.90871843360E+03  0.00000000000E+00 0. -1.
          1    1    5    5  503    0 -0.33389134059E+03  0.26455433117E+03 -0.10857424188E+04  0.11663228633E+04  0.00000000000E+00 0. -1.
         -2    1    5    5    0  503 -0.40014852966E+01 -0.59360539975E+01 -0.18139851659E+02  0.19501354821E+02  0.00000000000E+00 0.  1.
         -3    1    6    6    0  502  0.71379185034E+02 -0.99756693695E+02 -0.38314833377E+03  0.40230465031E+03  0.00000000000E+00 0.  1.
<mgrwt>
<rscale>  0 0.10316509E+04</rscale>
<asrwt>0</asrwt>
<pdfrwt beam="1">  1        1 0.45748661E+00 0.10316509E+04</pdfrwt>
<pdfrwt beam="2">  1       -1 0.13765769E-01 0.10316509E+04</pdfrwt>
<totfact> 0.24139527E+01</totfact>
</mgrwt>
</event>
<event>
11    1  0.2404191E-008  0.1288726E+04  0.7818608E-02  0.9038554E-01
         -2   -1    0    0    0  501 -0.00000000000E+00  0.00000000000E+00  0.12348364215E+03  0.12348364215E+03  0.00000000000E+00 0.  1.
          2   -1    0    0  501    0  0.00000000000E+00 -0.00000000000E+00 -0.33624162969E+04  0.33624162969E+04  0.00000000000E+00 0. -1.
         23    2    1    2    0    0 -0.19027799235E+03 -0.12046064269E+03 -0.19770902761E+03  0.31337257184E+03  0.91635300912E+02 0.  0.
        254    2    1    2    0    0  0.19027799235E+03  0.12046064269E+03 -0.30412236272E+04  0.31725273672E+04  0.87474125583E+03 0.  0.
        -24    2    4    4    0    0  0.44258864072E+03  0.21911999923E+03 -0.11328561035E+04  0.12383709122E+04  0.79380640111E+02 0.  0.
         13    1    3    3    0    0 -0.18656660583E+03 -0.85019440295E+02 -0.18301461224E+03  0.27482676714E+03  0.00000000000E+00 0.  1.
        -13    1    3    3    0    0 -0.37113865141E+01 -0.35441202399E+02 -0.14694415369E+02  0.38545804705E+02  0.00000000000E+00 0. -1.
          4    1    4    4  502    0 -0.60386018596E+02 -0.94185707665E+02 -0.47547423159E+03  0.48845999189E+03  0.00000000000E+00 0. -1.
          3    1    5    5  503    0  0.33989028845E+02  0.34995316270E+02 -0.74697849457E+02  0.89217122551E+02  0.00000000000E+00 0. -1.
         -4    1    5    5    0  503  0.40859961188E+03  0.18412468296E+03 -0.10581582541E+04  0.11491537897E+04  0.00000000000E+00 0.  1.
         -3    1    4    4    0  502 -0.19192462978E+03 -0.44736488705E+01 -0.14328932921E+04  0.14456964631E+04  0.00000000000E+00 0.  1.
<mgrwt>
<rscale>  0 0.12887256E+04</rscale>
<asrwt>0</asrwt>
<pdfrwt beam="1">  1        2 0.51729481E+00 0.12887256E+04</pdfrwt>
<pdfrwt beam="2">  1       -2 0.18997484E-01 0.12887256E+04</pdfrwt>
<totfact> 0.23634528E+01</totfact>
</mgrwt>
</event>
<event>
11    1  0.2404191E-008  0.2143274E+04  0.7818608E-02  0.8542417E-01
          2   -1    0    0  501    0  0.00000000000E+00  0.00000000000E+00  0.18554163992E+04  0.18554163992E+04  0.00000000000E+00 0. -1.
         -2   -1    0    0    0  501 -0.00000000000E+00 -0.00000000000E+00 -0.61894759267E+03  0.61894759267E+03  0.00000000000E+00 0.  1.
         23    2    1    2    0    0  0.39465659494E+03 -0.78442300158E+03  0.46805064947E+03  0.99910917388E+03  0.89857985224E+02 0.  0.
        254    2    1    2    0    0 -0.39465659494E+03  0.78442300158E+03  0.76841815703E+03  0.14752548180E+04  0.90268324485E+03 0.  0.
        -24    2    4    4    0    0 -0.39675805404E+03  0.95979167309E+03  0.59042040835E+03  0.11972144715E+04  0.78161518939E+02 0.  0.
         13    1    3    3    0    0  0.28424556975E+03 -0.60990246497E+03  0.39381243968E+03  0.77965684653E+03  0.00000000000E+00 0. -1.
        -13    1    3    3    0    0  0.11041102519E+03 -0.17452053661E+03  0.74238209794E+02  0.21945232734E+03  0.00000000000E+00 0.  1.
          2    1    4    4  502    0 -0.37678645463E+02 -0.13734381032E+02  0.95558329259E+01  0.41226538651E+02  0.00000000000E+00 0. -1.
          1    1    5    5  503    0 -0.47407044594E+02  0.14541894175E+03  0.58977621782E+02  0.16392820492E+03  0.00000000000E+00 0. -1.
         -2    1    5    5    0  503 -0.34935100945E+03  0.81437273134E+03  0.53144278657E+03  0.10332862666E+04  0.00000000000E+00 0.  1.
         -1    1    4    4    0  502  0.39780104565E+02 -0.16163429048E+03  0.16844191575E+03  0.23681380779E+03  0.00000000000E+00 0.  1.
<mgrwt>
<rscale>  0 0.21432737E+04</rscale>
<asrwt>0</asrwt>
<pdfrwt beam="1">  1        2 0.28544867E+00 0.21432737E+04</pdfrwt>
<pdfrwt beam="2">  1       -2 0.95222707E-01 0.21432737E+04</pdfrwt>
<totfact> 0.68422499E+00</totfact>
</mgrwt>
</event>
<event>
11    1  0.2404191E-008  0.1742317E+04  0.7818608E-02  0.8737591E-01
         -1   -1    0    0    0  501 -0.00000000000E+00  0.00000000000E+00  0.12541397500E+04  0.12541397500E+04  0.00000000000E+00 0.  1.
          1   -1    0    0  501    0  0.00000000000E+00 -0.00000000000E+00 -0.60512950961E+03  0.60512950961E+03  0.00000000000E+00 0. -1.
         23    2    1    2    0    0  0.16378949496E+03 -0.30876548726E+03 -0.31670465959E+03  0.48054738636E+03  0.91982739420E+02 0.  0.
        254    2    1    2    0    0 -0.16378949496E+03  0.30876548726E+03  0.96571489995E+03  0.13787218732E+04  0.91983999203E+03 0.  0.
        -24    2    4    4    0    0 -0.28205341843E+03 -0.19350771280E+03  0.65111859269E+03  0.73968072883E+03  0.78567124816E+02 0.  0.
         13    1    3    3    0    0 -0.82719451404E+01 -0.16313435147E+02 -0.31874445878E+01  0.18566449464E+02  0.00000000000E+00 0.  1.
        -13    1    3    3    0    0  0.17206144010E+03 -0.29245205212E+03 -0.31351721500E+03  0.46198093690E+03  0.00000000000E+00 0. -1.
          4    1    4    4  502    0  0.16717965498E+02 -0.17497898580E+01  0.65696331682E+02  0.67812684149E+02  0.00000000000E+00 0. -1.
          1    1    5    5  503    0 -0.54806738908E+02 -0.65735105381E+02  0.11316975169E+03  0.14188824971E+03  0.00000000000E+00 0. -1.
         -2    1    5    5    0  503 -0.22724667952E+03 -0.12777260742E+03  0.53794884100E+03  0.59779247912E+03  0.00000000000E+00 0.  1.
         -3    1    4    4    0  502  0.10154595798E+03  0.50402298992E+03  0.24889997557E+03  0.57122846024E+03  0.00000000000E+00 0.  1.
<mgrwt>
<rscale>  0 0.17423168E+04</rscale>
<asrwt>0</asrwt>
<pdfrwt beam="1">  1        1 0.93096848E-01 0.17423168E+04</pdfrwt>
<pdfrwt beam="2">  1       -1 0.19294458E+00 0.17423168E+04</pdfrwt>
<totfact> 0.54039667E+00</totfact>
</mgrwt>
</event>
<event>
11    1  0.2404191E-008  0.1616060E+04  0.7818608E-02  0.8810742E-01
          2   -1    0    0  501    0  0.00000000000E+00  0.00000000000E+00  0.84123349620E+03  0.84123349620E+03  0.00000000000E+00 0. -1.
         -2   -1    0    0    0  501 -0.00000000000E+00 -0.00000000000E+00 -0.77613686811E+03  0.77613686811E+03  0.00000000000E+00 0.  1.
         23    2    1    2    0    0  0.46651358696E+03 -0.69672189723E+02  0.30926653446E+03  0.57134969601E+03  0.91134762602E+02 0.  0.
        254    2    1    2    0    0 -0.46651358696E+03  0.69672189723E+02 -0.24416990637E+03  0.10460206683E+04  0.90113880978E+03 0.  0.
        -24    2    4    4    0    0 -0.69044937656E+01 -0.26735950684E+03 -0.34008254562E+03  0.44121435593E+03  0.86517004770E+02 0.  0.
         13    1    3    3    0    0  0.18976867014E+02  0.79562633395E+01  0.35426515546E+02  0.40969032351E+02  0.00000000000E+00 0.  1.
        -13    1    3    3    0    0  0.44753671995E+03 -0.77628453063E+02  0.27384001891E+03  0.53038066366E+03  0.00000000000E+00 0. -1.
          4    1    4    4  502    0 -0.22873106637E+02  0.94940663386E+02  0.10695130260E+02  0.98241001536E+02  0.00000000000E+00 0. -1.
          1    1    5    5  503    0  0.28234282043E+02 -0.31085363483E+02 -0.44703791318E+02  0.61334357937E+02  0.00000000000E+00 0. -1.
         -2    1    5    5    0  503 -0.35138775809E+02 -0.23627414335E+03 -0.29537875430E+03  0.37987999799E+03  0.00000000000E+00 0.  1.
         -3    1    4    4    0  502 -0.43673598656E+03  0.24209103317E+03  0.85217508992E+02  0.50656531083E+03  0.00000000000E+00 0.  1.
<mgrwt>
<rscale>  0 0.16160598E+04</rscale>
<asrwt>0</asrwt>
<pdfrwt beam="1">  1        2 0.12942054E+00 0.16160598E+04</pdfrwt>
<pdfrwt beam="2">  1       -2 0.11940567E+00 0.16160598E+04</pdfrwt>
<totfact> 0.16574279E+01</totfact>
</mgrwt>
</event>
<event>
12    1  0.2404191E-008  0.1359139E+04  0.7818608E-02  0.8983938E-01
          2   -1    0    0  501    0  0.00000000000E+00  0.00000000000E+00  0.23454500480E+04  0.23454500480E+04  0.00000000000E+00 0.  1.
         -2   -1    0    0    0  501 -0.00000000000E+00 -0.00000000000E+00 -0.19689825459E+03  0.19689825459E+03  0.00000000000E+00 0. -1.
         23    2    1    2    0    0 -0.67117921404E+02 -0.34160167973E+03  0.85580214086E+03  0.92836367956E+03  0.90913663731E+02 0.  0.
        254    2    1    2    0    0  0.67117921404E+02  0.34160167973E+03  0.12927496525E+04  0.16139846230E+04  0.90141454183E+03 0.  0.
        -24    2    4    4    0    0  0.40974183762E+03 -0.49429213117E+02  0.72827415977E+03  0.84087392683E+03  0.79712536234E+02 0.  0.
         24    2    4    4    0    0 -0.34262391621E+03  0.39103089284E+03  0.56447549277E+03  0.77311069618E+03  0.93655002535E+02 0.  0.
         13    1    3    3    0    0 -0.80503839553E+01 -0.80735150769E+02  0.11488872543E+03  0.14064989329E+03  0.00000000000E+00 0. -1.
        -13    1    3    3    0    0 -0.59067537448E+02 -0.26086652896E+03  0.74091341543E+03  0.78771378627E+03  0.00000000000E+00 0.  1.
          2    1    6    6  502    0 -0.23871508578E+03  0.26940190091E+03  0.45075339630E+03  0.57683697928E+03  0.00000000000E+00 0. -1.
          3    1    5    5  503    0  0.32555022428E+03 -0.44544817487E+02  0.50797062959E+03  0.60498045408E+03  0.00000000000E+00 0. -1.
         -4    1    5    5    0  503  0.84191613339E+02 -0.48843956291E+01  0.22030353017E+03  0.23589347275E+03  0.00000000000E+00 0.  1.
         -1    1    6    6    0  502 -0.10390883043E+03  0.12162899194E+03  0.11372209647E+03  0.19627371690E+03  0.00000000000E+00 0.  1.
<mgrwt>
<rscale>  0 0.13591395E+04</rscale>
<asrwt>0</asrwt>
<pdfrwt beam="1">  1        2 0.36083845E+00 0.13591395E+04</pdfrwt>
<pdfrwt beam="2">  1       -2 0.30292041E-01 0.13591395E+04</pdfrwt>
<totfact> 0.42106766E+01</totfact>
</mgrwt>
</event>
<event>
12    1  0.2404191E-008  0.2845989E+04  0.7818608E-02  0.8289131E-01
          2   -1    0    0  501    0  0.00000000000E+00  0.00000000000E+00  0.18292827149E+04  0.18292827149E+04  0.00000000000E+00 0. -1.
         -2   -1    0    0    0  501 -0.00000000000E+00 -0.00000000000E+00 -0.11069436373E+04  0.11069436373E+04  0.00000000000E+00 0.  1.
         23    2    1    2    0    0  0.42992441552E+03 -0.12022864737E+04  0.25235591529E+03  0.13048452966E+04  0.92789935366E+02 0.  0.
        254    2    1    2    0    0 -0.42992441552E+03  0.12022864737E+04  0.46998316226E+03  0.16313810556E+04  0.90010677570E+03 0.  0.
        -24    2    4    4    0    0 -0.52609483374E+03  0.35610549051E+03  0.43437698939E+03  0.77369907404E+03  0.79624078013E+02 0.  0.
         24    2    4    4    0    0  0.96170418218E+02  0.84618098323E+03  0.35606172871E+02  0.85768198153E+03  0.95286810059E+02 0.  0.
         13    1    3    3    0    0  0.25654952572E+03 -0.67024992412E+03  0.18576615743E+03  0.74132427801E+03  0.00000000000E+00 0.  1.
        -13    1    3    3    0    0  0.17337488980E+03 -0.53203654963E+03  0.66589757860E+02  0.56352101860E+03  0.00000000000E+00 0. -1.
          2    1    6    6  502    0  0.48091337379E+02  0.59818382294E+03 -0.13840373027E+02  0.60027345326E+03  0.00000000000E+00 0. -1.
          1    1    5    5  503    0 -0.47253683674E+03  0.32439080097E+03  0.41781905956E+03  0.70929064590E+03  0.00000000000E+00 0. -1.
         -2    1    5    5    0  503 -0.53557997004E+02  0.31714689544E+02  0.16557929836E+02  0.64408428148E+02  0.00000000000E+00 0.  1.
         -1    1    6    6    0  502  0.48079080839E+02  0.24799716029E+03  0.49446545897E+02  0.25740852827E+03  0.00000000000E+00 0.  1.
<mgrwt>
<rscale>  0 0.28459887E+04</rscale>
<asrwt>0</asrwt>
<pdfrwt beam="1">  1        2 0.28142811E+00 0.28459887E+04</pdfrwt>
<pdfrwt beam="2">  1       -2 0.17029902E+00 0.28459887E+04</pdfrwt>
<totfact> 0.15284072E+00</totfact>
</mgrwt>
</event>
<event>
12    1  0.2404191E-008  0.1167442E+04  0.7818608E-02  0.9141842E-01
          1   -1    0    0  501    0  0.00000000000E+00  0.00000000000E+00  0.11500567395E+04  0.11500567395E+04  0.00000000000E+00 0. -1.
         -1   -1    0    0    0  501 -0.00000000000E+00 -0.00000000000E+00 -0.29627234932E+03  0.29627234932E+03  0.00000000000E+00 0.  1.
         23    2    1    2    0    0 -0.13362883836E+03  0.15523411304E+02 -0.25449605049E+02  0.16471884715E+03  0.91580420774E+02 0.  0.
        254    2    1    2    0    0  0.13362883836E+03 -0.15523411304E+02  0.87923399526E+03  0.12816102417E+04  0.92269970763E+03 0.  0.
        -24    2    4    4    0    0 -0.19204052176E+02  0.25002220161E+03 -0.77636024237E+02  0.27478663810E+03  0.81243136953E+02 0.  0.
         24    2    4    4    0    0  0.15283289054E+03 -0.26554561292E+03  0.95687001950E+03  0.10068236036E+04  0.64970528420E+02 0.  0.
         11    1    3    3    0    0 -0.15715804478E+02 -0.11743921387E+02  0.26536313964E+02  0.33001244806E+02  0.00000000000E+00 0. -1.
        -11    1    3    3    0    0 -0.11791303388E+03  0.27267332691E+02 -0.51985919014E+02  0.13171760234E+03  0.00000000000E+00 0.  1.
          2    1    6    6  502    0  0.87938872616E+01 -0.68063681876E+02  0.19760236410E+03  0.20918100186E+03  0.00000000000E+00 0. -1.
          1    1    5    5  503    0  0.12445662164E+02  0.13541468487E+01 -0.56406951882E+00  0.12531815304E+02  0.00000000000E+00 0. -1.
         -2    1    5    5    0  503 -0.31649714339E+02  0.24866805476E+03 -0.77071954718E+02  0.26225482280E+03  0.00000000000E+00 0.  1.
         -1    1    6    6    0  502  0.14403900328E+03 -0.19748193104E+03  0.75926765540E+03  0.79764260173E+03  0.00000000000E+00 0.  1.
<mgrwt>
<rscale>  0 0.11674417E+04</rscale>
<asrwt>0</asrwt>
<pdfrwt beam="1">  1        1 0.17693180E+00 0.11674417E+04</pdfrwt>
<pdfrwt beam="2">  1       -1 0.45580362E-01 0.11674417E+04</pdfrwt>
<totfact> 0.55141803E+01</totfact>
</mgrwt>
</event>
<event>
11    1  0.2404191E-008  0.3055236E+04  0.7818608E-02  0.8228131E-01
          1   -1    0    0  501    0  0.00000000000E+00  0.00000000000E+00  0.51774978004E+04  0.51774978004E+04  0.00000000000E+00 0. -1.
         -1   -1    0    0    0  501 -0.00000000000E+00 -0.00000000000E+00 -0.45072298073E+03  0.45072298073E+03  0.00000000000E+00 0.  1.
         23    2    1    2    0    0  0.16885308207E+03 -0.10319275910E+04  0.38017581438E+04  0.39440296196E+04  0.92837172696E+02 0.  0.
        254    2    1    2    0    0 -0.16885308207E+03  0.10319275910E+04  0.92501667594E+03  0.16841911615E+04  0.94204994637E+03 0.  0.
        -24    2    4    4    0    0 -0.27192425942E+03  0.17605945983E+03 -0.84500859320E+02  0.34335524605E+03  0.76241022465E+02 0.  0.
         11    1    3    3    0    0  0.87303718955E+02 -0.38418612679E+03  0.15760773463E+04  0.16245740121E+04  0.00000000000E+00 0.  1.
        -11    1    3    3    0    0  0.81549363113E+02 -0.64774146418E+03  0.22256807974E+04  0.23194556075E+04  0.00000000000E+00 0. -1.
          4    1    4    4  502    0  0.26461073678E+02  0.75123140266E+03  0.83673883355E+03  0.11248025090E+04  0.00000000000E+00 0. -1.
          1    1    5    5  503    0 -0.26256506643E+03  0.17829317652E+03 -0.68503224030E+02  0.32468686855E+03  0.00000000000E+00 0. -1.
         -2    1    5    5    0  503 -0.93591929889E+01 -0.22337166921E+01 -0.15997635290E+02  0.18668377502E+02  0.00000000000E+00 0.  1.
         -3    1    4    4    0  502  0.76610103673E+02  0.10463672848E+03  0.17277870171E+03  0.21603340643E+03  0.00000000000E+00 0.  1.
<mgrwt>
<rscale>  0 0.30552363E+04</rscale>
<asrwt>0</asrwt>
<pdfrwt beam="1">  1        1 0.79653808E+00 0.30552363E+04</pdfrwt>
<pdfrwt beam="2">  1       -1 0.69342001E-01 0.30552363E+04</pdfrwt>
<totfact> 0.88717583E-03</totfact>
</mgrwt>
</event>
<event>
11    1  0.2404191E-008  0.1976249E+04  0.7818608E-02  0.8617806E-01
          1   -1    0    0  501    0  0.00000000000E+00  0.00000000000E+00  0.10024417029E+04  0.10024417029E+04  0.00000000000E+00 0. -1.
         -1   -1    0    0    0  501 -0.00000000000E+00 -0.00000000000E+00 -0.97401207141E+03  0.97401207141E+03  0.00000000000E+00 0.  1.
         23    2    1    2    0    0 -0.61530558250E+03 -0.12398280287E+03 -0.45187263781E+03  0.77868431832E+03  0.90485863749E+02 0.  0.
        254    2    1    2    0    0  0.61530558250E+03  0.12398280287E+03  0.48030226929E+03  0.11977694560E+04  0.89999372474E+03 0.  0.
        -24    2    4    4    0    0  0.52832306984E+03  0.43848089712E+03  0.48374887227E+03  0.84369910188E+03  0.80152603441E+02 0.  0.
         11    1    3    3    0    0 -0.54563436254E+03 -0.13305713936E+03 -0.37952556400E+03  0.67783531455E+03  0.00000000000E+00 0.  1.
        -11    1    3    3    0    0 -0.69671219955E+02  0.90743364935E+01 -0.72347073804E+02  0.10084900377E+03  0.00000000000E+00 0. -1.
          4    1    4    4  502    0 -0.36058703290E+02 -0.10257653139E+03 -0.74748312342E+01  0.10898645777E+03  0.00000000000E+00 0. -1.
          3    1    5    5  503    0  0.10048582022E+03  0.11729270882E+03  0.83611655649E+02  0.17562997628E+03  0.00000000000E+00 0. -1.
         -4    1    5    5    0  503  0.42783724962E+03  0.32118818830E+03  0.40013721662E+03  0.66806912561E+03  0.00000000000E+00 0.  1.
         -3    1    4    4    0  502  0.12304121595E+03 -0.21192156286E+03  0.40282282602E+01  0.24508389635E+03  0.00000000000E+00 0.  1.
<mgrwt>
<rscale>  0 0.19762493E+04</rscale>
<asrwt>0</asrwt>
<pdfrwt beam="1">  1        1 0.15422180E+00 0.19762493E+04</pdfrwt>
<pdfrwt beam="2">  1       -1 0.14984801E+00 0.19762493E+04</pdfrwt>
<totfact> 0.48995092E+00</totfact>
</mgrwt>
</event>
<event>
12    1  0.2404191E-008  0.2575027E+04  0.7818608E-02  0.8376734E-01
         -2   -1    0    0    0  501 -0.00000000000E+00  0.00000000000E+00  0.23621308689E+04  0.23621308689E+04  0.00000000000E+00 0.  1.
          2   -1    0    0  501    0  0.00000000000E+00 -0.00000000000E+00 -0.70177782034E+03  0.70177782034E+03  0.00000000000E+00 0. -1.
         23    2    1    2    0    0 -0.73428617303E+03 -0.81327968212E+03  0.10442511869E+04  0.15163578515E+04  0.90997621560E+02 0.  0.
        254    2    1    2    0    0  0.73428617303E+03  0.81327968212E+03  0.61610186171E+03  0.15475508378E+04  0.90262509731E+03 0.  0.
        -24    2    4    4    0    0  0.13490786713E+03 -0.52011474450E+02 -0.16435814770E+03  0.23334776985E+03  0.80822366287E+02 0.  0.
         24    2    4    4    0    0  0.59937830591E+03  0.86529115657E+03  0.78046000941E+03  0.13142030679E+04  0.10014358822E+03 0.  0.
         13    1    3    3    0    0 -0.35195768251E+03 -0.32854123488E+03  0.43175530198E+03  0.64670410087E+03  0.00000000000E+00 0.  1.
        -13    1    3    3    0    0 -0.38232849053E+03 -0.48473844724E+03  0.61249588488E+03  0.86965375058E+03  0.00000000000E+00 0. -1.
          2    1    6    6  502    0  0.38669529031E+03  0.61832053800E+03  0.57751157362E+03  0.93025434851E+03  0.00000000000E+00 0. -1.
          3    1    5    5  503    0  0.13223563920E+03 -0.37347663891E+02 -0.16892932042E+03  0.21775726755E+03  0.00000000000E+00 0. -1.
         -4    1    5    5    0  503  0.26722279232E+01 -0.14663810560E+02  0.45711727126E+01  0.15590502306E+02  0.00000000000E+00 0.  1.
         -1    1    6    6    0  502  0.21268301559E+03  0.24697061857E+03  0.20294843579E+03  0.38394871943E+03  0.00000000000E+00 0.  1.
<mgrwt>
<rscale>  0 0.25750270E+04</rscale>
<asrwt>0</asrwt>
<pdfrwt beam="1">  1        2 0.10796582E+00 0.25750270E+04</pdfrwt>
<pdfrwt beam="2">  1       -2 0.36340475E+00 0.25750270E+04</pdfrwt>
<totfact> 0.46326808E-01</totfact>
</mgrwt>
</event>
<event>
11    1  0.2404191E-008  0.1578181E+04  0.7818608E-02  0.8834066E-01
          2   -1    0    0  501    0  0.00000000000E+00  0.00000000000E+00  0.18751746176E+04  0.18751746176E+04  0.00000000000E+00 0.  1.
         -2   -1    0    0    0  501 -0.00000000000E+00 -0.00000000000E+00 -0.33205627574E+03  0.33205627574E+03  0.00000000000E+00 0. -1.
         23    2    1    2    0    0 -0.13139388120E+03  0.18492486421E+03  0.11848650896E+04  0.12099617786E+04  0.92955192093E+02 0.  0.
        254    2    1    2    0    0  0.13139388120E+03 -0.18492486421E+03  0.35825325225E+03  0.99726911472E+03  0.90262879248E+03 0.  0.
        -24    2    4    4    0    0  0.16999825296E+03  0.30121907787E+03 -0.30263785952E+02  0.35659017005E+03  0.81291535574E+02 0.  0.
         11    1    3    3    0    0  0.28465437955E+01  0.58860933351E+02  0.35989509779E+03  0.36468780306E+03  0.00000000000E+00 0. -1.
        -11    1    3    3    0    0 -0.13424042499E+03  0.12606393086E+03  0.82496999183E+03  0.84527397557E+03  0.00000000000E+00 0.  1.
          4    1    4    4  502    0 -0.31527826669E+02 -0.41530013836E+03  0.25223307649E+03  0.48691861091E+03  0.00000000000E+00 0. -1.
          1    1    5    5  503    0  0.65192530955E+02  0.10888652541E+03  0.27949660134E+02  0.12995201041E+03  0.00000000000E+00 0. -1.
         -2    1    5    5    0  503  0.10480572201E+03  0.19233255246E+03 -0.58213446086E+02  0.22663815964E+03  0.00000000000E+00 0.  1.
         -3    1    4    4    0  502 -0.70765450987E+01 -0.70843803722E+02  0.13628396172E+03  0.15376033376E+03  0.00000000000E+00 0.  1.
<mgrwt>
<rscale>  0 0.15781806E+04</rscale>
<asrwt>0</asrwt>
<pdfrwt beam="1">  1        2 0.28848840E+00 0.15781806E+04</pdfrwt>
<pdfrwt beam="2">  1       -2 0.51085582E-01 0.15781806E+04</pdfrwt>
<totfact> 0.27266247E+01</totfact>
</mgrwt>
</event>
<event>
12    1  0.2404191E-008  0.2585403E+04  0.7818608E-02  0.8373176E-01
         -2   -1    0    0    0  501 -0.00000000000E+00  0.00000000000E+00  0.98356421565E+03  0.98356421565E+03  0.00000000000E+00 0.  1.
          2   -1    0    0  501    0  0.00000000000E+00 -0.00000000000E+00 -0.16990022357E+04  0.16990022357E+04  0.00000000000E+00 0. -1.
         23    2    1    2    0    0  0.65731317594E+03 -0.43629643894E+03  0.53131776532E+03  0.95553693532E+03  0.91307574233E+02 0.  0.
        254    2    1    2    0    0 -0.65731317594E+03  0.43629643894E+03 -0.12467557853E+04  0.17270295160E+04  0.89767241630E+03 0.  0.
        -24    2    4    4    0    0 -0.27374670171E+02  0.53149784942E+03 -0.45298219044E+03  0.70340885356E+03  0.79698267894E+02 0.  0.
         24    2    4    4    0    0 -0.62993850577E+03 -0.95201410481E+02 -0.79377359490E+03  0.10236206624E+04  0.10879756899E+03 0.  0.
         13    1    3    3    0    0  0.43484959957E+02 -0.16000955399E+02  0.56167662577E+02  0.72813313587E+02  0.00000000000E+00 0. -1.
        -13    1    3    3    0    0  0.61382821598E+03 -0.42029548354E+03  0.47515010274E+03  0.88272362173E+03  0.00000000000E+00 0.  1.
          4    1    6    6  502    0 -0.28273119335E+03 -0.14818869444E+02 -0.27877000920E+03  0.39732762881E+03  0.00000000000E+00 0. -1.
          1    1    5    5  503    0 -0.15284646820E+02  0.40413011827E+03 -0.38570192104E+03  0.55885664067E+03  0.00000000000E+00 0. -1.
         -2    1    5    5    0  503 -0.12090023350E+02  0.12736773114E+03 -0.67280269407E+02  0.14455221290E+03  0.00000000000E+00 0.  1.
         -3    1    6    6    0  502 -0.34720731242E+03 -0.80382541037E+02 -0.51500358570E+03  0.62629303364E+03  0.00000000000E+00 0.  1.
<mgrwt>
<rscale>  0 0.25854035E+04</rscale>
<asrwt>0</asrwt>
<pdfrwt beam="1">  1        2 0.26138496E+00 0.25854035E+04</pdfrwt>
<pdfrwt beam="2">  1       -2 0.15131757E+00 0.25854035E+04</pdfrwt>
<totfact> 0.25461426E+00</totfact>
</mgrwt>
</event>
<event>
12    1  0.2404191E-008  0.1190354E+04  0.7818608E-02  0.9121342E-01
          1   -1    0    0  501    0  0.00000000000E+00  0.00000000000E+00  0.11576782705E+04  0.11576782705E+04  0.00000000000E+00 0. -1.
         -1   -1    0    0    0  501 -0.00000000000E+00 -0.00000000000E+00 -0.30598788695E+03  0.30598788695E+03  0.00000000000E+00 0.  1.
         23    2    1    2    0    0 -0.22906776705E+03 -0.39462239540E+02  0.84791342699E+02  0.26330451062E+03  0.90057666342E+02 0.  0.
        254    2    1    2    0    0  0.22906776705E+03  0.39462239540E+02  0.76689904089E+03  0.12003616469E+04  0.89370276607E+03 0.  0.
        -24    2    4    4    0    0  0.16229664626E+03 -0.30647192373E+03  0.75153607741E+03  0.83155835189E+03  0.80109771749E+02 0.  0.
         24    2    4    4    0    0  0.66771120792E+02  0.34593416327E+03  0.15362963481E+02  0.36880329497E+03  0.10793989921E+03 0.  0.
         11    1    3    3    0    0 -0.12091350197E+03 -0.50095859887E+02  0.82288975128E+02  0.15459995331E+03  0.00000000000E+00 0. -1.
        -11    1    3    3    0    0 -0.10815426508E+03  0.10633620348E+02  0.25023675708E+01  0.10870455731E+03  0.00000000000E+00 0.  1.
          2    1    6    6  502    0  0.90583915643E+02  0.30806944041E+03  0.27980319308E+02  0.32232766583E+03  0.00000000000E+00 0. -1.
          3    1    5    5  503    0  0.15938872074E+03 -0.23504120058E+03  0.61655132171E+03  0.67881121276E+03  0.00000000000E+00 0. -1.
         -2    1    5    5    0  503  0.29079255206E+01 -0.71430723159E+02  0.13498475570E+03  0.15274713913E+03  0.00000000000E+00 0.  1.
         -1    1    6    6    0  502 -0.23812794851E+02  0.37864722862E+02 -0.12617355827E+02  0.46475629141E+02  0.00000000000E+00 0.  1.
<mgrwt>
<rscale>  0 0.11903538E+04</rscale>
<asrwt>0</asrwt>
<pdfrwt beam="1">  1        1 0.17810435E+00 0.11903538E+04</pdfrwt>
<pdfrwt beam="2">  1       -1 0.47075060E-01 0.11903538E+04</pdfrwt>
<totfact> 0.51146791E+01</totfact>
</mgrwt>
</event>
<event>
11    1  0.2404191E-008  0.1483722E+04  0.7818608E-02  0.8895350E-01
         -1   -1    0    0    0  501 -0.00000000000E+00  0.00000000000E+00  0.68047705545E+03  0.68047705545E+03  0.00000000000E+00 0.  1.
          1   -1    0    0  501    0  0.00000000000E+00 -0.00000000000E+00 -0.80878259733E+03  0.80878259733E+03  0.00000000000E+00 0. -1.
         23    2    1    2    0    0 -0.95348445208E+02  0.41437803324E+03  0.14083882320E+03  0.45707041144E+03  0.90979703536E+02 0.  0.
        254    2    1    2    0    0  0.95348445208E+02 -0.41437803324E+03 -0.26914436508E+03  0.10321892413E+04  0.90120777862E+03 0.  0.
        -24    2    4    4    0    0  0.14590236880E+03 -0.58061891350E+03  0.95052331771E+02  0.61148152101E+03  0.80429352979E+02 0.  0.
         11    1    3    3    0    0 -0.63553701352E+02  0.12137756504E+03  0.70449579950E+02  0.15406079828E+03  0.00000000000E+00 0. -1.
        -11    1    3    3    0    0 -0.31794743856E+02  0.29300046820E+03  0.70389243252E+02  0.30300961316E+03  0.00000000000E+00 0.  1.
          4    1    4    4  502    0  0.13878191123E+02  0.11510609204E+03 -0.13927684525E+03  0.18121825580E+03  0.00000000000E+00 0. -1.
          3    1    5    5  503    0  0.64569153028E+02 -0.24845139304E+03  0.62914959503E+00  0.25670540715E+03  0.00000000000E+00 0. -1.
         -4    1    5    5    0  503  0.81333215775E+02 -0.33216752046E+03  0.94423182176E+02  0.35477611386E+03  0.00000000000E+00 0.  1.
         -3    1    4    4    0  502 -0.64432114717E+02  0.51134788230E+02 -0.22491985160E+03  0.23948946453E+03  0.00000000000E+00 0.  1.
<mgrwt>
<rscale>  0 0.14837223E+04</rscale>
<asrwt>0</asrwt>
<pdfrwt beam="1">  1        1 0.12442809E+00 0.14837223E+04</pdfrwt>
<pdfrwt beam="2">  1       -1 0.10468878E+00 0.14837223E+04</pdfrwt>
<totfact> 0.18045235E+01</totfact>
</mgrwt>
</event>
<event>
12    1  0.2404191E-008  0.1877721E+04  0.7818608E-02  0.8666026E-01
         -2   -1    0    0    0  501 -0.00000000000E+00  0.00000000000E+00  0.68865555725E+03  0.68865555725E+03  0.00000000000E+00 0.  1.
          2   -1    0    0  501    0  0.00000000000E+00 -0.00000000000E+00 -0.12799706605E+04  0.12799706605E+04  0.00000000000E+00 0. -1.
         23    2    1    2    0    0  0.53900008918E+03  0.47577510698E+03 -0.25075997709E+03  0.76692055603E+03  0.91670740099E+02 0.  0.
        254    2    1    2    0    0 -0.53900008918E+03 -0.47577510698E+03 -0.34055512611E+03  0.12017056617E+04  0.90068621329E+03 0.  0.
        -24    2    4    4    0    0 -0.72688671398E+03 -0.12883033641E+03 -0.24570012138E+03  0.78197895857E+03  0.78491983352E+02 0.  0.
         24    2    4    4    0    0  0.18788662480E+03 -0.34694477057E+03 -0.94855004729E+02  0.41972670311E+03  0.10724260241E+03 0.  0.
         11    1    3    3    0    0  0.50619490314E+02  0.54882629457E+02 -0.56302289534E+02  0.93511409050E+02  0.00000000000E+00 0.  1.
        -11    1    3    3    0    0  0.48838059886E+03  0.42089247752E+03 -0.19445768756E+03  0.67340914698E+03  0.00000000000E+00 0. -1.
          4    1    6    6  502    0  0.17603989231E+03 -0.23597682552E+03 -0.90660439274E+02  0.30804938097E+03  0.00000000000E+00 0. -1.
          3    1    5    5  503    0 -0.39232652528E+03 -0.77497819461E+02 -0.92600018729E+02  0.41048846260E+03  0.00000000000E+00 0. -1.
         -4    1    5    5    0  503 -0.33456018870E+03 -0.51332516949E+02 -0.15310010265E+03  0.37149049596E+03  0.00000000000E+00 0.  1.
         -3    1    6    6    0  502  0.11846732494E+02 -0.11096794506E+03 -0.41945654553E+01  0.11167732214E+03  0.00000000000E+00 0.  1.
<mgrwt>
<rscale>  0 0.18777209E+04</rscale>
<asrwt>0</asrwt>
<pdfrwt beam="1">  1        2 0.19691856E+00 0.18777209E+04</pdfrwt>
<pdfrwt beam="2">  1       -2 0.10594701E+00 0.18777209E+04</pdfrwt>
<totfact> 0.11465072E+01</totfact>
</mgrwt>
</event>
<event>
11    1  0.2404191E-008  0.2736508E+04  0.7818608E-02  0.8323256E-01
          2   -1    0    0  501    0  0.00000000000E+00  0.00000000000E+00  0.90463721495E+03  0.90463721495E+03  0.00000000000E+00 0. -1.
         -2   -1    0    0    0  501 -0.00000000000E+00 -0.00000000000E+00 -0.20694692683E+04  0.20694692683E+04  0.00000000000E+00 0.  1.
         23    2    1    2    0    0 -0.10441930806E+04  0.19775692029E+03  0.12748231073E+03  0.10741174794E+04  0.89608207238E+02 0.  0.
        254    2    1    2    0    0  0.10441930806E+04 -0.19775692029E+03 -0.12923143641E+04  0.18999890039E+04  0.90024152879E+03 0.  0.
        -24    2    4    4    0    0  0.15544856425E+03  0.15833590991E+03 -0.74580869740E+03  0.78228394687E+03  0.80641452821E+02 0.  0.
         11    1    3    3    0    0 -0.29560310720E+03  0.90286030739E+02  0.14148502846E+02  0.30940740855E+03  0.00000000000E+00 0.  1.
        -11    1    3    3    0    0 -0.74858997341E+03  0.10747088955E+03  0.11333380789E+03  0.76471007081E+03  0.00000000000E+00 0. -1.
          4    1    4    4  502    0  0.62942235865E+03 -0.18635369458E+03 -0.43881619679E+03  0.78959474391E+03  0.00000000000E+00 0. -1.
          3    1    5    5  503    0  0.67564868936E+02  0.94326922047E+02 -0.50358244451E+03  0.51677641021E+03  0.00000000000E+00 0. -1.
         -4    1    5    5    0  503  0.87883695310E+02  0.64008987867E+02 -0.24222625289E+03  0.26550753665E+03  0.00000000000E+00 0.  1.
         -3    1    4    4    0  502  0.25932215772E+03 -0.16973913562E+03 -0.10768946991E+03  0.32811031312E+03  0.00000000000E+00 0.  1.
<mgrwt>
<rscale>  0 0.27365079E+04</rscale>
<asrwt>0</asrwt>
<pdfrwt beam="1">  1        2 0.13917496E+00 0.27365079E+04</pdfrwt>
<pdfrwt beam="2">  1       -2 0.31837989E+00 0.27365079E+04</pdfrwt>
<totfact> 0.62391341E-01</totfact>
</mgrwt>
</event>
<event>
12    1  0.2404191E-008  0.1475755E+04  0.7818608E-02  0.8900737E-01
         -2   -1    0    0    0  501 -0.00000000000E+00  0.00000000000E+00  0.20154296176E+03  0.20154296176E+03  0.00000000000E+00 0.  1.
          2   -1    0    0  501    0  0.00000000000E+00 -0.00000000000E+00 -0.27014764127E+04  0.27014764127E+04  0.00000000000E+00 0. -1.
         23    2    1    2    0    0  0.26609375394E+03  0.15580765767E+03 -0.11452693097E+03  0.34190967500E+03  0.93294672257E+02 0.  0.
        254    2    1    2    0    0 -0.26609375394E+03 -0.15580765767E+03 -0.23854065200E+04  0.25611096994E+04  0.87979356391E+03 0.  0.
        -24    2    4    4    0    0 -0.13205287560E+03 -0.24750985014E+03 -0.23526710055E+04  0.23707708974E+04  0.82429969858E+02 0.  0.
         24    2    4    4    0    0 -0.13404087833E+03  0.91702192471E+02 -0.32735514463E+02  0.19033880207E+03  0.93706971439E+02 0.  0.
         11    1    3    3    0    0  0.55348807309E+02  0.27910258348E+02 -0.66214805594E+02  0.90702113931E+02  0.00000000000E+00 0. -1.
        -11    1    3    3    0    0  0.21074494663E+03  0.12789739932E+03 -0.48312125374E+02  0.25120756107E+03  0.00000000000E+00 0.  1.
          2    1    6    6  502    0 -0.42103394630E+02  0.83810091642E+02 -0.28253079406E+02  0.97954396513E+02  0.00000000000E+00 0. -1.
          3    1    5    5  503    0 -0.29868109061E+02 -0.11838363966E+02 -0.16747044775E+03  0.17052448994E+03  0.00000000000E+00 0. -1.
         -4    1    5    5    0  503 -0.10218476654E+03 -0.23567148617E+03 -0.21852005577E+04  0.22002464074E+04  0.00000000000E+00 0.  1.
         -1    1    6    6    0  502 -0.91937483704E+02  0.78921008297E+01 -0.44824350564E+01  0.92384405553E+02  0.00000000000E+00 0.  1.
<mgrwt>
<rscale>  0 0.14757555E+04</rscale>
<asrwt>0</asrwt>
<pdfrwt beam="1">  1        2 0.41561173E+00 0.14757555E+04</pdfrwt>
<pdfrwt beam="2">  1       -2 0.31006611E-01 0.14757555E+04</pdfrwt>
<totfact> 0.24842591E+01</totfact>
</mgrwt>
</event>
<event>
11    1  0.2404191E-008  0.1797087E+04  0.7818608E-02  0.8707850E-01
         -2   -1    0    0    0  501 -0.00000000000E+00  0.00000000000E+00  0.33905092298E+03  0.33905092298E+03  0.00000000000E+00 0.  1.
          2   -1    0    0  501    0  0.00000000000E+00 -0.00000000000E+00 -0.23812953434E+04  0.23812953434E+04  0.00000000000E+00 0. -1.
         23    2    1    2    0    0 -0.97999330326E+02  0.65828339476E+03 -0.60496283094E+03  0.90403061219E+03  0.91380656607E+02 0.  0.
        254    2    1    2    0    0  0.97999330326E+02 -0.65828339476E+03 -0.14372815895E+04  0.18163156542E+04  0.88897879143E+03 0.  0.
        -24    2    4    4    0    0 -0.12079585060E+03 -0.18575505424E+03  0.38214328674E+02  0.23881853805E+03  0.80482181268E+02 0.  0.
         13    1    3    3    0    0 -0.16633248159E+01  0.82758376799E+02 -0.11723536283E+03  0.14351252864E+03  0.00000000000E+00 0. -1.
        -13    1    3    3    0    0 -0.96336005511E+02  0.57552501796E+03 -0.48772746811E+03  0.76051808355E+03  0.00000000000E+00 0.  1.
          2    1    4    4  502    0  0.70647311813E+02 -0.22796337220E+03 -0.41100711796E+03  0.47527380818E+03  0.00000000000E+00 0. -1.
          3    1    5    5  503    0  0.52024817576E+01  0.48875953686E+01  0.64242549653E-01  0.71385244995E+01  0.00000000000E+00 0. -1.
         -4    1    5    5    0  503 -0.12599833236E+03 -0.19064264961E+03  0.38150086125E+02  0.23168001355E+03  0.00000000000E+00 0.  1.
         -1    1    4    4    0  502  0.14814786911E+03 -0.24456496832E+03 -0.10644888002E+04  0.11022233080E+04  0.00000000000E+00 0.  1.
<mgrwt>
<rscale>  0 0.17970870E+04</rscale>
<asrwt>0</asrwt>
<pdfrwt beam="1">  1        2 0.36635313E+00 0.17970870E+04</pdfrwt>
<pdfrwt beam="2">  1       -2 0.52161680E-01 0.17970870E+04</pdfrwt>
<totfact> 0.13360324E+01</totfact>
</mgrwt>
</event>
<event>
12    1  0.2404191E-008  0.2957338E+04  0.7818608E-02  0.8256019E-01
          2   -1    0    0  501    0  0.00000000000E+00  0.00000000000E+00  0.10407771731E+04  0.10407771731E+04  0.00000000000E+00 0. -1.
         -2   -1    0    0    0  501 -0.00000000000E+00 -0.00000000000E+00 -0.21007977726E+04  0.21007977726E+04  0.00000000000E+00 0.  1.
         23    2    1    2    0    0  0.41715488566E+03  0.45083649039E+03  0.78572284616E+03  0.10015616838E+04  0.92161140775E+02 0.  0.
        254    2    1    2    0    0 -0.41715488566E+03 -0.45083649039E+03 -0.18457434456E+04  0.21400132619E+04  0.89197318013E+03 0.  0.
        -24    2    4    4    0    0 -0.26421430702E+03 -0.19373630153E+03 -0.80040896247E+02  0.34681086980E+03  0.80797770871E+02 0.  0.
         24    2    4    4    0    0 -0.15294057864E+03 -0.25710018886E+03 -0.17657025494E+04  0.17932023921E+04  0.91531405632E+02 0.  0.
         13    1    3    3    0    0  0.46201412314E+02  0.41401228566E+02  0.41335537460E+02  0.74547024647E+02  0.00000000000E+00 0.  1.
        -13    1    3    3    0    0  0.37095347334E+03  0.40943526182E+03  0.74438730870E+03  0.92701465920E+03  0.00000000000E+00 0. -1.
          4    1    6    6  502    0  0.71619686593E+01 -0.31056506661E+02 -0.28833415778E+03  0.29009030826E+03  0.00000000000E+00 0. -1.
          1    1    5    5  503    0 -0.41067817897E+02  0.12672224887E+01 -0.86748188936E+01  0.41993142327E+02  0.00000000000E+00 0. -1.
         -2    1    5    5    0  503 -0.22314648912E+03 -0.19500352401E+03 -0.71366077354E+02  0.30481772747E+03  0.00000000000E+00 0.  1.
         -3    1    6    6    0  502 -0.16010254730E+03 -0.22604368220E+03 -0.14773683916E+04  0.15031120838E+04  0.00000000000E+00 0.  1.
<mgrwt>
<rscale>  0 0.29573382E+04</rscale>
<asrwt>0</asrwt>
<pdfrwt beam="1">  1        2 0.16011957E+00 0.29573382E+04</pdfrwt>
<pdfrwt beam="2">  1       -2 0.32319966E+00 0.29573382E+04</pdfrwt>
<totfact> 0.46617237E-01</totfact>
</mgrwt>
</event>
<event>
12    1  0.2404191E-008  0.1956514E+04  0.7818608E-02  0.8627226E-01
          1   -1    0    0  501    0  0.00000000000E+00  0.00000000000E+00  0.22485835705E+04  0.22485835705E+04  0.00000000000E+00 0. -1.
         -1   -1    0    0    0  501 -0.00000000000E+00 -0.00000000000E+00 -0.42559521662E+03  0.42559521662E+03  0.00000000000E+00 0.  1.
         23    2    1    2    0    0 -0.56638140818E+03  0.26046214954E+03  0.11006483265E+03  0.63934582542E+03  0.89556609060E+02 0.  0.
        254    2    1    2    0    0  0.56638140818E+03 -0.26046214954E+03  0.17129235213E+04  0.20348329618E+04  0.90432834834E+03 0.  0.
        -24    2    4    4    0    0  0.63677484563E+03 -0.26273854088E+03  0.17640356226E+04  0.18954712363E+04  0.80472262597E+02 0.  0.
         24    2    4    4    0    0 -0.70393437455E+02  0.22763913428E+01 -0.51112101299E+02  0.13936172545E+03  0.10885231107E+03 0.  0.
         11    1    3    3    0    0 -0.26884259049E+03  0.98720228954E+02  0.11460405066E+02  0.28662407950E+03  0.00000000000E+00 0.  1.
        -11    1    3    3    0    0 -0.29753881768E+03  0.16174192058E+03  0.98604427583E+02  0.35272174592E+03  0.00000000000E+00 0. -1.
          2    1    6    6  502    0 -0.80421942719E+02  0.66663604726E+01  0.62735154075E+01  0.80941251709E+02  0.00000000000E+00 0. -1.
          3    1    5    5  503    0  0.57905095228E+03 -0.21407679467E+03  0.15966378150E+04  0.17118356205E+04  0.00000000000E+00 0. -1.
         -4    1    5    5    0  503  0.57723893357E+02 -0.48661746210E+02  0.16739780760E+03  0.18363561582E+03  0.00000000000E+00 0.  1.
         -1    1    6    6    0  502  0.10028505264E+02 -0.43899691298E+01 -0.57385616707E+02  0.58420473736E+02  0.00000000000E+00 0.  1.
<mgrwt>
<rscale>  0 0.19565136E+04</rscale>
<asrwt>0</asrwt>
<pdfrwt beam="1">  1        1 0.34593593E+00 0.19565136E+04</pdfrwt>
<pdfrwt beam="2">  1       -1 0.65476188E-01 0.19565136E+04</pdfrwt>
<totfact> 0.44443637E+00</totfact>
</mgrwt>
</event>
<event>
11    1  0.2404191E-008  0.1977152E+04  0.7818608E-02  0.8617378E-01
         -1   -1    0    0    0  501 -0.00000000000E+00  0.00000000000E+00  0.89080768540E+03  0.89080768540E+03  0.00000000000E+00 0.  1.
          1   -1    0    0  501    0  0.00000000000E+00 -0.00000000000E+00 -0.10970748516E+04  0.10970748516E+04  0.00000000000E+00 0. -1.
         23    2    1    2    0    0  0.77876151602E+03  0.60320749553E+02 -0.10766401346E+03  0.79337021125E+03  0.87958289233E+02 0.  0.
        254    2    1    2    0    0 -0.77876151602E+03 -0.60320749553E+02 -0.98603152732E+02  0.11945123257E+04  0.89834794091E+03 0.  0.
        -24    2    4    4    0    0 -0.87194207817E+03  0.10842323986E+03  0.10945822219E+03  0.88950700969E+03  0.84870673703E+02 0.  0.
         13    1    3    3    0    0  0.75269839996E+03  0.47181396182E+02 -0.90698419171E+02  0.75960987927E+03  0.00000000000E+00 0.  1.
        -13    1    3    3    0    0  0.26063116064E+02  0.13139353371E+02 -0.16965594288E+02  0.33760331982E+02  0.00000000000E+00 0. -1.
          4    1    4    4  502    0  0.21747091688E+02 -0.81050808211E+02 -0.16284680705E+03  0.18319730368E+03  0.00000000000E+00 0. -1.
          3    1    5    5  503    0 -0.71334202242E+03  0.55582464596E+02  0.93158138406E+02  0.72154326971E+03  0.00000000000E+00 0. -1.
         -4    1    5    5    0  503 -0.15860005575E+03  0.52840775263E+02  0.16300083789E+02  0.16796373997E+03  0.00000000000E+00 0.  1.
         -3    1    4    4    0  502  0.71433470454E+02 -0.87693181201E+02 -0.45214567874E+02  0.12180801237E+03  0.00000000000E+00 0.  1.
<mgrwt>
<rscale>  0 0.19771522E+04</rscale>
<asrwt>0</asrwt>
<pdfrwt beam="1">  1        1 0.16878075E+00 0.19771522E+04</pdfrwt>
<pdfrwt beam="2">  1       -1 0.13704734E+00 0.19771522E+04</pdfrwt>
<totfact> 0.52490425E+00</totfact>
</mgrwt>
</event>
<event>
11    1  0.2404191E-008  0.1658726E+04  0.7818608E-02  0.8785261E-01
         -2   -1    0    0    0  501 -0.00000000000E+00  0.00000000000E+00  0.31311826954E+03  0.31311826954E+03  0.00000000000E+00 0.  1.
          2   -1    0    0  501    0  0.00000000000E+00 -0.00000000000E+00 -0.21967508855E+04  0.21967508855E+04  0.00000000000E+00 0. -1.
         23    2    1    2    0    0  0.23293202811E+03 -0.53981141132E+03 -0.62596980364E+03  0.86367646278E+03  0.91897485214E+02 0.  0.
        254    2    1    2    0    0 -0.23293202811E+03  0.53981141132E+03 -0.12576628123E+04  0.16461926922E+04  0.88463605004E+03 0.  0.
        -24    2    4    4    0    0 -0.33537203421E+02 -0.19592164454E+03 -0.76479669768E+02  0.22697167517E+03  0.78466340755E+02 0.  0.
         13    1    3    3    0    0  0.56009894095E+02 -0.22878835268E+03 -0.28073187527E+03  0.36645818909E+03  0.00000000000E+00 0. -1.
        -13    1    3    3    0    0  0.17692213402E+03 -0.31102305864E+03 -0.34523792837E+03  0.49721827369E+03  0.00000000000E+00 0.  1.
          2    1    4    4  502    0  0.25474878100E+02  0.17226050015E+03 -0.19563084337E+03  0.26190470825E+03  0.00000000000E+00 0. -1.
          3    1    5    5  503    0 -0.46779536934E+02 -0.71721266762E+02 -0.50444938158E+02  0.99382880656E+02  0.00000000000E+00 0. -1.
         -4    1    5    5    0  503  0.13242333512E+02 -0.12420037777E+03 -0.26034731610E+02  0.12758879452E+03  0.00000000000E+00 0.  1.
         -1    1    4    4    0  502 -0.22486970279E+03  0.56347255570E+03 -0.98555229915E+03  0.11573163088E+04  0.00000000000E+00 0.  1.
<mgrwt>
<rscale>  0 0.16587258E+04</rscale>
<asrwt>0</asrwt>
<pdfrwt beam="1">  1        2 0.33796167E+00 0.16587258E+04</pdfrwt>
<pdfrwt beam="2">  1       -2 0.48172042E-01 0.16587258E+04</pdfrwt>
<totfact> 0.20220911E+01</totfact>
</mgrwt>
</event>
<event>
12    1  0.2404191E-008  0.2114595E+04  0.7818608E-02  0.8554841E-01
         -2   -1    0    0    0  501 -0.00000000000E+00  0.00000000000E+00  0.23452173024E+04  0.23452173024E+04  0.00000000000E+00 0. -1.
          2   -1    0    0  501    0  0.00000000000E+00 -0.00000000000E+00 -0.47666296381E+03  0.47666296381E+03  0.00000000000E+00 0.  1.
         23    2    1    2    0    0 -0.50908095591E+03  0.55357395369E+03  0.20443449315E+03  0.78469254890E+03  0.91331223774E+02 0.  0.
        254    2    1    2    0    0  0.50908095591E+03 -0.55357395369E+03  0.16641198455E+04  0.20371877173E+04  0.90290165228E+03 0.  0.
        -24    2    4    4    0    0  0.20306487503E+03 -0.49173843382E+03  0.25935294820E+03  0.59719234368E+03  0.79578344063E+02 0.  0.
         24    2    4    4    0    0  0.30601608089E+03 -0.61835519870E+02  0.14047668973E+04  0.14399953737E+04  0.52413425829E+02 0.  0.
         11    1    3    3    0    0 -0.35213158453E+02  0.61572422940E+02 -0.24036281813E+01  0.70971171777E+02  0.00000000000E+00 0. -1.
        -11    1    3    3    0    0 -0.47386779746E+03  0.49200153075E+03  0.20683812133E+03  0.71372137713E+03  0.00000000000E+00 0.  1.
          2    1    6    6  502    0  0.95278413999E+02 -0.28578469163E+02  0.55585197308E+03  0.56468231869E+03  0.00000000000E+00 0. -1.
          3    1    5    5  503    0  0.61052425636E+02 -0.11864727903E+03  0.10258177652E+03  0.16830804013E+03  0.00000000000E+00 0. -1.
         -4    1    5    5    0  503  0.14201244939E+03 -0.37309115479E+03  0.15677117168E+03  0.42888430355E+03  0.00000000000E+00 0.  1.
         -1    1    6    6    0  502  0.21073766689E+03 -0.33257050707E+02  0.84891492419E+03  0.87531305496E+03  0.00000000000E+00 0.  1.
<mgrwt>
<rscale>  0 0.21145952E+04</rscale>
<asrwt>0</asrwt>
<pdfrwt beam="1">  1        2 0.73332765E-01 0.21145952E+04</pdfrwt>
<pdfrwt beam="2">  1       -2 0.36080265E+00 0.21145952E+04</pdfrwt>
<totfact> 0.79783704E-01</totfact>
</mgrwt>
</event>
<event>
12    1  0.2404191E-008  0.1819847E+04  0.7818608E-02  0.8695816E-01
         -1   -1    0    0    0  501 -0.00000000000E+00  0.00000000000E+00  0.10283503811E+04  0.10283503811E+04  0.00000000000E+00 0.  1.
          1   -1    0    0  501    0  0.00000000000E+00 -0.00000000000E+00 -0.80513483969E+03  0.80513483969E+03  0.00000000000E+00 0. -1.
         23    2    1    2    0    0  0.23264677785E+03  0.52342594811E+03 -0.29180680374E+03  0.64948808687E+03  0.92651594047E+02 0.  0.
        254    2    1    2    0    0 -0.23264677785E+03 -0.52342594811E+03  0.51502234512E+03  0.11839971339E+04  0.89916736523E+03 0.  0.
        -24    2    4    4    0    0 -0.29737715512E+03 -0.13404377537E+03 -0.17731319265E+03  0.37970650792E+03  0.79599985954E+02 0.  0.
         24    2    4    4    0    0  0.64730377270E+02 -0.38938217274E+03  0.69233553777E+03  0.80429062598E+03  0.10838088386E+03 0.  0.
         11    1    3    3    0    0  0.21006872144E+03  0.44054837323E+03 -0.21159721889E+03  0.53196345732E+03  0.00000000000E+00 0. -1.
        -11    1    3    3    0    0  0.22578056407E+02  0.82877574879E+02 -0.80209584844E+02  0.11752462955E+03  0.00000000000E+00 0.  1.
          2    1    6    6  502    0  0.76669971652E+02 -0.28579656414E+03  0.57936037424E+03  0.65055084649E+03  0.00000000000E+00 0. -1.
          1    1    5    5  503    0 -0.24713474262E+03 -0.94852709288E+02 -0.17217483458E+03  0.31577965598E+03  0.00000000000E+00 0. -1.
         -2    1    5    5    0  503 -0.50242412501E+02 -0.39191066084E+02 -0.51383580674E+01  0.63926851936E+02  0.00000000000E+00 0.  1.
         -1    1    6    6    0  502 -0.11939594382E+02 -0.10358560860E+03  0.11297516353E+03  0.15373977949E+03  0.00000000000E+00 0.  1.
<mgrwt>
<rscale>  0 0.18198469E+04</rscale>
<asrwt>0</asrwt>
<pdfrwt beam="1">  1        1 0.12386690E+00 0.18198469E+04</pdfrwt>
<pdfrwt beam="2">  1       -1 0.15820775E+00 0.18198469E+04</pdfrwt>
<totfact> 0.62164994E+00</totfact>
</mgrwt>
</event>
<event>
12    1  0.2404191E-008  0.1486334E+04  0.7818608E-02  0.8893592E-01
          2   -1    0    0  501    0  0.00000000000E+00  0.00000000000E+00  0.24058857371E+04  0.24058857371E+04  0.00000000000E+00 0. -1.
         -2   -1    0    0    0  501 -0.00000000000E+00 -0.00000000000E+00 -0.22956084717E+03  0.22956084717E+03  0.00000000000E+00 0.  1.
         23    2    1    2    0    0 -0.30760838912E+03 -0.26466727977E+03  0.27564666122E+03  0.49917003279E+03  0.92292739404E+02 0.  0.
        254    2    1    2    0    0  0.30760838912E+03  0.26466727977E+03  0.19006782287E+04  0.21362765515E+04  0.88680780630E+03 0.  0.
        -24    2    4    4    0    0  0.20300931769E+03  0.35167083373E+03  0.26411210736E+03  0.49096873987E+03  0.80062100395E+02 0.  0.
         24    2    4    4    0    0  0.10459907144E+03 -0.87003553955E+02  0.16365661213E+04  0.16453078116E+04  0.10088875689E+03 0.  0.
         13    1    3    3    0    0 -0.48211229973E+02 -0.51790759775E+02  0.10579003404E+02  0.71543838356E+02  0.00000000000E+00 0.  1.
        -13    1    3    3    0    0 -0.25939715915E+03 -0.21287652000E+03  0.26506765782E+03  0.42762619443E+03  0.00000000000E+00 0. -1.
          2    1    6    6  502    0 -0.62086590127E+01 -0.48536530513E+02  0.63868774393E+03  0.64055942464E+03  0.00000000000E+00 0. -1.
          3    1    5    5  503    0  0.49291751264E+02  0.93618618271E+02  0.11275737743E+03  0.15462324726E+03  0.00000000000E+00 0. -1.
         -4    1    5    5    0  503  0.15371756642E+03  0.25805221546E+03  0.15135472993E+03  0.33634549261E+03  0.00000000000E+00 0.  1.
         -1    1    6    6    0  502  0.11080773045E+03 -0.38467023442E+02  0.99787837741E+03  0.10047483870E+04  0.00000000000E+00 0.  1.
<mgrwt>
<rscale>  0 0.14863340E+04</rscale>
<asrwt>0</asrwt>
<pdfrwt beam="1">  1        2 0.37013625E+00 0.14863340E+04</pdfrwt>
<pdfrwt beam="2">  1       -2 0.35317055E-01 0.14863340E+04</pdfrwt>
<totfact> 0.28792075E+01</totfact>
</mgrwt>
</event>
<event>
12    1  0.2404191E-008  0.1665531E+04  0.7818608E-02  0.8781271E-01
         -1   -1    0    0    0  501 -0.00000000000E+00  0.00000000000E+00  0.67977380585E+03  0.67977380585E+03  0.00000000000E+00 0.  1.
          1   -1    0    0  501    0  0.00000000000E+00 -0.00000000000E+00 -0.10201896624E+04  0.10201896624E+04  0.00000000000E+00 0. -1.
         23    2    1    2    0    0 -0.16097525109E+03 -0.53130213135E+03 -0.20172586213E+03  0.59701456774E+03  0.86822142307E+02 0.  0.
        254    2    1    2    0    0  0.16097525109E+03  0.53130213135E+03 -0.13868999441E+03  0.11029489005E+04  0.94290316381E+03 0.  0.
        -24    2    4    4    0    0 -0.24888580237E+03  0.60983875541E+03 -0.76378224207E+02  0.66785514035E+03  0.79683154640E+02 0.  0.
         24    2    4    4    0    0  0.40986105345E+03 -0.78536624060E+02 -0.62311770204E+02  0.43509376016E+03  0.10615902677E+03 0.  0.
         11    1    3    3    0    0 -0.16286071104E+03 -0.53002203998E+03 -0.20653275254E+03  0.59169481318E+03  0.00000000000E+00 0. -1.
        -11    1    3    3    0    0  0.18854599548E+01 -0.12800913684E+01  0.48068904094E+01  0.53197545583E+01  0.00000000000E+00 0.  1.
          4    1    6    6  502    0  0.46784258927E+02  0.34707883882E+01 -0.40928284083E+02  0.62257029269E+02  0.00000000000E+00 0. -1.
          3    1    5    5  503    0 -0.60059041366E+02  0.73820653830E+02 -0.10389088790E+02  0.95731450149E+02  0.00000000000E+00 0. -1.
         -4    1    5    5    0  503 -0.18882676100E+03  0.53601810158E+03 -0.65989135417E+02  0.57212369020E+03  0.00000000000E+00 0.  1.
         -3    1    6    6    0  502  0.36307679453E+03 -0.82007412449E+02 -0.21383486121E+02  0.37283673089E+03  0.00000000000E+00 0.  1.
<mgrwt>
<rscale>  0 0.16655308E+04</rscale>
<asrwt>0</asrwt>
<pdfrwt beam="1">  1        1 0.15695226E+00 0.16655308E+04</pdfrwt>
<pdfrwt beam="2">  1       -1 0.10458059E+00 0.16655308E+04</pdfrwt>
<totfact> 0.11969963E+01</totfact>
</mgrwt>
</event>
<event>
11    1  0.2404191E-008  0.1205437E+04  0.7818608E-02  0.9108111E-01
          1   -1    0    0  501    0  0.00000000000E+00  0.00000000000E+00  0.54647142512E+03  0.54647142512E+03  0.00000000000E+00 0. -1.
         -1   -1    0    0    0  501 -0.00000000000E+00 -0.00000000000E+00 -0.66475444236E+03  0.66475444236E+03  0.00000000000E+00 0.  1.
         23    2    1    2    0    0  0.18499115133E+03  0.12587598298E+03 -0.13855941141E+03  0.27869215864E+03  0.91673985585E+02 0.  0.
        254    2    1    2    0    0 -0.18499115133E+03 -0.12587598298E+03  0.20276394171E+02  0.93253370883E+03  0.90506436058E+03 0.  0.
        -24    2    4    4    0    0  0.31013850500E+03 -0.14890135633E+02 -0.17661409212E+03  0.36638984758E+03  0.81494628340E+02 0.  0.
         13    1    3    3    0    0  0.15153266844E+03  0.92527159752E+02 -0.60728848993E+02  0.18764705699E+03  0.00000000000E+00 0. -1.
        -13    1    3    3    0    0  0.33458482894E+02  0.33348823229E+02 -0.77830562418E+02  0.91045101651E+02  0.00000000000E+00 0.  1.
          4    1    4    4  502    0 -0.44701272115E+03 -0.60490822923E+02  0.20582219556E+03  0.49582485690E+03  0.00000000000E+00 0. -1.
          1    1    5    5  503    0  0.19141618910E+03  0.91183823413E-01 -0.63360886303E+02  0.20163027470E+03  0.00000000000E+00 0. -1.
         -2    1    5    5    0  503  0.11872231590E+03 -0.14981319457E+02 -0.11325320582E+03  0.16475957288E+03  0.00000000000E+00 0.  1.
         -3    1    4    4    0  502 -0.48116935182E+02 -0.50495024425E+02 -0.89317092747E+01  0.70319004356E+02  0.00000000000E+00 0.  1.
<mgrwt>
<rscale>  0 0.12054365E+04</rscale>
<asrwt>0</asrwt>
<pdfrwt beam="1">  1        1 0.84072527E-01 0.12054365E+04</pdfrwt>
<pdfrwt beam="2">  1       -1 0.10226991E+00 0.12054365E+04</pdfrwt>
<totfact> 0.35071498E+01</totfact>
</mgrwt>
</event>
<event>
12    1  0.2404191E-008  0.1608588E+04  0.7818608E-02  0.8815290E-01
          3   -1    0    0  501    0  0.00000000000E+00  0.00000000000E+00  0.31502371253E+03  0.31502371253E+03  0.00000000000E+00 0. -1.
         -3   -1    0    0    0  501 -0.00000000000E+00 -0.00000000000E+00 -0.20534600663E+04  0.20534600663E+04  0.00000000000E+00 0.  1.
         23    2    1    2    0    0  0.46896620657E+03  0.43006457172E+02 -0.10170622252E+04  0.11248295596E+04  0.95116297795E+02 0.  0.
        254    2    1    2    0    0 -0.46896620657E+03 -0.43006457172E+02 -0.72137412861E+03  0.12436542192E+04  0.89694834033E+03 0.  0.
        -24    2    4    4    0    0  0.49796886077E+01  0.34416725653E+03 -0.43461647144E+03  0.56053389388E+03  0.82649084491E+02 0.  0.
         24    2    4    4    0    0 -0.47394589518E+03 -0.38717371371E+03 -0.28675765716E+03  0.68312032531E+03  0.99474764500E+02 0.  0.
         13    1    3    3    0    0  0.16610285347E+03 -0.19415062428E+02 -0.29045865844E+03  0.33516165480E+03  0.00000000000E+00 0. -1.
        -13    1    3    3    0    0  0.30286335310E+03  0.62421519600E+02 -0.72660356673E+03  0.78966790484E+03  0.00000000000E+00 0.  1.
          4    1    6    6  502    0 -0.36630576489E+00  0.45535491355E+01  0.70098455489E+00  0.46217279224E+01  0.00000000000E+00 0. -1.
          1    1    5    5  503    0 -0.34261600822E+01  0.14426126505E+03 -0.11996792467E+03  0.18765754479E+03  0.00000000000E+00 0. -1.
         -2    1    5    5    0  503  0.84058486898E+01  0.19990599148E+03 -0.31464854677E+03  0.37287634908E+03  0.00000000000E+00 0.  1.
         -3    1    6    6    0  502 -0.47357958941E+03 -0.39172726284E+03 -0.28745864172E+03  0.67849859739E+03  0.00000000000E+00 0.  1.
<mgrwt>
<rscale>  0 0.16085877E+04</rscale>
<asrwt>0</asrwt>
<pdfrwt beam="1">  1        3 0.48465184E-01 0.16085877E+04</pdfrwt>
<pdfrwt beam="2">  1       -3 0.31591695E+00 0.16085877E+04</pdfrwt>
<totfact> 0.32990817E-01</totfact>
</mgrwt>
</event>
<event>
12    1  0.2404191E-008  0.1808774E+04  0.7818608E-02  0.8701647E-01
         -2   -1    0    0    0  501 -0.00000000000E+00  0.00000000000E+00  0.85966668291E+03  0.85966668291E+03  0.00000000000E+00 0. -1.
          2   -1    0    0  501    0  0.00000000000E+00 -0.00000000000E+00 -0.95143418504E+03  0.95143418504E+03  0.00000000000E+00 0.  1.
         23    2    1    2    0    0 -0.15438870817E+03 -0.18288411870E+03  0.59501831382E+03  0.64765221741E+03  0.90133938379E+02 0.  0.
        254    2    1    2    0    0  0.15438870817E+03  0.18288411870E+03 -0.68678581595E+03  0.11634486505E+04  0.90810546270E+03 0.  0.
        -24    2    4    4    0    0  0.61527203423E+02  0.48664920623E+03 -0.67568300446E+03  0.83965863407E+03  0.88690769282E+02 0.  0.
         24    2    4    4    0    0  0.92861504745E+02 -0.30376508753E+03 -0.11102811484E+02  0.32379001648E+03  0.61807886875E+02 0.  0.
         11    1    3    3    0    0 -0.13101929722E+03 -0.11661578973E+03  0.49704384712E+03  0.52708432402E+03  0.00000000000E+00 0. -1.
        -11    1    3    3    0    0 -0.23369410945E+02 -0.66268328970E+02  0.97974466699E+02  0.12056789339E+03  0.00000000000E+00 0.  1.
          4    1    6    6  502    0  0.23554612292E+02 -0.14436877861E+03  0.18609398656E+02  0.14745668420E+03  0.00000000000E+00 0. -1.
          3    1    5    5  503    0 -0.20147856602E+02  0.12532922938E+03 -0.14882814833E+03  0.19560973799E+03  0.00000000000E+00 0. -1.
         -4    1    5    5    0  503  0.81675060025E+02  0.36131997685E+03 -0.52685485613E+03  0.64404889608E+03  0.00000000000E+00 0.  1.
         -3    1    6    6    0  502  0.69306892453E+02 -0.15939630892E+03 -0.29712210140E+02  0.17633333228E+03  0.00000000000E+00 0.  1.
<mgrwt>
<rscale>  0 0.18087745E+04</rscale>
<asrwt>0</asrwt>
<pdfrwt beam="1">  1        2 0.14637449E+00 0.18087745E+04</pdfrwt>
<pdfrwt beam="2">  1       -2 0.13225641E+00 0.18087745E+04</pdfrwt>
<totfact> 0.10624569E+01</totfact>
</mgrwt>
</event>
<event>
11    1  0.2404191E-008  0.1890409E+04  0.7818608E-02  0.8659645E-01
         -1   -1    0    0    0  501 -0.00000000000E+00  0.00000000000E+00  0.87647549689E+03  0.87647549689E+03  0.00000000000E+00 0.  1.
          1   -1    0    0  501    0  0.00000000000E+00 -0.00000000000E+00 -0.10193225643E+04  0.10193225643E+04  0.00000000000E+00 0. -1.
         23    2    1    2    0    0  0.19692800703E+03 -0.50875665731E+03  0.42315070806E+03  0.69608142598E+03  0.88650175198E+02 0.  0.
        254    2    1    2    0    0 -0.19692800703E+03  0.50875665731E+03 -0.56599777546E+03  0.11997166352E+04  0.90628502506E+03 0.  0.
        -24    2    4    4    0    0  0.29367485090E+03  0.45986787732E+03 -0.29684956879E+03  0.62628910318E+03  0.79968691529E+02 0.  0.
         13    1    3    3    0    0  0.96967180065E+02 -0.36458995762E+03  0.28873683120E+03  0.47507623483E+03  0.00000000000E+00 0. -1.
        -13    1    3    3    0    0  0.99960826960E+02 -0.14416669969E+03  0.13441387686E+03  0.22100519116E+03  0.00000000000E+00 0.  1.
          2    1    4    4  502    0 -0.30289605078E+03  0.86277027454E+02 -0.16745930887E+03  0.35669645803E+03  0.00000000000E+00 0. -1.
          3    1    5    5  503    0  0.10809474570E+03  0.16888288956E+03 -0.66095146717E+02  0.21112667490E+03  0.00000000000E+00 0. -1.
         -4    1    5    5    0  503  0.18558010521E+03  0.29098498776E+03 -0.23075442207E+03  0.41516242828E+03  0.00000000000E+00 0.  1.
         -1    1    4    4    0  502 -0.18770680715E+03 -0.37388247468E+02 -0.10168889781E+03  0.21673107400E+03  0.00000000000E+00 0.  1.
<mgrwt>
<rscale>  0 0.18904087E+04</rscale>
<asrwt>0</asrwt>
<pdfrwt beam="1">  1        1 0.15681886E+00 0.18904087E+04</pdfrwt>
<pdfrwt beam="2">  1       -1 0.13484238E+00 0.18904087E+04</pdfrwt>
<totfact> 0.63237057E+00</totfact>
</mgrwt>
</event>
<event>
12    1  0.2404191E-008  0.2222601E+04  0.7818608E-02  0.8509079E-01
         -1   -1    0    0    0  501 -0.00000000000E+00  0.00000000000E+00  0.53846982600E+03  0.53846982600E+03  0.00000000000E+00 0.  1.
          1   -1    0    0  501    0  0.00000000000E+00 -0.00000000000E+00 -0.22935157662E+04  0.22935157662E+04  0.00000000000E+00 0. -1.
         23    2    1    2    0    0 -0.99808235334E+02  0.34951314389E+03  0.34897464100E+03  0.51189546613E+03  0.90180633137E+02 0.  0.
        254    2    1    2    0    0  0.99808235334E+02 -0.34951314389E+03 -0.21040205812E+04  0.23200901261E+04  0.90763123867E+03 0.  0.
        -24    2    4    4    0    0 -0.39352505418E+03 -0.95738881107E+02 -0.77157529840E+03  0.87516049041E+03  0.80929236117E+02 0.  0.
         24    2    4    4    0    0  0.49333328951E+03 -0.25377426278E+03 -0.13324452828E+04  0.14449296357E+04  0.68059601592E+02 0.  0.
         13    1    3    3    0    0 -0.90303165199E+02  0.27293005154E+03  0.22163836436E+03  0.36300005404E+03  0.00000000000E+00 0.  1.
        -13    1    3    3    0    0 -0.95050701350E+01  0.76583092348E+02  0.12733627665E+03  0.14889541209E+03  0.00000000000E+00 0. -1.
          2    1    6    6  502    0  0.21964618556E+03 -0.13973739650E+03 -0.68592772441E+03  0.73366738372E+03  0.00000000000E+00 0. -1.
          1    1    5    5  503    0 -0.29755759288E+03 -0.91442663125E+02 -0.64566836495E+03  0.71679140565E+03  0.00000000000E+00 0. -1.
         -2    1    5    5    0  503 -0.95967461303E+02 -0.42962179811E+01 -0.12590693345E+03  0.15836908476E+03  0.00000000000E+00 0.  1.
         -1    1    6    6    0  502  0.27368710395E+03 -0.11403686628E+03 -0.64651755843E+03  0.71126225199E+03  0.00000000000E+00 0.  1.
<mgrwt>
<rscale>  0 0.22226012E+04</rscale>
<asrwt>0</asrwt>
<pdfrwt beam="1">  1        1 0.35284859E+00 0.22226012E+04</pdfrwt>
<pdfrwt beam="2">  1       -1 0.82841510E-01 0.22226012E+04</pdfrwt>
<totfact> 0.24761129E+00</totfact>
</mgrwt>
</event>
<event>
12    1  0.2404191E-008  0.1592308E+04  0.7818608E-02  0.8825288E-01
         -2   -1    0    0    0  501 -0.00000000000E+00  0.00000000000E+00  0.37993958997E+03  0.37993958997E+03  0.00000000000E+00 0.  1.
          2   -1    0    0  501    0  0.00000000000E+00 -0.00000000000E+00 -0.16683207514E+04  0.16683207514E+04  0.00000000000E+00 0. -1.
         23    2    1    2    0    0  0.27982121898E+02 -0.29683752393E+03  0.13650371748E+03  0.34072658798E+03  0.92551759109E+02 0.  0.
        254    2    1    2    0    0 -0.27982121898E+02  0.29683752393E+03 -0.14248848789E+04  0.17075337534E+04  0.89245676987E+03 0.  0.
        -24    2    4    4    0    0 -0.96266369384E+02  0.51239213025E+03 -0.13514956970E+04  0.14507566605E+04  0.79632655977E+02 0.  0.
         24    2    4    4    0    0  0.68284247486E+02 -0.21555460632E+03 -0.73389181951E+02  0.25677709295E+03  0.97066867032E+02 0.  0.
         11    1    3    3    0    0  0.13854750701E+02 -0.26324698086E+02 -0.11684497559E+02  0.31960465102E+02  0.00000000000E+00 0. -1.
        -11    1    3    3    0    0  0.14127371196E+02 -0.27051282584E+03  0.14818821504E+03  0.30876612288E+03  0.00000000000E+00 0.  1.
          4    1    6    6  502    0  0.87575679538E+02 -0.11988774888E+03 -0.45164777376E+02  0.15518514457E+03  0.00000000000E+00 0. -1.
          3    1    5    5  503    0 -0.96767660661E+02  0.50817183769E+03 -0.13507796903E+04  0.14464468081E+04  0.00000000000E+00 0. -1.
         -4    1    5    5    0  503  0.50129127719E+00  0.42202925599E+01 -0.71600667153E+00  0.43098524092E+01  0.00000000000E+00 0.  1.
         -3    1    6    6    0  502 -0.19291432051E+02 -0.95666857441E+02 -0.28224404575E+02  0.10159194839E+03  0.00000000000E+00 0.  1.
<mgrwt>
<rscale>  0 0.15923079E+04</rscale>
<asrwt>0</asrwt>
<pdfrwt beam="1">  1        2 0.25666474E+00 0.15923079E+04</pdfrwt>
<pdfrwt beam="2">  1       -2 0.58452243E-01 0.15923079E+04</pdfrwt>
<totfact> 0.26817935E+01</totfact>
</mgrwt>
</event>
<event>
12    1  0.2404191E-008  0.1288051E+04  0.7818608E-02  0.9039095E-01
          1   -1    0    0  501    0  0.00000000000E+00  0.00000000000E+00  0.19163770686E+03  0.19163770686E+03  0.00000000000E+00 0. -1.
         -1   -1    0    0    0  501 -0.00000000000E+00 -0.00000000000E+00 -0.21643393327E+04  0.21643393327E+04  0.00000000000E+00 0.  1.
         23    2    1    2    0    0  0.59607375601E+01 -0.31762895916E+03 -0.46509869933E+03  0.57044715502E+03  0.90385122993E+02 0.  0.
        254    2    1    2    0    0 -0.59607375601E+01  0.31762895916E+03 -0.15076029265E+04  0.17855298845E+04  0.90240051999E+03 0.  0.
        -24    2    4    4    0    0 -0.31108743189E+02  0.55884006057E+03 -0.13787733668E+04  0.14902006638E+04  0.80075303626E+02 0.  0.
         24    2    4    4    0    0  0.25148005629E+02 -0.24121110142E+03 -0.12882955967E+03  0.29532922069E+03  0.10866036772E+03 0.  0.
         11    1    3    3    0    0 -0.32180938297E+01 -0.22035660146E+03 -0.24439658105E+03  0.32908521201E+03  0.00000000000E+00 0. -1.
        -11    1    3    3    0    0  0.91788313897E+01 -0.97272357699E+02 -0.22070211829E+03  0.24136194301E+03  0.00000000000E+00 0.  1.
          4    1    6    6  502    0  0.45218240870E+01 -0.10617511438E+02  0.17853460190E+02  0.21258515540E+02  0.00000000000E+00 0. -1.
          3    1    5    5  503    0 -0.12593555067E+02  0.17136950712E+03 -0.52574219988E+03  0.55311026599E+03  0.00000000000E+00 0. -1.
         -4    1    5    5    0  503 -0.18515188122E+02  0.38747055346E+03 -0.85303116693E+03  0.93709039785E+03  0.00000000000E+00 0.  1.
         -3    1    6    6    0  502  0.20626181542E+02 -0.23059358998E+03 -0.14668301986E+03  0.27407070515E+03  0.00000000000E+00 0.  1.
<mgrwt>
<rscale>  0 0.12880513E+04</rscale>
<asrwt>0</asrwt>
<pdfrwt beam="1">  1        1 0.29482726E-01 0.12880513E+04</pdfrwt>
<pdfrwt beam="2">  1       -1 0.33297527E+00 0.12880513E+04</pdfrwt>
<totfact> 0.31372743E+00</totfact>
</mgrwt>
</event>
<event>
12    1  0.2404191E-008  0.1724704E+04  0.7818608E-02  0.8747399E-01
          1   -1    0    0  501    0  0.00000000000E+00  0.00000000000E+00  0.18776549164E+04  0.18776549164E+04  0.00000000000E+00 0. -1.
         -1   -1    0    0    0  501 -0.00000000000E+00 -0.00000000000E+00 -0.39605304743E+03  0.39605304743E+03  0.00000000000E+00 0.  1.
         23    2    1    2    0    0  0.45141762688E+03 -0.41929304320E+03  0.57254152727E+03  0.84601863658E+03  0.91428677480E+02 0.  0.
        254    2    1    2    0    0 -0.45141762688E+03  0.41929304320E+03  0.90906034174E+03  0.14276893273E+04  0.91231660098E+03 0.  0.
        -24    2    4    4    0    0 -0.51162412153E+03  0.59555770413E+02  0.91050324600E+03  0.10490676568E+04  0.78871135300E+02 0.  0.
         24    2    4    4    0    0  0.60206494654E+02  0.35973727278E+03 -0.14429042634E+01  0.37862167052E+03  0.10157046809E+03 0.  0.
         11    1    3    3    0    0  0.25203006747E+03 -0.24767645140E+03  0.26740783812E+03  0.44313624471E+03  0.00000000000E+00 0. -1.
        -11    1    3    3    0    0  0.19938755940E+03 -0.17161659180E+03  0.30513368915E+03  0.40288239187E+03  0.00000000000E+00 0.  1.
          4    1    6    6  502    0 -0.29925576381E+01 -0.42315959522E+01 -0.75481292588E+01  0.91562034069E+01  0.00000000000E+00 0. -1.
          1    1    5    5  503    0 -0.18891702740E+03  0.60501317764E+02  0.34430933455E+03  0.39736503439E+03  0.00000000000E+00 0. -1.
         -2    1    5    5    0  503 -0.32270709413E+03 -0.94554735013E+00  0.56619391145E+03  0.65170262239E+03  0.00000000000E+00 0.  1.
         -3    1    6    6    0  502  0.63199052292E+02  0.36396886873E+03  0.61052249954E+01  0.36946546712E+03  0.00000000000E+00 0.  1.
<mgrwt>
<rscale>  0 0.17247040E+04</rscale>
<asrwt>0</asrwt>
<pdfrwt beam="1">  1        1 0.28886998E+00 0.17247040E+04</pdfrwt>
<pdfrwt beam="2">  1       -1 0.60931239E-01 0.17247040E+04</pdfrwt>
<totfact> 0.93602184E+00</totfact>
</mgrwt>
</event>
<event>
12    1  0.2404191E-008  0.1823363E+04  0.7818608E-02  0.8693973E-01
         -1   -1    0    0    0  501 -0.00000000000E+00  0.00000000000E+00  0.44643982959E+03  0.44643982959E+03  0.00000000000E+00 0.  1.
          1   -1    0    0  501    0  0.00000000000E+00 -0.00000000000E+00 -0.18617588724E+04  0.18617588724E+04  0.00000000000E+00 0. -1.
         23    2    1    2    0    0  0.17918579964E+03  0.14508122930E+03  0.28364239421E+03  0.37585317597E+03  0.87501361178E+02 0.  0.
        254    2    1    2    0    0 -0.17918579964E+03 -0.14508122930E+03 -0.16989614370E+04  0.19323455260E+04  0.89125369763E+03 0.  0.
        -24    2    4    4    0    0 -0.26266253166E+03  0.17340649488E+03 -0.17252671088E+03  0.36804696991E+03  0.81435177194E+02 0.  0.
         24    2    4    4    0    0  0.83476732021E+02 -0.31848772418E+03 -0.15264347261E+04  0.15642985561E+04  0.92866593797E+02 0.  0.
         11    1    3    3    0    0  0.10638294501E+03  0.10537507898E+03  0.11811679920E+03  0.19071658689E+03  0.00000000000E+00 0.  1.
        -11    1    3    3    0    0  0.72802854622E+02  0.39706150317E+02  0.16552559501E+03  0.18513658909E+03  0.00000000000E+00 0. -1.
          2    1    6    6  502    0  0.20822301601E+02 -0.17294149610E+02 -0.24322643122E+03  0.24472791565E+03  0.00000000000E+00 0. -1.
          1    1    5    5  503    0 -0.53155632417E+02  0.20790702959E-01 -0.28558794974E+02  0.60341747242E+02  0.00000000000E+00 0. -1.
         -2    1    5    5    0  503 -0.20950689924E+03  0.17338570418E+03 -0.14396791591E+03  0.30770522266E+03  0.00000000000E+00 0.  1.
         -1    1    6    6    0  502  0.62654430420E+02 -0.30119357457E+03 -0.12832082949E+04  0.13195706404E+04  0.00000000000E+00 0.  1.
<mgrwt>
<rscale>  0 0.18233632E+04</rscale>
<asrwt>0</asrwt>
<pdfrwt beam="1">  1        1 0.28642445E+00 0.18233632E+04</pdfrwt>
<pdfrwt beam="2">  1       -1 0.68683050E-01 0.18233632E+04</pdfrwt>
<totfact> 0.74721909E+00</totfact>
</mgrwt>
</event>
<event>
11    1  0.2404191E-008  0.1655337E+04  0.7818608E-02  0.8787255E-01
         -2   -1    0    0    0  501 -0.00000000000E+00  0.00000000000E+00  0.23715854624E+03  0.23715854624E+03  0.00000000000E+00 0. -1.
          2   -1    0    0  501    0  0.00000000000E+00 -0.00000000000E+00 -0.28885117805E+04  0.28885117805E+04  0.00000000000E+00 0.  1.
         23    2    1    2    0    0  0.13391941418E+03 -0.45135446560E+03 -0.30759209013E+03  0.56995220778E+03  0.92614049334E+02 0.  0.
        254    2    1    2    0    0 -0.13391941418E+03  0.45135446560E+03 -0.23437611441E+04  0.25557181189E+04  0.90378290519E+03 0.  0.
        -24    2    4    4    0    0  0.33403822567E+03  0.72567411664E+02 -0.74469524528E+03  0.82364919192E+03  0.83542908491E+02 0.  0.
         13    1    3    3    0    0  0.10237289334E+03 -0.31126500822E+03 -0.26123247809E+03  0.41905670528E+03  0.00000000000E+00 0.  1.
        -13    1    3    3    0    0  0.31546520840E+02 -0.14008945738E+03 -0.46359612039E+02  0.15089550250E+03  0.00000000000E+00 0. -1.
          2    1    4    4  502    0 -0.14058480725E+03  0.18796217313E+03 -0.31232271044E+03  0.39069085223E+03  0.00000000000E+00 0. -1.
          3    1    5    5  503    0  0.14782849262E+03  0.27609968081E+02 -0.42656171497E+03  0.45229467192E+03  0.00000000000E+00 0. -1.
         -4    1    5    5    0  503  0.18620973305E+03  0.44957443582E+02 -0.31813353031E+03  0.37135451999E+03  0.00000000000E+00 0.  1.
         -1    1    4    4    0  502 -0.32737283260E+03  0.19082488080E+03 -0.12867431884E+04  0.13413780748E+04  0.00000000000E+00 0.  1.
<mgrwt>
<rscale>  0 0.16553371E+04</rscale>
<asrwt>0</asrwt>
<pdfrwt beam="1">  1        2 0.44438640E+00 0.16553371E+04</pdfrwt>
<pdfrwt beam="2">  1       -2 0.36485932E-01 0.16553371E+04</pdfrwt>
<totfact> 0.13850733E+01</totfact>
</mgrwt>
</event>
<event>
12    1  0.2404191E-008  0.1445548E+04  0.7818608E-02  0.8921492E-01
         -4   -1    0    0    0  501 -0.00000000000E+00  0.00000000000E+00  0.10703487675E+04  0.10703487675E+04  0.00000000000E+00 0.  1.
          4   -1    0    0  501    0  0.00000000000E+00 -0.00000000000E+00 -0.48806760785E+03  0.48806760785E+03  0.00000000000E+00 0. -1.
         23    2    1    2    0    0  0.30738032060E+03 -0.21311663993E+03 -0.67325004574E+02  0.39077685328E+03  0.90953444745E+02 0.  0.
        254    2    1    2    0    0 -0.30738032060E+03  0.21311663993E+03  0.64960616419E+03  0.11676395220E+04  0.89526114691E+03 0.  0.
        -24    2    4    4    0    0  0.26796187475E+03 -0.36909120453E+01  0.12459765366E+02  0.27978800146E+03  0.79428526727E+02 0.  0.
         24    2    4    4    0    0 -0.57534219535E+03  0.21680755197E+03  0.63714639882E+03  0.88785152058E+03  0.65579209520E+02 0.  0.
         13    1    3    3    0    0  0.29605584350E+03 -0.18372668058E+03 -0.78843246663E+02  0.35724055365E+03  0.00000000000E+00 0. -1.
        -13    1    3    3    0    0  0.11324477101E+02 -0.29389959346E+02  0.11518242088E+02  0.33536299629E+02  0.00000000000E+00 0.  1.
          4    1    6    6  502    0 -0.45543926632E+03  0.14253163904E+03  0.48665469186E+03  0.68159590854E+03  0.00000000000E+00 0. -1.
          1    1    5    5  503    0  0.10702607231E+03 -0.22236660951E+02  0.38119380907E+02  0.11576759670E+03  0.00000000000E+00 0. -1.
         -2    1    5    5    0  503  0.16093580244E+03  0.18545748906E+02 -0.25659615542E+02  0.16402040476E+03  0.00000000000E+00 0.  1.
         -3    1    6    6    0  502 -0.11990292903E+03  0.74275912936E+02  0.15049170697E+03  0.20625561204E+03  0.00000000000E+00 0.  1.
<mgrwt>
<rscale>  0 0.14455484E+04</rscale>
<asrwt>0</asrwt>
<pdfrwt beam="1">  1        4 0.75087325E-01 0.14455484E+04</pdfrwt>
<pdfrwt beam="2">  1       -4 0.16466904E+00 0.14455484E+04</pdfrwt>
<totfact> 0.71759033E-01</totfact>
</mgrwt>
</event>
<event>
12    1  0.2404191E-008  0.1603109E+04  0.7818608E-02  0.8818641E-01
          2   -1    0    0  501    0  0.00000000000E+00  0.00000000000E+00  0.29337484325E+04  0.29337484325E+04  0.00000000000E+00 0. -1.
         -2   -1    0    0    0  501 -0.00000000000E+00 -0.00000000000E+00 -0.21899946213E+03  0.21899946213E+03  0.00000000000E+00 0.  1.
         23    2    1    2    0    0  0.22884969036E+03 -0.22066212996E+03  0.69595369511E+02  0.33806944494E+03  0.91561333372E+02 0.  0.
        254    2    1    2    0    0 -0.22884969036E+03  0.22066212996E+03  0.26451536009E+04  0.28146784497E+04  0.90802711778E+03 0.  0.
        -24    2    4    4    0    0  0.26930428085E+03  0.88030994949E+02  0.17686038644E+04  0.17929641101E+04  0.80538309335E+02 0.  0.
         24    2    4    4    0    0 -0.49815397121E+03  0.13263113501E+03  0.87654973652E+03  0.10217143396E+04  0.99057327809E+02 0.  0.
         13    1    3    3    0    0  0.13423939572E+03 -0.12546365962E+03 -0.63584426392E+01  0.18385259052E+03  0.00000000000E+00 0.  1.
        -13    1    3    3    0    0  0.94610294636E+02 -0.95198470344E+02  0.75953812150E+02  0.15421685442E+03  0.00000000000E+00 0. -1.
          4    1    6    6  502    0 -0.37310108717E+03  0.61076769067E+02  0.58547254067E+03  0.69693105028E+03  0.00000000000E+00 0. -1.
          1    1    5    5  503    0  0.14931393302E+03  0.28845142914E+02  0.11532260926E+04  0.11632098321E+04  0.00000000000E+00 0. -1.
         -2    1    5    5    0  503  0.11999034782E+03  0.59185852035E+02  0.61537777179E+03  0.62975427800E+03  0.00000000000E+00 0.  1.
         -3    1    6    6    0  502 -0.12505288404E+03  0.71554365943E+02  0.29107719585E+03  0.32478328934E+03  0.00000000000E+00 0.  1.
<mgrwt>
<rscale>  0 0.16031086E+04</rscale>
<asrwt>0</asrwt>
<pdfrwt beam="1">  1        2 0.45134588E+00 0.16031086E+04</pdfrwt>
<pdfrwt beam="2">  1       -2 0.33692227E-01 0.16031086E+04</pdfrwt>
<totfact> 0.15205282E+01</totfact>
</mgrwt>
</event>
<event>
11    1  0.2404191E-008  0.1744988E+04  0.7818608E-02  0.8736114E-01
          2   -1    0    0  501    0  0.00000000000E+00  0.00000000000E+00  0.19656193699E+04  0.19656193699E+04  0.00000000000E+00 0. -1.
         -2   -1    0    0    0  501 -0.00000000000E+00 -0.00000000000E+00 -0.38728049669E+03  0.38728049669E+03  0.00000000000E+00 0.  1.
         23    2    1    2    0    0 -0.28934508682E+03  0.18151022798E+03 -0.14505148198E+03  0.38202938126E+03  0.90774300284E+02 0.  0.
        254    2    1    2    0    0  0.28934508682E+03 -0.18151022798E+03  0.17233903552E+04  0.19708704854E+04  0.89307872637E+03 0.  0.
        -24    2    4    4    0    0  0.14616735877E+03 -0.51966033929E+03  0.85541063254E+03  0.10146496684E+04  0.79842559828E+02 0.  0.
         13    1    3    3    0    0 -0.23247520715E+01 -0.85007902424E+01 -0.66086007833E+01  0.11015512301E+02  0.00000000000E+00 0. -1.
        -13    1    3    3    0    0 -0.28702033475E+03  0.19001101822E+03 -0.13844288120E+03  0.37101386896E+03  0.00000000000E+00 0.  1.
          2    1    4    4  502    0 -0.66423628207E+01  0.17788253785E+03  0.32423460021E+03  0.36988429843E+03  0.00000000000E+00 0. -1.
          1    1    5    5  503    0  0.14665052355E+03 -0.51756572176E+03  0.82957075684E+03  0.98872053332E+03  0.00000000000E+00 0. -1.
         -2    1    5    5    0  503 -0.48316478176E+00 -0.20946175237E+01  0.25839875700E+02  0.25929135099E+02  0.00000000000E+00 0.  1.
         -1    1    4    4    0  502  0.14982009087E+03  0.16026757346E+03  0.54374512247E+03  0.58633651851E+03  0.00000000000E+00 0.  1.
<mgrwt>
<rscale>  0 0.17449883E+04</rscale>
<asrwt>0</asrwt>
<pdfrwt beam="1">  1        2 0.30240297E+00 0.17449883E+04</pdfrwt>
<pdfrwt beam="2">  1       -2 0.59581616E-01 0.17449883E+04</pdfrwt>
<totfact> 0.17402209E+01</totfact>
</mgrwt>
</event>
<event>
11    1  0.2404191E-008  0.1967642E+04  0.7818608E-02  0.8621900E-01
         -1   -1    0    0    0  501 -0.00000000000E+00  0.00000000000E+00  0.77344267874E+03  0.77344267874E+03  0.00000000000E+00 0.  1.
          1   -1    0    0  501    0  0.00000000000E+00 -0.00000000000E+00 -0.12514228029E+04  0.12514228029E+04  0.00000000000E+00 0. -1.
         23    2    1    2    0    0 -0.63515452855E+03  0.34937243907E+03 -0.47587424858E+03  0.87205098711E+03  0.92380990109E+02 0.  0.
        254    2    1    2    0    0  0.63515452855E+03 -0.34937243907E+03 -0.21058755572E+01  0.11528144945E+04  0.89637851811E+03 0.  0.
        -24    2    4    4    0    0  0.63720390717E+02  0.10198391296E+03  0.31021158855E+03  0.34220534039E+03  0.80076579759E+02 0.  0.
         11    1    3    3    0    0 -0.18703005388E+03  0.10838506434E+03 -0.93227956004E+02  0.23541243597E+03  0.00000000000E+00 0.  1.
        -11    1    3    3    0    0 -0.44812447467E+03  0.24098737473E+03 -0.38264629258E+03  0.63663855114E+03  0.00000000000E+00 0. -1.
          4    1    4    4  502    0  0.42114594886E+03 -0.27155609545E+03 -0.28007325975E+03  0.57406241302E+03  0.00000000000E+00 0. -1.
          3    1    5    5  503    0  0.69820850878E+02  0.36843571177E+02  0.17610072720E+03  0.19298669922E+03  0.00000000000E+00 0. -1.
         -4    1    5    5    0  503 -0.61004601605E+01  0.65140341785E+02  0.13411086135E+03  0.14921864117E+03  0.00000000000E+00 0.  1.
         -3    1    4    4    0  502  0.15028818897E+03 -0.17980025658E+03 -0.32244204360E+02  0.23654674110E+03  0.00000000000E+00 0.  1.
<mgrwt>
<rscale>  0 0.19676420E+04</rscale>
<asrwt>0</asrwt>
<pdfrwt beam="1">  1        1 0.19252658E+00 0.19676420E+04</pdfrwt>
<pdfrwt beam="2">  1       -1 0.11899118E+00 0.19676420E+04</pdfrwt>
<totfact> 0.57642227E+00</totfact>
</mgrwt>
</event>
<event>
11    1  0.2404191E-008  0.1802791E+04  0.7818608E-02  0.8704816E-01
          2   -1    0    0  501    0  0.00000000000E+00  0.00000000000E+00  0.87067775701E+03  0.87067775701E+03  0.00000000000E+00 0. -1.
         -2   -1    0    0    0  501 -0.00000000000E+00 -0.00000000000E+00 -0.93319743163E+03  0.93319743163E+03  0.00000000000E+00 0.  1.
         23    2    1    2    0    0  0.37691819398E+03  0.28976365818E+03 -0.46453636558E+03  0.67091430536E+03  0.91113487624E+02 0.  0.
        254    2    1    2    0    0 -0.37691819398E+03 -0.28976365818E+03  0.40201669096E+03  0.11329608833E+04  0.94654774876E+03 0.  0.
        -24    2    4    4    0    0  0.15624099711E+03  0.39002762714E+02 -0.19044156483E+03  0.26146937371E+03  0.78522475089E+02 0.  0.
         11    1    3    3    0    0  0.10968445152E+03  0.11582182374E+03 -0.20520621364E+03  0.25991337764E+03  0.00000000000E+00 0. -1.
        -11    1    3    3    0    0  0.26723374246E+03  0.17394183444E+03 -0.25933015195E+03  0.41100092772E+03  0.00000000000E+00 0.  1.
          2    1    4    4  502    0 -0.23588500769E+02  0.89592659680E+01  0.41255047616E+02  0.48359743269E+02  0.00000000000E+00 0. -1.
          3    1    5    5  503    0  0.68366601151E+02 -0.20527230001E+02 -0.59613835357E+02  0.93000906933E+02  0.00000000000E+00 0. -1.
         -4    1    5    5    0  503  0.87874395963E+02  0.59529992716E+02 -0.13082772947E+03  0.16846846677E+03  0.00000000000E+00 0.  1.
         -1    1    4    4    0  502 -0.50957069033E+03 -0.33772568686E+03  0.55120320817E+03  0.82313176631E+03  0.00000000000E+00 0.  1.
<mgrwt>
<rscale>  0 0.18027914E+04</rscale>
<asrwt>0</asrwt>
<pdfrwt beam="1">  1        2 0.13395042E+00 0.18027914E+04</pdfrwt>
<pdfrwt beam="2">  1       -2 0.14356884E+00 0.18027914E+04</pdfrwt>
<totfact> 0.97451469E+00</totfact>
</mgrwt>
</event>
<event>
11    1  0.2404191E-008  0.1342615E+04  0.7818608E-02  0.8996437E-01
         -2   -1    0    0    0  501 -0.00000000000E+00  0.00000000000E+00  0.28125277685E+03  0.28125277685E+03  0.00000000000E+00 0.  1.
          2   -1    0    0  501    0  0.00000000000E+00 -0.00000000000E+00 -0.16023088230E+04  0.16023088230E+04  0.00000000000E+00 0. -1.
         23    2    1    2    0    0 -0.30948945722E+03 -0.17871202343E+03 -0.48971084183E+03  0.61286708547E+03  0.89820066787E+02 0.  0.
        254    2    1    2    0    0  0.30948945722E+03  0.17871202343E+03 -0.83134520428E+03  0.12706945143E+04  0.89208070747E+03 0.  0.
        -24    2    4    4    0    0  0.52477242127E+03 -0.16548826311E+02 -0.20166778084E+03  0.56811860914E+03  0.80180436797E+02 0.  0.
         13    1    3    3    0    0 -0.29091534509E+03 -0.14946800057E+03 -0.39996506425E+03  0.51666669510E+03  0.00000000000E+00 0. -1.
        -13    1    3    3    0    0 -0.18574112133E+02 -0.29244022859E+02 -0.89745777578E+02  0.96200390371E+02  0.00000000000E+00 0.  1.
          4    1    4    4  502    0 -0.10770590658E+03  0.13223770975E+03 -0.24747373624E+03  0.30055053539E+03  0.00000000000E+00 0. -1.
          1    1    5    5  503    0  0.13245514884E+03  0.65514861400E+01 -0.87471793798E+02  0.15886662058E+03  0.00000000000E+00 0. -1.
         -2    1    5    5    0  503  0.39231727244E+03 -0.23100312451E+02 -0.11419598704E+03  0.40925198856E+03  0.00000000000E+00 0.  1.
         -3    1    4    4    0  502 -0.10757705747E+03  0.63023139992E+02 -0.38220368719E+03  0.40202536981E+03  0.00000000000E+00 0.  1.
<mgrwt>
<rscale>  0 0.13426151E+04</rscale>
<asrwt>0</asrwt>
<pdfrwt beam="1">  1        2 0.24650905E+00 0.13426151E+04</pdfrwt>
<pdfrwt beam="2">  1       -2 0.43269658E-01 0.13426151E+04</pdfrwt>
<totfact> 0.55016019E+01</totfact>
</mgrwt>
</event>
<event>
11    1  0.2404191E-008  0.2648799E+04  0.7818608E-02  0.8351812E-01
         -1   -1    0    0    0  501 -0.00000000000E+00  0.00000000000E+00  0.75777331643E+03  0.75777331643E+03  0.00000000000E+00 0.  1.
          1   -1    0    0  501    0  0.00000000000E+00 -0.00000000000E+00 -0.23147220510E+04  0.23147220510E+04  0.00000000000E+00 0. -1.
         23    2    1    2    0    0  0.92265155815E+03 -0.62861122870E+02 -0.15251923538E+04  0.17860852179E+04  0.93012208969E+02 0.  0.
        254    2    1    2    0    0 -0.92265155815E+03  0.62861122870E+02 -0.31756380763E+02  0.12864101495E+04  0.89364712642E+03 0.  0.
        -24    2    4    4    0    0 -0.85481921213E+03  0.29184064762E+03 -0.25073747513E+03  0.94104556305E+03  0.82526488368E+02 0.  0.
         13    1    3    3    0    0  0.71878837903E+03 -0.58732299637E+02 -0.12568578916E+04  0.14490679682E+04  0.00000000000E+00 0. -1.
        -13    1    3    3    0    0  0.20386317912E+03 -0.41288232324E+01 -0.26833446218E+03  0.33701724967E+03  0.00000000000E+00 0.  1.
          4    1    4    4  502    0  0.55113640307E+01 -0.11203938904E+03  0.39468518915E+02  0.11891578455E+03  0.00000000000E+00 0. -1.
          3    1    5    5  503    0 -0.94356535522E+01 -0.29774536713E+01  0.32257916616E+01  0.10406849675E+02  0.00000000000E+00 0. -1.
         -2    1    5    5    0  503 -0.84538355857E+03  0.29481810129E+03 -0.25396326679E+03  0.93063871338E+03  0.00000000000E+00 0.  1.
         -3    1    4    4    0  502 -0.73343710050E+02 -0.11694013571E+03  0.17951257545E+03  0.22644880192E+03  0.00000000000E+00 0.  1.
<mgrwt>
<rscale>  0 0.26487994E+04</rscale>
<asrwt>0</asrwt>
<pdfrwt beam="1">  1        1 0.35611108E+00 0.26487994E+04</pdfrwt>
<pdfrwt beam="2">  1       -1 0.11658051E+00 0.26487994E+04</pdfrwt>
<totfact> 0.10588993E+00</totfact>
</mgrwt>
</event>
<event>
11    1  0.2404191E-008  0.1676120E+04  0.7818608E-02  0.8775103E-01
          2   -1    0    0  501    0  0.00000000000E+00  0.00000000000E+00  0.87539744393E+03  0.87539744393E+03  0.00000000000E+00 0. -1.
         -2   -1    0    0    0  501 -0.00000000000E+00 -0.00000000000E+00 -0.80231485959E+03  0.80231485959E+03  0.00000000000E+00 0.  1.
         23    2    1    2    0    0 -0.17662016257E+03  0.36368752038E+03 -0.40723084706E+03  0.58109788614E+03  0.91512273298E+02 0.  0.
        254    2    1    2    0    0  0.17662016257E+03 -0.36368752038E+03  0.48031343140E+03  0.10966144174E+04  0.89911005652E+03 0.  0.
        -24    2    4    4    0    0 -0.16242749629E+03 -0.37168858105E+03 -0.90831128022E+02  0.42239491112E+03  0.75047147097E+02 0.  0.
         13    1    3    3    0    0 -0.73948723472E+02  0.76791915362E+02 -0.13876531521E+03  0.17498921302E+03  0.00000000000E+00 0. -1.
        -13    1    3    3    0    0 -0.10267143910E+03  0.28689560502E+03 -0.26846553185E+03  0.40610867311E+03  0.00000000000E+00 0.  1.
          4    1    4    4  502    0  0.40049203082E+02 -0.38640173464E+02  0.86381206576E+02  0.10275560580E+03  0.00000000000E+00 0. -1.
          1    1    5    5  503    0 -0.38788259717E+02 -0.29722534914E+02 -0.95763650102E+01  0.49796234198E+02  0.00000000000E+00 0. -1.
         -2    1    5    5    0  503 -0.12363923657E+03 -0.34196604614E+03 -0.81254763012E+02  0.37259867692E+03  0.00000000000E+00 0.  1.
         -3    1    4    4    0  502  0.29899845578E+03  0.46641234137E+02  0.48476335284E+03  0.57146390047E+03  0.00000000000E+00 0.  1.
<mgrwt>
<rscale>  0 0.16761198E+04</rscale>
<asrwt>0</asrwt>
<pdfrwt beam="1">  1        2 0.13467653E+00 0.16761198E+04</pdfrwt>
<pdfrwt beam="2">  1       -2 0.12343306E+00 0.16761198E+04</pdfrwt>
<totfact> 0.14378600E+01</totfact>
</mgrwt>
</event>
<event>
11    1  0.2404191E-008  0.1098456E+04  0.7818608E-02  0.9206698E-01
          2   -1    0    0  501    0  0.00000000000E+00  0.00000000000E+00  0.10942991836E+04  0.10942991836E+04  0.00000000000E+00 0. -1.
         -2   -1    0    0    0  501 -0.00000000000E+00 -0.00000000000E+00 -0.27565701429E+03  0.27565701429E+03  0.00000000000E+00 0.  1.
         23    2    1    2    0    0  0.25216385567E+02  0.16227992110E+03  0.11152805551E+03  0.21802133835E+03  0.90134110730E+02 0.  0.
        254    2    1    2    0    0 -0.25216385567E+02 -0.16227992110E+03  0.70711411382E+03  0.11519348596E+04  0.89441204811E+03 0.  0.
        -24    2    4    4    0    0 -0.71812202682E+02 -0.32166584053E+03 -0.63512252501E+02  0.34529263465E+03  0.81038829631E+02 0.  0.
         11    1    3    3    0    0  0.13060321243E+02  0.99966844996E+02  0.11682689859E+03  0.15431288450E+03  0.00000000000E+00 0. -1.
        -11    1    3    3    0    0  0.12156064324E+02  0.62313076107E+02 -0.52988430831E+01  0.63708453849E+02  0.00000000000E+00 0.  1.
          2    1    4    4  502    0  0.64865124395E+02 -0.57326656110E+01  0.31536643963E+03  0.32201915947E+03  0.00000000000E+00 0. -1.
          1    1    5    5  503    0 -0.77886245165E+02 -0.24466623139E+03 -0.74314229234E+02  0.26730214484E+03  0.00000000000E+00 0. -1.
         -2    1    5    5    0  503  0.60740424825E+01 -0.76999609134E+02  0.10801976734E+02  0.77990489806E+02  0.00000000000E+00 0.  1.
         -1    1    4    4    0  502 -0.18269307280E+02  0.16511858503E+03  0.45525992669E+03  0.48462306544E+03  0.00000000000E+00 0.  1.
<mgrwt>
<rscale>  0 0.10984557E+04</rscale>
<asrwt>0</asrwt>
<pdfrwt beam="1">  1        2 0.16835372E+00 0.10984557E+04</pdfrwt>
<pdfrwt beam="2">  1       -2 0.42408772E-01 0.10984557E+04</pdfrwt>
<totfact> 0.11486942E+02</totfact>
</mgrwt>
</event>
<event>
12    1  0.2404191E-008  0.1734185E+04  0.7818608E-02  0.8742104E-01
         -1   -1    0    0    0  501 -0.00000000000E+00  0.00000000000E+00  0.14331981807E+04  0.14331981807E+04  0.00000000000E+00 0. -1.
          1   -1    0    0  501    0  0.00000000000E+00 -0.00000000000E+00 -0.52459543898E+03  0.52459543898E+03  0.00000000000E+00 0.  1.
         23    2    1    2    0    0 -0.47794323572E+03 -0.36844120261E+03  0.52830393505E+03  0.80745309897E+03  0.93256650719E+02 0.  0.
        254    2    1    2    0    0  0.47794323572E+03  0.36844120261E+03  0.38029880667E+03  0.11503405207E+04  0.90248405795E+03 0.  0.
        -24    2    4    4    0    0 -0.51688834085E+02 -0.56974729365E+02 -0.21470384182E+03  0.24170349907E+03  0.80031159024E+02 0.  0.
         24    2    4    4    0    0  0.52963206980E+03  0.42541593197E+03  0.59500264849E+03  0.90863702163E+03  0.10051985292E+03 0.  0.
         13    1    3    3    0    0 -0.17621098603E+03 -0.12295843515E+03  0.13213778778E+03  0.25224885199E+03  0.00000000000E+00 0.  1.
        -13    1    3    3    0    0 -0.30173224969E+03 -0.24548276746E+03  0.39616614727E+03  0.55520424698E+03  0.00000000000E+00 0. -1.
          2    1    6    6  502    0  0.44104656049E+03  0.34677569067E+03  0.53747149196E+03  0.77694983933E+03  0.00000000000E+00 0. -1.
          1    1    5    5  503    0 -0.61840953321E+02 -0.64454275766E+02 -0.21006521907E+03  0.22826750412E+03  0.00000000000E+00 0. -1.
         -2    1    5    5    0  503  0.10152119236E+02  0.74795464014E+01 -0.46386227489E+01  0.13435994953E+02  0.00000000000E+00 0.  1.
         -1    1    6    6    0  502  0.88585509310E+02  0.78640241300E+02  0.57531156534E+02  0.13168718231E+03  0.00000000000E+00 0.  1.
<mgrwt>
<rscale>  0 0.17341848E+04</rscale>
<asrwt>0</asrwt>
<pdfrwt beam="1">  1        1 0.80706991E-01 0.17341848E+04</pdfrwt>
<pdfrwt beam="2">  1       -1 0.22049203E+00 0.17341848E+04</pdfrwt>
<totfact> 0.42960212E+00</totfact>
</mgrwt>
</event>
<event>
11    1  0.2404191E-008  0.2848980E+04  0.7818608E-02  0.8288221E-01
          2   -1    0    0  501    0  0.00000000000E+00  0.00000000000E+00  0.18346921131E+04  0.18346921131E+04  0.00000000000E+00 0. -1.
         -2   -1    0    0    0  501 -0.00000000000E+00 -0.00000000000E+00 -0.11060008809E+04  0.11060008809E+04  0.00000000000E+00 0.  1.
         23    2    1    2    0    0 -0.31148924559E+03 -0.33978812741E+03 -0.90500184840E+03  0.10196076289E+04  0.89943591264E+02 0.  0.
        254    2    1    2    0    0  0.31148924559E+03  0.33978812741E+03  0.16336930806E+04  0.19210853651E+04  0.89951896969E+03 0.  0.
        -24    2    4    4    0    0  0.42972412407E+03 -0.86483483246E+02  0.42025731628E+03  0.61224121935E+03  0.77980017276E+02 0.  0.
         13    1    3    3    0    0 -0.27642756785E+02 -0.16119511443E+02 -0.12129657181E+03  0.12544647857E+03  0.00000000000E+00 0. -1.
        -13    1    3    3    0    0 -0.28384648881E+03 -0.32366861597E+03 -0.78370527659E+03  0.89416115031E+03  0.00000000000E+00 0.  1.
          2    1    4    4  502    0 -0.26801788095E+02  0.17261268689E+03  0.77247567758E+03  0.79197989114E+03  0.00000000000E+00 0. -1.
          3    1    5    5  503    0 -0.85089349750E+00 -0.73857137634E+01  0.65549900512E+01  0.99116437643E+01  0.00000000000E+00 0. -1.
         -4    1    5    5    0  503  0.43057501757E+03 -0.79097769483E+02  0.41370232623E+03  0.60232957558E+03  0.00000000000E+00 0.  1.
         -3    1    4    4    0  502 -0.91433090382E+02  0.25365892377E+03  0.44096008673E+03  0.51686425463E+03  0.00000000000E+00 0.  1.
<mgrwt>
<rscale>  0 0.28489795E+04</rscale>
<asrwt>0</asrwt>
<pdfrwt beam="1">  1        2 0.28226032E+00 0.28489795E+04</pdfrwt>
<pdfrwt beam="2">  1       -2 0.17015398E+00 0.28489795E+04</pdfrwt>
<totfact> 0.15211129E+00</totfact>
</mgrwt>
</event>
<event>
11    1  0.2404191E-008  0.1395946E+04  0.7818608E-02  0.8956758E-01
          1   -1    0    0  501    0  0.00000000000E+00  0.00000000000E+00  0.50185150925E+03  0.50185150925E+03  0.00000000000E+00 0. -1.
         -1   -1    0    0    0  501 -0.00000000000E+00 -0.00000000000E+00 -0.97073774575E+03  0.97073774575E+03  0.00000000000E+00 0.  1.
         23    2    1    2    0    0  0.28238359263E+03 -0.25764855163E+03 -0.28166841881E+03  0.48399226228E+03  0.93745091875E+02 0.  0.
        254    2    1    2    0    0 -0.28238359263E+03  0.25764855163E+03 -0.18721781769E+03  0.98859699273E+03  0.89227251063E+03 0.  0.
        -24    2    4    4    0    0  0.13858272904E+03 -0.25333068456E+03 -0.73419509253E+02  0.30684885111E+03  0.73377002976E+02 0.  0.
         13    1    3    3    0    0  0.65340104377E+02 -0.22472090252E+02 -0.80073665515E+02  0.10576443632E+03  0.00000000000E+00 0. -1.
        -13    1    3    3    0    0  0.21704348825E+03 -0.23517646137E+03 -0.20159475329E+03  0.37822782596E+03  0.00000000000E+00 0.  1.
          2    1    4    4  502    0 -0.16222706737E+03  0.15181038831E+03 -0.85906433685E+02  0.23820984601E+03  0.00000000000E+00 0. -1.
          3    1    5    5  503    0  0.83302483612E+02 -0.10523712107E+03 -0.41985211462E+01  0.13428247468E+03  0.00000000000E+00 0. -1.
         -4    1    5    5    0  503  0.55280245428E+02 -0.14809356348E+03 -0.69220988106E+02  0.17256637643E+03  0.00000000000E+00 0.  1.
         -1    1    4    4    0  502 -0.25873925430E+03  0.35916884787E+03 -0.27891874757E+02  0.44353829561E+03  0.00000000000E+00 0.  1.
<mgrwt>
<rscale>  0 0.13959458E+04</rscale>
<asrwt>0</asrwt>
<pdfrwt beam="1">  1        1 0.77207925E-01 0.13959458E+04</pdfrwt>
<pdfrwt beam="2">  1       -1 0.14934427E+00 0.13959458E+04</pdfrwt>
<totfact> 0.15185796E+01</totfact>
</mgrwt>
</event>
<event>
11    1  0.2404191E-008  0.1230259E+04  0.7818608E-02  0.9086775E-01
         -1   -1    0    0    0  501 -0.00000000000E+00  0.00000000000E+00  0.29862666119E+03  0.29862666119E+03  0.00000000000E+00 0.  1.
          1   -1    0    0  501    0  0.00000000000E+00 -0.00000000000E+00 -0.12670816273E+04  0.12670816273E+04  0.00000000000E+00 0. -1.
         23    2    1    2    0    0 -0.11006527302E+03 -0.78216951687E+02  0.11079537319E+03  0.19495657794E+03  0.86603676032E+02 0.  0.
        254    2    1    2    0    0  0.11006527302E+03  0.78216951687E+02 -0.10792503393E+04  0.13707517106E+04  0.83423420048E+03 0.  0.
        -24    2    4    4    0    0  0.15211345558E+03  0.32603860310E+03 -0.10199020874E+04  0.10844053040E+04  0.79340541786E+02 0.  0.
         11    1    3    3    0    0 -0.73768418648E+02 -0.46019515354E+02  0.11729278914E+03  0.14600401970E+03  0.00000000000E+00 0.  1.
        -11    1    3    3    0    0 -0.36296854376E+02 -0.32197436333E+02 -0.64974159486E+01  0.48952558238E+02  0.00000000000E+00 0. -1.
          4    1    4    4  502    0 -0.16591814330E+02 -0.24655310578E+02 -0.54037273264E+02  0.61670086300E+02  0.00000000000E+00 0. -1.
          3    1    5    5  503    0 -0.68256287827E+00  0.14642753064E+02 -0.13583218684E+02  0.19984492468E+02  0.00000000000E+00 0. -1.
         -4    1    5    5    0  503  0.15279601846E+03  0.31139585004E+03 -0.10063188687E+04  0.10644208116E+04  0.00000000000E+00 0.  1.
         -3    1    4    4    0  502 -0.25456368225E+02 -0.22316634084E+03 -0.53109786777E+01  0.22467632020E+03  0.00000000000E+00 0.  1.
<mgrwt>
<rscale>  0 0.12302591E+04</rscale>
<asrwt>0</asrwt>
<pdfrwt beam="1">  1        1 0.19493563E+00 0.12302591E+04</pdfrwt>
<pdfrwt beam="2">  1       -1 0.45942564E-01 0.12302591E+04</pdfrwt>
<totfact> 0.44422385E+01</totfact>
</mgrwt>
</event>
<event>
11    1  0.2404191E-008  0.2385981E+04  0.7818608E-02  0.8444771E-01
          1   -1    0    0  501    0  0.00000000000E+00  0.00000000000E+00  0.10310530703E+04  0.10310530703E+04  0.00000000000E+00 0.  1.
         -1   -1    0    0    0  501 -0.00000000000E+00 -0.00000000000E+00 -0.13803618572E+04  0.13803618572E+04  0.00000000000E+00 0. -1.
         23    2    1    2    0    0 -0.45347102835E+03 -0.68702538856E+03 -0.75130610236E+03  0.11180940352E+04  0.89630096063E+02 0.  0.
        254    2    1    2    0    0  0.45347102835E+03  0.68702538856E+03  0.40199731546E+03  0.12933208922E+04  0.91292783418E+03 0.  0.
        -24    2    4    4    0    0  0.71070354156E+03  0.47936484052E+03  0.35854567477E+03  0.93268947210E+03  0.80401966124E+02 0.  0.
         13    1    3    3    0    0 -0.35616010058E+03 -0.48412057335E+03 -0.58043339111E+03  0.83553914827E+03  0.00000000000E+00 0.  1.
        -13    1    3    3    0    0 -0.97310927775E+02 -0.20290481521E+03 -0.17087271125E+03  0.28255488697E+03  0.00000000000E+00 0. -1.
          2    1    4    4  502    0 -0.41576321391E+02  0.75354073692E+02 -0.39056883266E+02  0.94510671635E+02  0.00000000000E+00 0. -1.
          1    1    5    5  503    0  0.27135103155E+02  0.28217689640E+02  0.13702562424E+01  0.39171793858E+02  0.00000000000E+00 0. -1.
         -2    1    5    5    0  503  0.68356843841E+03  0.45114715088E+03  0.35717541853E+03  0.89351767825E+03  0.00000000000E+00 0.  1.
         -1    1    4    4    0  502 -0.21565619182E+03  0.13230647434E+03  0.82508523957E+02  0.26612074844E+03  0.00000000000E+00 0.  1.
<mgrwt>
<rscale>  0 0.23859810E+04</rscale>
<asrwt>0</asrwt>
<pdfrwt beam="1">  1        1 0.15862355E+00 0.23859810E+04</pdfrwt>
<pdfrwt beam="2">  1       -1 0.21236336E+00 0.23859810E+04</pdfrwt>
<totfact> 0.15909335E+00</totfact>
</mgrwt>
</event>
<event>
11    1  0.2404191E-008  0.1819396E+04  0.7818608E-02  0.8696052E-01
          1   -1    0    0  501    0  0.00000000000E+00  0.00000000000E+00  0.21925103077E+04  0.21925103077E+04  0.00000000000E+00 0. -1.
         -1   -1    0    0    0  501 -0.00000000000E+00 -0.00000000000E+00 -0.37744425963E+03  0.37744425963E+03  0.00000000000E+00 0.  1.
         23    2    1    2    0    0 -0.31093326516E+03 -0.20064538982E+03 -0.12403794662E+03  0.40071304144E+03  0.90815535754E+02 0.  0.
        254    2    1    2    0    0  0.31093326516E+03  0.20064538982E+03  0.19391039947E+04  0.21692415259E+04  0.89919209718E+03 0.  0.
        -24    2    4    4    0    0  0.19691459331E+03  0.49866517933E+03  0.92021638709E+03  0.10679355783E+04  0.79030893771E+02 0.  0.
         11    1    3    3    0    0 -0.22084336825E+03 -0.18738671291E+03 -0.10155167693E+03  0.30691744259E+03  0.00000000000E+00 0.  1.
        -11    1    3    3    0    0 -0.90089896911E+02 -0.13258676908E+02 -0.22486269686E+02  0.93795598847E+02  0.00000000000E+00 0. -1.
          4    1    4    4  502    0 -0.22590192092E+02  0.33983652583E+02  0.24277685954E+03  0.24618247084E+03  0.00000000000E+00 0. -1.
          1    1    5    5  503    0  0.44382482565E+02  0.14810360370E+03  0.33431953708E+03  0.36833956489E+03  0.00000000000E+00 0. -1.
         -2    1    5    5    0  503  0.15253211074E+03  0.35056157563E+03  0.58589685001E+03  0.69959601340E+03  0.00000000000E+00 0.  1.
         -3    1    4    4    0  502  0.13660886395E+03 -0.33200344209E+03  0.77611074810E+03  0.85512347681E+03  0.00000000000E+00 0.  1.
<mgrwt>
<rscale>  0 0.18193960E+04</rscale>
<asrwt>0</asrwt>
<pdfrwt beam="1">  1        1 0.33730927E+00 0.18193960E+04</pdfrwt>
<pdfrwt beam="2">  1       -1 0.58068349E-01 0.18193960E+04</pdfrwt>
<totfact> 0.62414081E+00</totfact>
</mgrwt>
</event>
<event>
12    1  0.2404191E-008  0.3855188E+04  0.7818608E-02  0.8034414E-01
          2   -1    0    0  501    0  0.00000000000E+00  0.00000000000E+00  0.31152699858E+04  0.31152699858E+04  0.00000000000E+00 0. -1.
         -2   -1    0    0    0  501 -0.00000000000E+00 -0.00000000000E+00 -0.11927118898E+04  0.11927118898E+04  0.00000000000E+00 0.  1.
         23    2    1    2    0    0 -0.25038814411E+03 -0.37439431770E+03 -0.10622831183E+04  0.11576129490E+04  0.93578781491E+02 0.  0.
        254    2    1    2    0    0  0.25038814411E+03  0.37439431770E+03  0.29848412144E+04  0.31503689266E+04  0.90148875252E+03 0.  0.
        -24    2    4    4    0    0  0.36250222645E+03  0.59770090614E+03  0.17347391631E+04  0.18718617367E+04  0.76760406367E+02 0.  0.
         24    2    4    4    0    0 -0.11211408234E+03 -0.22330658844E+03  0.12501020512E+04  0.12785071899E+04  0.96902508464E+02 0.  0.
         13    1    3    3    0    0 -0.27562294734E+02 -0.65846966760E+01 -0.92830872143E+02  0.97059822502E+02  0.00000000000E+00 0. -1.
        -13    1    3    3    0    0 -0.22282584938E+03 -0.36780962102E+03 -0.96945224619E+03  0.10605531265E+04  0.00000000000E+00 0.  1.
          2    1    6    6  502    0 -0.23025447160E+02 -0.13963079502E+03  0.78260819227E+03  0.79530026578E+03  0.00000000000E+00 0. -1.
          1    1    5    5  503    0  0.14390829526E+03  0.30707475694E+03  0.80333334574E+03  0.87197991271E+03  0.00000000000E+00 0. -1.
         -4    1    5    5    0  503  0.21859393118E+03  0.29062614920E+03  0.93140581739E+03  0.99988182402E+03  0.00000000000E+00 0.  1.
         -1    1    6    6    0  502 -0.89088635176E+02 -0.83675793415E+02  0.46749385898E+03  0.48320692411E+03  0.00000000000E+00 0.  1.
<mgrwt>
<rscale>  0 0.38551885E+04</rscale>
<asrwt>0</asrwt>
<pdfrwt beam="1">  1        2 0.47927230E+00 0.38551885E+04</pdfrwt>
<pdfrwt beam="2">  1       -2 0.18349414E+00 0.38551885E+04</pdfrwt>
<totfact> 0.20131682E-01</totfact>
</mgrwt>
</event>
<event>
11    1  0.2404191E-008  0.2484378E+04  0.7818608E-02  0.8408572E-01
          2   -1    0    0  501    0  0.00000000000E+00  0.00000000000E+00  0.23373727773E+04  0.23373727773E+04  0.00000000000E+00 0. -1.
         -2   -1    0    0    0  501 -0.00000000000E+00 -0.00000000000E+00 -0.66015720914E+03  0.66015720914E+03  0.00000000000E+00 0.  1.
         23    2    1    2    0    0 -0.64421495789E+03  0.62859994617E+03  0.14510743420E+04  0.17098923765E+04  0.89243425478E+02 0.  0.
        254    2    1    2    0    0  0.64421495789E+03 -0.62859994617E+03  0.22614122623E+03  0.12876376100E+04  0.89259170740E+03 0.  0.
        -24    2    4    4    0    0  0.56156110837E+03 -0.56850090768E+03 -0.18169585546E+03  0.82373190983E+03  0.83526731783E+02 0.  0.
         13    1    3    3    0    0 -0.25739392985E+03  0.25479386740E+03  0.66784809233E+03  0.75973194248E+03  0.00000000000E+00 0. -1.
        -13    1    3    3    0    0 -0.38682102804E+03  0.37380607877E+03  0.78322624964E+03  0.95016043403E+03  0.00000000000E+00 0.  1.
          4    1    4    4  502    0  0.17571431038E+01  0.54281013707E+02  0.23613997845E+03  0.24230477796E+03  0.00000000000E+00 0. -1.
          1    1    5    5  503    0  0.51910312644E+03 -0.50600265565E+03 -0.18483248187E+03  0.74811081382E+03  0.00000000000E+00 0. -1.
         -2    1    5    5    0  503  0.42457981930E+02 -0.62498252038E+02  0.31366264169E+01  0.75621096016E+02  0.00000000000E+00 0.  1.
         -3    1    4    4    0  502  0.80896706424E+02 -0.11438005220E+03  0.17169710324E+03  0.22160092218E+03  0.00000000000E+00 0.  1.
<mgrwt>
<rscale>  0 0.24843780E+04</rscale>
<asrwt>0</asrwt>
<pdfrwt beam="1">  1        2 0.35959581E+00 0.24843780E+04</pdfrwt>
<pdfrwt beam="2">  1       -2 0.10156265E+00 0.24843780E+04</pdfrwt>
<totfact> 0.30685393E+00</totfact>
</mgrwt>
</event>
<event>
12    1  0.5074140E-008  0.2710807E+04  0.7818608E-02  0.8331507E-01
          3   -1    0    0  501    0  0.00000000000E+00  0.00000000000E+00  0.14488180096E+04  0.14488180096E+04  0.00000000000E+00 0. -1.
         -3   -1    0    0    0  501 -0.00000000000E+00 -0.00000000000E+00 -0.12680120726E+04  0.12680120726E+04  0.00000000000E+00 0.  1.
         23    2    1    2    0    0  0.80776583376E+03  0.88844686947E+03 -0.44547197356E+01  0.12041732700E+04  0.90498273648E+02 0.  0.
        254    2    1    2    0    0 -0.80776583376E+03 -0.88844686947E+03  0.18526065669E+03  0.15126568122E+04  0.90110245729E+03 0.  0.
        -24    2    4    4    0    0 -0.23283640371E+03 -0.88454083861E+03  0.91524092424E+02  0.92273053691E+03  0.80185398852E+02 0.  0.
         24    2    4    4    0    0 -0.57492943004E+03 -0.39060308596E+01  0.93736564270E+02  0.58992627529E+03  0.93098658387E+02 0.  0.
         13    1    3    3    0    0  0.37092529753E+02  0.29708581698E+02 -0.16365737671E+02  0.50262241887E+02  0.00000000000E+00 0. -1.
        -13    1    3    3    0    0  0.77067330400E+03  0.85873828778E+03  0.11911017936E+02  0.11539110281E+04  0.00000000000E+00 0.  1.
          2    1    6    6  502    0 -0.50132853163E+03  0.18831710109E+02  0.58052986551E+02  0.50502978048E+03  0.00000000000E+00 0. -1.
          3    1    5    5  503    0 -0.20680659595E+03 -0.83876786574E+03  0.99019375516E+02  0.86954317745E+03  0.00000000000E+00 0. -1.
         -4    1    5    5    0  503 -0.26029807763E+02 -0.45772972878E+02 -0.74952830915E+01  0.53187359465E+02  0.00000000000E+00 0.  1.
         -1    1    6    6    0  502 -0.73600898417E+02 -0.22737740968E+02  0.35683577719E+02  0.84896494809E+02  0.00000000000E+00 0.  1.
<mgrwt>
<rscale>  0 0.27108071E+04</rscale>
<asrwt>0</asrwt>
<pdfrwt beam="1">  1        3 0.22289508E+00 0.27108071E+04</pdfrwt>
<pdfrwt beam="2">  1       -3 0.19507878E+00 0.27108071E+04</pdfrwt>
<totfact> 0.38219311E-02</totfact>
</mgrwt>
</event>
<event>
12    1  0.2404191E-008  0.2184673E+04  0.7818608E-02  0.8524835E-01
          3   -1    0    0  501    0  0.00000000000E+00  0.00000000000E+00  0.52996076192E+03  0.52996076192E+03  0.00000000000E+00 0. -1.
         -3   -1    0    0    0  501 -0.00000000000E+00 -0.00000000000E+00 -0.22514864854E+04  0.22514864854E+04  0.00000000000E+00 0.  1.
         23    2    1    2    0    0 -0.22279464789E+03  0.72484316191E+03 -0.13486769706E+04  0.15498664665E+04  0.90118967660E+02 0.  0.
        254    2    1    2    0    0  0.22279464789E+03 -0.72484316191E+03 -0.37284875282E+03  0.12315807808E+04  0.89595756744E+03 0.  0.
        -24    2    4    4    0    0 -0.24338402440E+03 -0.79952207795E+02  0.11278040465E+03  0.29335458731E+03  0.87802934793E+02 0.  0.
         24    2    4    4    0    0  0.46617867229E+03 -0.64489095412E+03 -0.48562915746E+03  0.93822619348E+03  0.10595194362E+03 0.  0.
         13    1    3    3    0    0 -0.10949622354E+03  0.34054735796E+03 -0.72751557683E+03  0.81070391667E+03  0.00000000000E+00 0. -1.
        -13    1    3    3    0    0 -0.11329842435E+03  0.38429580396E+03 -0.62116139382E+03  0.73916254983E+03  0.00000000000E+00 0.  1.
          4    1    6    6  502    0  0.29762174130E+02 -0.30720594852E+02 -0.57444026351E+02  0.71619537281E+02  0.00000000000E+00 0. -1.
          1    1    5    5  503    0 -0.12582492202E+03 -0.71962846338E+02  0.26597812950E+02  0.14737030199E+03  0.00000000000E+00 0. -1.
         -2    1    5    5    0  503 -0.11755910238E+03 -0.79893614575E+01  0.86182591698E+02  0.14598428532E+03  0.00000000000E+00 0.  1.
         -3    1    6    6    0  502  0.43641649816E+03 -0.61417035926E+03 -0.42818513111E+03  0.86660665620E+03  0.00000000000E+00 0.  1.
<mgrwt>
<rscale>  0 0.21846734E+04</rscale>
<asrwt>0</asrwt>
<pdfrwt beam="1">  1        3 0.81532426E-01 0.21846734E+04</pdfrwt>
<pdfrwt beam="2">  1       -3 0.34638253E+00 0.21846734E+04</pdfrwt>
<totfact> 0.69914534E-02</totfact>
</mgrwt>
</event>
<event>
11    1  0.2404191E-008  0.2910534E+04  0.7818608E-02  0.8269750E-01
          2   -1    0    0  501    0  0.00000000000E+00  0.00000000000E+00  0.13367249624E+04  0.13367249624E+04  0.00000000000E+00 0.  1.
         -2   -1    0    0    0  501 -0.00000000000E+00 -0.00000000000E+00 -0.15843217004E+04  0.15843217004E+04  0.00000000000E+00 0. -1.
         23    2    1    2    0    0 -0.39310599360E+03  0.10131684800E+04 -0.85750364893E+03  0.13873415479E+04  0.91440536022E+02 0.  0.
        254    2    1    2    0    0  0.39310599360E+03 -0.10131684800E+04  0.60990691091E+03  0.15337051149E+04  0.89399230894E+03 0.  0.
        -24    2    4    4    0    0 -0.15745692414E+03 -0.65664548771E+03  0.52639692268E+03  0.85999460838E+03  0.80752874529E+02 0.  0.
         11    1    3    3    0    0 -0.29465200017E+02  0.88678113978E+02 -0.10845325767E+03  0.14315765788E+03  0.00000000000E+00 0. -1.
        -11    1    3    3    0    0 -0.36364079358E+03  0.92449036599E+03 -0.74905039127E+03  0.12441838900E+04  0.00000000000E+00 0.  1.
          2    1    4    4  502    0  0.37717112954E+02 -0.62855604078E+02  0.33583554506E+02  0.80630408078E+02  0.00000000000E+00 0. -1.
          3    1    5    5  503    0 -0.28623441211E+02 -0.12481465150E+03  0.61948197780E+02  0.14225181132E+03  0.00000000000E+00 0. -1.
         -4    1    5    5    0  503 -0.12883348293E+03 -0.53183083620E+03  0.46444872490E+03  0.71774279705E+03  0.00000000000E+00 0.  1.
         -1    1    4    4    0  502  0.51284580478E+03 -0.29366738819E+03  0.49926433724E+02  0.59308009843E+03  0.00000000000E+00 0.  1.
<mgrwt>
<rscale>  0 0.29105342E+04</rscale>
<asrwt>0</asrwt>
<pdfrwt beam="1">  1        2 0.20564999E+00 0.29105342E+04</pdfrwt>
<pdfrwt beam="2">  1       -2 0.24374180E+00 0.29105342E+04</pdfrwt>
<totfact> 0.95313001E-01</totfact>
</mgrwt>
</event>
<event>
11    1  0.2404191E-008  0.1822056E+04  0.7818608E-02  0.8694657E-01
         -1   -1    0    0    0  501 -0.00000000000E+00  0.00000000000E+00  0.32986782410E+03  0.32986782410E+03  0.00000000000E+00 0.  1.
          1   -1    0    0  501    0  0.00000000000E+00 -0.00000000000E+00 -0.25160751153E+04  0.25160751153E+04  0.00000000000E+00 0. -1.
         23    2    1    2    0    0  0.68751443374E+03 -0.46221531323E+02 -0.92412716260E+03  0.11571563349E+04  0.10093187931E+03 0.  0.
        254    2    1    2    0    0 -0.68751443374E+03  0.46221531323E+02 -0.12620801286E+04  0.16887866045E+04  0.88563051997E+03 0.  0.
        -24    2    4    4    0    0 -0.72322378559E+03 -0.13770379400E+03 -0.11098188666E+04  0.13341968769E+04  0.79802322536E+02 0.  0.
         11    1    3    3    0    0  0.45242900528E+03 -0.27567438299E+02 -0.52529581129E+03  0.69382105606E+03  0.00000000000E+00 0. -1.
        -11    1    3    3    0    0  0.23508542846E+03 -0.18654093024E+02 -0.39883135131E+03  0.46333527887E+03  0.00000000000E+00 0.  1.
          2    1    4    4  502    0 -0.79391143855E+02  0.17608507306E+03 -0.47859031786E+02  0.19899596378E+03  0.00000000000E+00 0. -1.
          1    1    5    5  503    0 -0.28282010972E+03 -0.68211562762E+02 -0.50494578958E+03  0.58276091338E+03  0.00000000000E+00 0. -1.
         -2    1    5    5    0  503 -0.44040367587E+03 -0.69492231239E+02 -0.60487307700E+03  0.75143596347E+03  0.00000000000E+00 0.  1.
         -1    1    4    4    0  502  0.11510049571E+03  0.78402522674E+01 -0.10440223024E+03  0.15559376385E+03  0.00000000000E+00 0.  1.
<mgrwt>
<rscale>  0 0.18220562E+04</rscale>
<asrwt>0</asrwt>
<pdfrwt beam="1">  1        1 0.38708848E+00 0.18220562E+04</pdfrwt>
<pdfrwt beam="2">  1       -1 0.50748896E-01 0.18220562E+04</pdfrwt>
<totfact> 0.48568513E+00</totfact>
</mgrwt>
</event>
<event>
12    1  0.2404191E-008  0.2274834E+04  0.7818608E-02  0.8487910E-01
          1   -1    0    0  501    0  0.00000000000E+00  0.00000000000E+00  0.15118516206E+04  0.15118516206E+04  0.00000000000E+00 0. -1.
         -1   -1    0    0    0  501 -0.00000000000E+00 -0.00000000000E+00 -0.85571707594E+03  0.85571707594E+03  0.00000000000E+00 0.  1.
         23    2    1    2    0    0  0.79034967584E+03 -0.34581330447E+03 -0.14909547509E+03  0.88048312525E+03  0.93710306357E+02 0.  0.
        254    2    1    2    0    0 -0.79034967584E+03  0.34581330447E+03  0.80523001979E+03  0.14870855713E+04  0.90486941602E+03 0.  0.
        -24    2    4    4    0    0 -0.87490202433E+03 -0.54676018334E+01  0.50934058267E+03  0.10155787019E+04  0.80553235513E+02 0.  0.
         24    2    4    4    0    0  0.84552348493E+02  0.35128090630E+03  0.29588943712E+03  0.47150686943E+03  0.64967639255E+02 0.  0.
         11    1    3    3    0    0  0.61748287188E+02 -0.40680928933E+02  0.10264484454E+02  0.74653523631E+02  0.00000000000E+00 0. -1.
        -11    1    3    3    0    0  0.72860138865E+03 -0.30513237554E+03 -0.15935995954E+03  0.80582960162E+03  0.00000000000E+00 0.  1.
          2    1    6    6  502    0 -0.35312761177E+01  0.38897922975E+02  0.13603795175E+02  0.41359177530E+02  0.00000000000E+00 0. -1.
          1    1    5    5  503    0 -0.11971629158E+03 -0.19650377859E+02  0.94920171964E+02  0.15403884856E+03  0.00000000000E+00 0. -1.
         -2    1    5    5    0  503 -0.75518573275E+03  0.14182776026E+02  0.41442041071E+03  0.86153985335E+03  0.00000000000E+00 0.  1.
         -1    1    6    6    0  502  0.88083624611E+02  0.31238298333E+03  0.28228564194E+03  0.43014769190E+03  0.00000000000E+00 0.  1.
<mgrwt>
<rscale>  0 0.22748338E+04</rscale>
<asrwt>0</asrwt>
<pdfrwt beam="1">  1        1 0.23259256E+00 0.22748338E+04</pdfrwt>
<pdfrwt beam="2">  1       -1 0.13164878E+00 0.22748338E+04</pdfrwt>
<totfact> 0.28561496E+00</totfact>
</mgrwt>
</event>
<event>
11    1  0.2404191E-008  0.1420463E+04  0.7818608E-02  0.8939138E-01
         -1   -1    0    0    0  501 -0.00000000000E+00  0.00000000000E+00  0.29063487562E+03  0.29063487562E+03  0.00000000000E+00 0.  1.
          1   -1    0    0  501    0  0.00000000000E+00 -0.00000000000E+00 -0.17356100921E+04  0.17356100921E+04  0.00000000000E+00 0. -1.
         23    2    1    2    0    0  0.65010285182E+02  0.35473288850E+03 -0.69338583389E+03  0.78684719912E+03  0.91010113462E+02 0.  0.
        254    2    1    2    0    0 -0.65010285182E+02 -0.35473288850E+03 -0.75158938257E+03  0.12393977686E+04  0.91714691812E+03 0.  0.
        -24    2    4    4    0    0  0.20310830537E+03 -0.41469428232E+03 -0.26914307959E+03  0.54041400318E+03  0.79905982501E+02 0.  0.
         11    1    3    3    0    0  0.44637284716E+02  0.28755340211E+03 -0.47098646448E+03  0.55363137192E+03  0.00000000000E+00 0. -1.
        -11    1    3    3    0    0  0.20373000465E+02  0.67179486390E+02 -0.22239936941E+03  0.23321582719E+03  0.00000000000E+00 0.  1.
          2    1    4    4  502    0  0.42537117372E+02 -0.12509725022E+03 -0.20200192419E+03  0.24137834564E+03  0.00000000000E+00 0. -1.
          1    1    5    5  503    0  0.90312574618E+02 -0.20328143226E+03 -0.84672232204E+02  0.23801069039E+03  0.00000000000E+00 0. -1.
         -2    1    5    5    0  503  0.11279573076E+03 -0.21141285006E+03 -0.18447084739E+03  0.30240331279E+03  0.00000000000E+00 0.  1.
         -1    1    4    4    0  502 -0.31065570793E+03  0.18505864404E+03 -0.28044437879E+03  0.45760541976E+03  0.00000000000E+00 0.  1.
<mgrwt>
<rscale>  0 0.14204631E+04</rscale>
<asrwt>0</asrwt>
<pdfrwt beam="1">  1        1 0.26701694E+00 0.14204631E+04</pdfrwt>
<pdfrwt beam="2">  1       -1 0.44713058E-01 0.14204631E+04</pdfrwt>
<totfact> 0.21748838E+01</totfact>
</mgrwt>
</event>
<event>
11    1  0.2404191E-008  0.2445162E+04  0.7818608E-02  0.8422786E-01
          2   -1    0    0  501    0  0.00000000000E+00  0.00000000000E+00  0.11680806735E+04  0.11680806735E+04  0.00000000000E+00 0. -1.
         -2   -1    0    0    0  501 -0.00000000000E+00 -0.00000000000E+00 -0.12796246116E+04  0.12796246116E+04  0.00000000000E+00 0.  1.
         23    2    1    2    0    0 -0.36347484857E+03 -0.28937780423E+02  0.94140410864E+03  0.10141771431E+04  0.96758571414E+02 0.  0.
        254    2    1    2    0    0  0.36347484857E+03  0.28937780423E+02 -0.10529480467E+04  0.14335281420E+04  0.90186029074E+03 0.  0.
        -24    2    4    4    0    0  0.48516506228E+02  0.34447519864E+03 -0.39189493857E+03  0.52979658461E+03  0.78011309046E+02 0.  0.
         13    1    3    3    0    0 -0.11116514929E+03  0.27630246849E+02  0.36207135985E+03  0.37975885846E+03  0.00000000000E+00 0.  1.
        -13    1    3    3    0    0 -0.25230969928E+03 -0.56568027272E+02  0.57933274879E+03  0.63441828464E+03  0.00000000000E+00 0. -1.
          2    1    4    4  502    0  0.36708020756E+03 -0.36784534147E+03 -0.47692355677E+03  0.70534683172E+03  0.00000000000E+00 0. -1.
          1    1    5    5  503    0  0.33916229844E+01  0.24703612654E+03 -0.24601637020E+03  0.34865800625E+03  0.00000000000E+00 0. -1.
         -2    1    5    5    0  503  0.45124883243E+02  0.97439072103E+02 -0.14587856837E+03  0.18113857836E+03  0.00000000000E+00 0.  1.
         -1    1    4    4    0  502 -0.52121865213E+02  0.52307923250E+02 -0.18412955140E+03  0.19838472563E+03  0.00000000000E+00 0.  1.
<mgrwt>
<rscale>  0 0.24451624E+04</rscale>
<asrwt>0</asrwt>
<pdfrwt beam="1">  1        2 0.17970472E+00 0.24451624E+04</pdfrwt>
<pdfrwt beam="2">  1       -2 0.19686533E+00 0.24451624E+04</pdfrwt>
<totfact> 0.24737844E+00</totfact>
</mgrwt>
</event>
<event>
12    1  0.2922506E-008  0.1321111E+04  0.7818608E-02  0.9012990E-01
          2   -1    0    0  501    0  0.00000000000E+00  0.00000000000E+00  0.14231679236E+04  0.14231679236E+04  0.00000000000E+00 0. -1.
         -2   -1    0    0    0  501 -0.00000000000E+00 -0.00000000000E+00 -0.30659294952E+03  0.30659294952E+03  0.00000000000E+00 0.  1.
         23    2    1    2    0    0 -0.27157975931E+03  0.73430783776E+02  0.57584523162E+03  0.64668922884E+03  0.86380450640E+02 0.  0.
        254    2    1    2    0    0  0.27157975931E+03 -0.73430783776E+02  0.54072974248E+03  0.10830716443E+04  0.89526972841E+03 0.  0.
        -24    2    4    4    0    0 -0.22394015306E+03 -0.20165452620E+03  0.46199841040E+03  0.55682595730E+03  0.76150347532E+02 0.  0.
         24    2    4    4    0    0  0.49551991236E+03  0.12822374242E+03  0.78731332080E+02  0.52624568699E+03  0.93565959405E+02 0.  0.
         11    1    3    3    0    0 -0.43177072730E+02  0.22761119859E+02  0.18354371734E+03  0.18992267995E+03  0.00000000000E+00 0.  1.
        -11    1    3    3    0    0 -0.22840268658E+03  0.50669663917E+02  0.39230151428E+03  0.45676654889E+03  0.00000000000E+00 0. -1.
          2    1    6    6  502    0  0.49560306381E+03  0.11717100626E+03  0.77364657612E+02  0.51510846607E+03  0.00000000000E+00 0. -1.
          1    1    5    5  503    0 -0.21330210289E+03 -0.15683095723E+03  0.39241437424E+03  0.47337382411E+03  0.00000000000E+00 0. -1.
         -2    1    5    5    0  503 -0.10638050169E+02 -0.44823568972E+02  0.69584036152E+02  0.83452133190E+02  0.00000000000E+00 0.  1.
         -1    1    6    6    0  502 -0.83151452809E-01  0.11052736158E+02  0.13666744683E+01  0.11137220921E+02  0.00000000000E+00 0.  1.
<mgrwt>
<rscale>  0 0.13211105E+04</rscale>
<asrwt>0</asrwt>
<pdfrwt beam="1">  1        2 0.21894891E+00 0.13211105E+04</pdfrwt>
<pdfrwt beam="2">  1       -2 0.47168147E-01 0.13211105E+04</pdfrwt>
<totfact> 0.58505224E+01</totfact>
</mgrwt>
</event>
<event>
11    1  0.2404191E-008  0.1780840E+04  0.7818608E-02  0.8716555E-01
          2   -1    0    0  501    0  0.00000000000E+00  0.00000000000E+00  0.27143219280E+04  0.27143219280E+04  0.00000000000E+00 0.  1.
         -2   -1    0    0    0  501 -0.00000000000E+00 -0.00000000000E+00 -0.29209800171E+03  0.29209800171E+03  0.00000000000E+00 0. -1.
         23    2    1    2    0    0 -0.12098073038E+03 -0.19979850834E+03  0.19499699756E+04  0.19662294335E+04  0.95496064402E+02 0.  0.
        254    2    1    2    0    0  0.12098073038E+03  0.19979850834E+03  0.47225395064E+03  0.10401904962E+04  0.89689279927E+03 0.  0.
        -24    2    4    4    0    0  0.47825817230E+03  0.19507012758E+03  0.16319854873E+03  0.54737668273E+03  0.78766950206E+02 0.  0.
         11    1    3    3    0    0  0.46437686049E+01 -0.41988480350E+02  0.18451529007E+03  0.18928943272E+03  0.00000000000E+00 0. -1.
        -11    1    3    3    0    0 -0.12562449898E+03 -0.15781002799E+03  0.17654546856E+04  0.17769400008E+04  0.00000000000E+00 0.  1.
          2    1    4    4  502    0 -0.11582906758E+03 -0.55213149001E+02  0.63146342002E+02  0.14301162620E+03  0.00000000000E+00 0. -1.
          3    1    5    5  503    0  0.40861638610E+03  0.15118280477E+03  0.10997796706E+03  0.44935369664E+03  0.00000000000E+00 0. -1.
         -4    1    5    5    0  503  0.69641786200E+02  0.43887322808E+02  0.53220581671E+02  0.98022986089E+02  0.00000000000E+00 0.  1.
         -1    1    4    4    0  502 -0.24144837434E+03  0.59941529762E+02  0.24590905991E+03  0.34980218725E+03  0.00000000000E+00 0.  1.
<mgrwt>
<rscale>  0 0.17808403E+04</rscale>
<asrwt>0</asrwt>
<pdfrwt beam="1">  1        2 0.41758797E+00 0.17808403E+04</pdfrwt>
<pdfrwt beam="2">  1       -2 0.44938156E-01 0.17808403E+04</pdfrwt>
<totfact> 0.11587340E+01</totfact>
</mgrwt>
</event>
<event>
11    1  0.2404191E-008  0.2077969E+04  0.7818608E-02  0.8571011E-01
          1   -1    0    0  501    0  0.00000000000E+00  0.00000000000E+00  0.14321398356E+04  0.14321398356E+04  0.00000000000E+00 0. -1.
         -1   -1    0    0    0  501 -0.00000000000E+00 -0.00000000000E+00 -0.75375918607E+03  0.75375918607E+03  0.00000000000E+00 0.  1.
         23    2    1    2    0    0  0.32547677494E+03 -0.76142381202E+03  0.11633945816E+03  0.84223609348E+03  0.10062512161E+03 0.  0.
        254    2    1    2    0    0 -0.32547677494E+03  0.76142381202E+03  0.56204119139E+03  0.13436629282E+04  0.89657036048E+03 0.  0.
        -24    2    4    4    0    0 -0.11200198044E+00  0.83657260825E+03  0.26306351121E+03  0.88108018596E+03  0.85124272416E+02 0.  0.
         13    1    3    3    0    0  0.17068244617E+03 -0.41683108465E+03  0.11332592345E+03  0.46446034867E+03  0.00000000000E+00 0. -1.
        -13    1    3    3    0    0  0.15479432878E+03 -0.34459272737E+03  0.30135347154E+01  0.37777574481E+03  0.00000000000E+00 0.  1.
          2    1    4    4  502    0 -0.30542192040E+03 -0.34437643179E+02  0.25408854556E+03  0.39878501691E+03  0.00000000000E+00 0. -1.
          3    1    5    5  503    0  0.27272783528E+02  0.64796449428E+03  0.17906479254E+03  0.67280457081E+03  0.00000000000E+00 0. -1.
         -4    1    5    5    0  503 -0.27384785508E+02  0.18860811396E+03  0.83998718669E+02  0.20827561516E+03  0.00000000000E+00 0.  1.
         -1    1    4    4    0  502 -0.19942852567E+02 -0.40711153050E+02  0.44889134626E+02  0.63797725341E+02  0.00000000000E+00 0.  1.
<mgrwt>
<rscale>  0 0.20779688E+04</rscale>
<asrwt>0</asrwt>
<pdfrwt beam="1">  1        1 0.22032921E+00 0.20779688E+04</pdfrwt>
<pdfrwt beam="2">  1       -1 0.11596295E+00 0.20779688E+04</pdfrwt>
<totfact> 0.45217868E+00</totfact>
</mgrwt>
</event>
<event>
11    1  0.2404191E-008  0.1657620E+04  0.7818608E-02  0.8785911E-01
          1   -1    0    0  501    0  0.00000000000E+00  0.00000000000E+00  0.20544050224E+04  0.20544050224E+04  0.00000000000E+00 0. -1.
         -1   -1    0    0    0  501 -0.00000000000E+00 -0.00000000000E+00 -0.33436742762E+03  0.33436742762E+03  0.00000000000E+00 0.  1.
         23    2    1    2    0    0 -0.97432309077E+02 -0.11450858926E+03 -0.20047338015E+03  0.26664948507E+03  0.91143293059E+02 0.  0.
        254    2    1    2    0    0  0.97432309077E+02  0.11450858926E+03  0.19205109750E+04  0.21221229650E+04  0.89018998069E+03 0.  0.
        -24    2    4    4    0    0 -0.24518884096E+03  0.16099403277E+03  0.21815979509E+03  0.37396001241E+03  0.78840017567E+02 0.  0.
         11    1    3    3    0    0 -0.61104560930E+02 -0.50150780457E+02 -0.16851059605E+03  0.18613083874E+03  0.00000000000E+00 0.  1.
        -11    1    3    3    0    0 -0.36327748147E+02 -0.64357808800E+02 -0.31962784100E+02  0.80518646327E+02  0.00000000000E+00 0. -1.
          4    1    4    4  502    0  0.28137015762E+03 -0.11471911660E+03  0.12283714085E+04  0.12653955740E+04  0.00000000000E+00 0. -1.
          3    1    5    5  503    0 -0.17432078577E+03  0.14709047533E+03  0.14039152315E+03  0.26783040167E+03  0.00000000000E+00 0. -1.
         -4    1    5    5    0  503 -0.70868055186E+02  0.13903557436E+02  0.77768271943E+02  0.10612961074E+03  0.00000000000E+00 0.  1.
         -3    1    4    4    0  502  0.61250992420E+02  0.68233673090E+02  0.47397977132E+03  0.48276737860E+03  0.00000000000E+00 0.  1.
<mgrwt>
<rscale>  0 0.16576201E+04</rscale>
<asrwt>0</asrwt>
<pdfrwt beam="1">  1        1 0.31606230E+00 0.16576201E+04</pdfrwt>
<pdfrwt beam="2">  1       -1 0.51441144E-01 0.16576201E+04</pdfrwt>
<totfact> 0.99407547E+00</totfact>
</mgrwt>
</event>
<event>
12    1  0.2901470E-008  0.1244232E+04  0.7818608E-02  0.9074998E-01
          1   -1    0    0  501    0  0.00000000000E+00  0.00000000000E+00  0.16588168646E+04  0.16588168646E+04  0.00000000000E+00 0. -1.
         -1   -1    0    0    0  501 -0.00000000000E+00 -0.00000000000E+00 -0.23331578346E+03  0.23331578346E+03  0.00000000000E+00 0.  1.
         23    2    1    2    0    0  0.23828502600E+03 -0.13344650542E+03  0.46788060889E+03  0.54936416839E+03  0.91109834348E+02 0.  0.
        254    2    1    2    0    0 -0.23828502600E+03  0.13344650542E+03  0.95762047229E+03  0.13427684797E+04  0.90077882843E+03 0.  0.
        -24    2    4    4    0    0 -0.65926603360E+02 -0.99537167135E+01 -0.16450990532E+03  0.19451154190E+03  0.79535133609E+02 0.  0.
         24    2    4    4    0    0 -0.17235842263E+03  0.14340022213E+03  0.11221303776E+04  0.11482569378E+04  0.95112361508E+02 0.  0.
         11    1    3    3    0    0  0.15212539413E+03 -0.56545533673E+02  0.19940175857E+03  0.25710035830E+03  0.00000000000E+00 0.  1.
        -11    1    3    3    0    0  0.86159631861E+02 -0.76900971748E+02  0.26847885032E+03  0.29226381009E+03  0.00000000000E+00 0. -1.
          4    1    6    6  502    0 -0.24113865084E+02  0.40470179914E+02  0.10289457014E+03  0.11316627817E+03  0.00000000000E+00 0. -1.
          1    1    5    5  503    0  0.10387674329E+02 -0.22373275337E+02 -0.25711443871E+02  0.35630683030E+02  0.00000000000E+00 0. -1.
         -2    1    5    5    0  503 -0.76314277690E+02  0.12419558623E+02 -0.13879846145E+03  0.15888085887E+03  0.00000000000E+00 0.  1.
         -3    1    6    6    0  502 -0.14824455755E+03  0.10293004222E+03  0.10192358075E+04  0.10350906596E+04  0.00000000000E+00 0.  1.
<mgrwt>
<rscale>  0 0.12442317E+04</rscale>
<asrwt>0</asrwt>
<pdfrwt beam="1">  1        1 0.25520259E+00 0.12442317E+04</pdfrwt>
<pdfrwt beam="2">  1       -1 0.35894737E-01 0.12442317E+04</pdfrwt>
<totfact> 0.37207205E+01</totfact>
</mgrwt>
</event>
<event>
12    1  0.2404191E-008  0.2077826E+04  0.7818608E-02  0.8571074E-01
         -1   -1    0    0    0  501 -0.00000000000E+00  0.00000000000E+00  0.59815099411E+03  0.59815099411E+03  0.00000000000E+00 0.  1.
          1   -1    0    0  501    0  0.00000000000E+00 -0.00000000000E+00 -0.18044616480E+04  0.18044616480E+04  0.00000000000E+00 0. -1.
         23    2    1    2    0    0 -0.61414836503E+03  0.44400933484E+03 -0.92065889869E+03  0.11955995327E+04  0.86734832130E+02 0.  0.
        254    2    1    2    0    0  0.61414836503E+03 -0.44400933484E+03 -0.28565175517E+03  0.12070131094E+04  0.89496436652E+03 0.  0.
        -24    2    4    4    0    0  0.59380006414E+03 -0.67876763389E+03 -0.31765384738E+03  0.95958529923E+03  0.81092310079E+02 0.  0.
         24    2    4    4    0    0  0.20348300897E+02  0.23475829905E+03  0.32002092204E+02  0.24742781018E+03  0.68343800173E+02 0.  0.
         11    1    3    3    0    0 -0.56442857143E+03  0.40890229124E+03 -0.87922307334E+03  0.11219687646E+04  0.00000000000E+00 0. -1.
        -11    1    3    3    0    0 -0.49719793606E+02  0.35107043606E+02 -0.41435825351E+02  0.73630768089E+02  0.00000000000E+00 0.  1.
          4    1    6    6  502    0  0.21586140486E+02  0.18764255738E+03  0.52486124737E+02  0.19603694573E+03  0.00000000000E+00 0. -1.
          3    1    5    5  503    0  0.44522953697E+03 -0.52785533926E+03 -0.27650448321E+03  0.74385168483E+03  0.00000000000E+00 0. -1.
         -4    1    5    5    0  503  0.14857052717E+03 -0.15091229463E+03 -0.41149364163E+02  0.21573361440E+03  0.00000000000E+00 0.  1.
         -3    1    6    6    0  502 -0.12378395887E+01  0.47115741663E+02 -0.20484032533E+02  0.51390864442E+02  0.00000000000E+00 0.  1.
<mgrwt>
<rscale>  0 0.20778263E+04</rscale>
<asrwt>0</asrwt>
<pdfrwt beam="1">  1        1 0.27760948E+00 0.20778263E+04</pdfrwt>
<pdfrwt beam="2">  1       -1 0.92023232E-01 0.20778263E+04</pdfrwt>
<totfact> 0.42858309E+00</totfact>
</mgrwt>
</event>
<event>
12    1  0.2404191E-008  0.1506898E+04  0.7818608E-02  0.8879879E-01
          1   -1    0    0  501    0  0.00000000000E+00  0.00000000000E+00  0.78099560117E+03  0.78099560117E+03  0.00000000000E+00 0. -1.
         -1   -1    0    0    0  501 -0.00000000000E+00 -0.00000000000E+00 -0.72687420564E+03  0.72687420564E+03  0.00000000000E+00 0.  1.
         23    2    1    2    0    0 -0.12495933208E+03 -0.26839038942E+03  0.39939679541E+03  0.50437907091E+03  0.85042408199E+02 0.  0.
        254    2    1    2    0    0  0.12495933208E+03  0.26839038942E+03 -0.34527539988E+03  0.10034907359E+04  0.89450003883E+03 0.  0.
        -24    2    4    4    0    0  0.88228628726E+01  0.58412324564E+03 -0.25832213911E+03  0.64424741521E+03  0.83944001862E+02 0.  0.
         24    2    4    4    0    0  0.11613646920E+03 -0.31573285622E+03 -0.86953260773E+02  0.35924332069E+03  0.91213913004E+02 0.  0.
         11    1    3    3    0    0  0.11296960822E+02 -0.12647539218E+02  0.34282579930E+02  0.38247573240E+02  0.00000000000E+00 0.  1.
        -11    1    3    3    0    0 -0.13625629290E+03 -0.25574285020E+03  0.36511421548E+03  0.46613149768E+03  0.00000000000E+00 0. -1.
          2    1    6    6  502    0  0.66709414297E+02 -0.81914016562E+02 -0.21682730401E+01  0.10566339704E+03  0.00000000000E+00 0. -1.
          1    1    5    5  503    0 -0.10048208877E+02  0.95945793699E+02 -0.75932783549E+02  0.12276949722E+03  0.00000000000E+00 0. -1.
         -2    1    5    5    0  503  0.18871071749E+02  0.48817745194E+03 -0.18238935556E+03  0.52147791799E+03  0.00000000000E+00 0.  1.
         -1    1    6    6    0  502  0.49427054907E+02 -0.23381883966E+03 -0.84784987732E+02  0.25357992366E+03  0.00000000000E+00 0.  1.
<mgrwt>
<rscale>  0 0.15068982E+04</rscale>
<asrwt>0</asrwt>
<pdfrwt beam="1">  1        1 0.12015317E+00 0.15068982E+04</pdfrwt>
<pdfrwt beam="2">  1       -1 0.11182680E+00 0.15068982E+04</pdfrwt>
<totfact> 0.16308867E+01</totfact>
</mgrwt>
</event>
<event>
12    1  0.2404191E-008  0.1756233E+04  0.7818608E-02  0.8729927E-01
         -2   -1    0    0    0  501 -0.00000000000E+00  0.00000000000E+00  0.68650753388E+03  0.68650753388E+03  0.00000000000E+00 0.  1.
          2   -1    0    0  501    0  0.00000000000E+00 -0.00000000000E+00 -0.11232054554E+04  0.11232054554E+04  0.00000000000E+00 0. -1.
         23    2    1    2    0    0  0.37158680413E+03  0.44378452315E+03 -0.47208516076E+03  0.75211943060E+03  0.88305055812E+02 0.  0.
        254    2    1    2    0    0 -0.37158680413E+03 -0.44378452315E+03  0.35387239244E+02  0.10575935587E+04  0.88443791340E+03 0.  0.
        -24    2    4    4    0    0 -0.28378098939E+03  0.18806912668E+03  0.18542522097E+03  0.39600978656E+03  0.80867744700E+02 0.  0.
         24    2    4    4    0    0 -0.87805814747E+02 -0.63185364982E+03 -0.15003798172E+03  0.66158377212E+03  0.90734754501E+02 0.  0.
         13    1    3    3    0    0  0.28383462449E+03  0.33548060338E+03 -0.30700983269E+03  0.53606377108E+03  0.00000000000E+00 0. -1.
        -13    1    3    3    0    0  0.87752179644E+02  0.10830391977E+03 -0.16507532808E+03  0.21605565952E+03  0.00000000000E+00 0.  1.
          4    1    6    6  502    0 -0.99844305244E+02 -0.61602889546E+03 -0.14934306176E+03  0.64168826966E+03  0.00000000000E+00 0. -1.
          3    1    5    5  503    0 -0.17424964555E+03  0.14883634421E+03  0.92569362375E+02  0.24715234813E+03  0.00000000000E+00 0. -1.
         -4    1    5    5    0  503 -0.10953134383E+03  0.39232782467E+02  0.92855858591E+02  0.14885743843E+03  0.00000000000E+00 0.  1.
         -1    1    6    6    0  502  0.12038490498E+02 -0.15824754366E+02 -0.69491996068E+00  0.19895502455E+02  0.00000000000E+00 0.  1.
<mgrwt>
<rscale>  0 0.17562335E+04</rscale>
<asrwt>0</asrwt>
<pdfrwt beam="1">  1        2 0.17280084E+00 0.17562335E+04</pdfrwt>
<pdfrwt beam="2">  1       -2 0.10561654E+00 0.17562335E+04</pdfrwt>
<totfact> 0.14478037E+01</totfact>
</mgrwt>
</event>
<event>
12    1  0.2404191E-008  0.1207659E+04  0.7818608E-02  0.9106179E-01
         -2   -1    0    0    0  501 -0.00000000000E+00  0.00000000000E+00  0.25286109704E+03  0.25286109704E+03  0.00000000000E+00 0.  1.
          2   -1    0    0  501    0  0.00000000000E+00 -0.00000000000E+00 -0.14419371872E+04  0.14419371872E+04  0.00000000000E+00 0. -1.
         23    2    1    2    0    0 -0.14823060436E+03  0.19853084990E+03 -0.32244875584E+03  0.41688168509E+03  0.91816821971E+02 0.  0.
        254    2    1    2    0    0  0.14823060436E+03 -0.19853084990E+03 -0.86662733435E+03  0.12779165992E+04  0.90589242593E+03 0.  0.
        -24    2    4    4    0    0 -0.18026819010E+03  0.25662817092E+03 -0.52889365503E+03  0.62009057137E+03  0.80182166932E+02 0.  0.
         24    2    4    4    0    0  0.32849879446E+03 -0.45515902082E+03 -0.33773367932E+03  0.65782602780E+03  0.59915377967E+02 0.  0.
         11    1    3    3    0    0 -0.14869094330E+03  0.18849812395E+03 -0.26104440648E+03  0.35466141813E+03  0.00000000000E+00 0. -1.
        -11    1    3    3    0    0  0.46033894184E+00  0.10032725949E+02 -0.61404349354E+02  0.62220266967E+02  0.00000000000E+00 0.  1.
          4    1    6    6  502    0  0.25117866605E+03 -0.37865559181E+03 -0.25404827021E+03  0.52058745959E+03  0.00000000000E+00 0. -1.
          1    1    5    5  503    0 -0.15811122201E+03  0.22732695642E+03 -0.50597930661E+03  0.57679438482E+03  0.00000000000E+00 0. -1.
         -2    1    5    5    0  503 -0.22156968091E+02  0.29301214500E+02 -0.22914348425E+02  0.43296186551E+02  0.00000000000E+00 0.  1.
         -3    1    6    6    0  502  0.77320128404E+02 -0.76503429007E+02 -0.83685409109E+02  0.13723856821E+03  0.00000000000E+00 0.  1.
<mgrwt>
<rscale>  0 0.12076586E+04</rscale>
<asrwt>0</asrwt>
<pdfrwt beam="1">  1        2 0.22183649E+00 0.12076586E+04</pdfrwt>
<pdfrwt beam="2">  1       -2 0.38901707E-01 0.12076586E+04</pdfrwt>
<totfact> 0.84297143E+01</totfact>
</mgrwt>
</event>
<event>
11    1  0.2404191E-008  0.1277206E+04  0.7818608E-02  0.9047839E-01
         -1   -1    0    0    0  501 -0.00000000000E+00  0.00000000000E+00  0.20192122051E+03  0.20192122051E+03  0.00000000000E+00 0.  1.
          1   -1    0    0  501    0  0.00000000000E+00 -0.00000000000E+00 -0.20196674065E+04  0.20196674065E+04  0.00000000000E+00 0. -1.
         23    2    1    2    0    0  0.26270229612E+03  0.22159137237E+03 -0.31024831360E+03  0.47229999151E+03  0.93263246733E+02 0.  0.
        254    2    1    2    0    0 -0.26270229612E+03 -0.22159137237E+03 -0.15074978724E+04  0.17492886355E+04  0.81813547921E+03 0.  0.
        -24    2    4    4    0    0 -0.36367178855E+03 -0.39532920540E+02 -0.14566021400E+04  0.15039530913E+04  0.79781481721E+02 0.  0.
         13    1    3    3    0    0  0.89672454231E+02  0.10825031451E+03 -0.76000364147E+02  0.15979779407E+03  0.00000000000E+00 0.  1.
        -13    1    3    3    0    0  0.17302984189E+03  0.11334105786E+03 -0.23424794946E+03  0.31250219744E+03  0.00000000000E+00 0. -1.
          2    1    4    4  502    0  0.37310318990E+02 -0.15318914114E+03  0.19964241137E+01  0.15767992445E+03  0.00000000000E+00 0. -1.
          3    1    5    5  503    0 -0.36224040533E+03 -0.41007599544E+02 -0.14569519490E+04  0.15018684084E+04  0.00000000000E+00 0. -1.
         -4    1    5    5    0  503 -0.14313832233E+01  0.14746790038E+01  0.34980902475E+00  0.20846828176E+01  0.00000000000E+00 0.  1.
         -1    1    4    4    0  502  0.63659173444E+02 -0.28869310691E+02 -0.52892156499E+02  0.87655619799E+02  0.00000000000E+00 0.  1.
<mgrwt>
<rscale>  0 0.12772059E+04</rscale>
<asrwt>0</asrwt>
<pdfrwt beam="1">  1        1 0.31071808E+00 0.12772059E+04</pdfrwt>
<pdfrwt beam="2">  1       -1 0.31064802E-01 0.12772059E+04</pdfrwt>
<totfact> 0.27331567E+01</totfact>
</mgrwt>
</event>
<event>
11    1  0.2404191E-008  0.1398517E+04  0.7818608E-02  0.8954893E-01
         -2   -1    0    0    0  501 -0.00000000000E+00  0.00000000000E+00  0.18424332862E+03  0.18424332862E+03  0.00000000000E+00 0.  1.
          2   -1    0    0  501    0  0.00000000000E+00 -0.00000000000E+00 -0.26538960790E+04  0.26538960790E+04  0.00000000000E+00 0. -1.
         23    2    1    2    0    0  0.19444952256E+02 -0.36099254677E+03 -0.38889695139E+03  0.53853490687E+03  0.89918196850E+02 0.  0.
        254    2    1    2    0    0 -0.19444952256E+02  0.36099254677E+03 -0.20807557990E+04  0.22996045007E+04  0.90991342437E+03 0.  0.
        -24    2    4    4    0    0 -0.74107225290E+02 -0.10917705242E+02  0.57334239329E+02  0.12306194523E+03  0.79031324395E+02 0.  0.
         11    1    3    3    0    0  0.28800920687E+02 -0.33667400257E+03 -0.32206277908E+03  0.46680114686E+03  0.00000000000E+00 0.  1.
        -11    1    3    3    0    0 -0.93559684317E+01 -0.24318544204E+02 -0.66834172310E+02  0.71733760015E+02  0.00000000000E+00 0. -1.
          4    1    4    4  502    0  0.48751532951E+02  0.99060926418E+02 -0.10051299804E+04  0.10111755815E+04  0.00000000000E+00 0. -1.
          3    1    5    5  503    0 -0.64521236194E+01 -0.28565412084E+02 -0.46156251663E+01  0.29646528673E+02  0.00000000000E+00 0. -1.
         -4    1    5    5    0  503 -0.67655101671E+02  0.17647706842E+02  0.61949864495E+02  0.93415416553E+02  0.00000000000E+00 0.  1.
         -3    1    4    4    0  502  0.59107400841E+01  0.27284932560E+03 -0.11329600579E+04  0.11653669740E+04  0.00000000000E+00 0.  1.
<mgrwt>
<rscale>  0 0.13985173E+04</rscale>
<asrwt>0</asrwt>
<pdfrwt beam="1">  1        2 0.40829168E+00 0.13985173E+04</pdfrwt>
<pdfrwt beam="2">  1       -2 0.28345129E-01 0.13985173E+04</pdfrwt>
<totfact> 0.31536110E+01</totfact>
</mgrwt>
</event>
<event>
11    1  0.2404191E-008  0.2331598E+04  0.7818608E-02  0.8465566E-01
          2   -1    0    0  501    0  0.00000000000E+00  0.00000000000E+00  0.15515990628E+04  0.15515990628E+04  0.00000000000E+00 0. -1.
         -2   -1    0    0    0  501 -0.00000000000E+00 -0.00000000000E+00 -0.87592661395E+03  0.87592661395E+03  0.00000000000E+00 0.  1.
         23    2    1    2    0    0  0.66530642566E+03 -0.54568435508E+03  0.81157423142E+03  0.11863535814E+04  0.91531587584E+02 0.  0.
        254    2    1    2    0    0 -0.66530642566E+03  0.54568435508E+03 -0.13590178261E+03  0.12411720954E+04  0.88410113696E+03 0.  0.
        -24    2    4    4    0    0 -0.27466834430E+03  0.10913567873E+02 -0.41632895110E+03  0.50545967992E+03  0.81227379515E+02 0.  0.
         11    1    3    3    0    0  0.51248875827E+03 -0.37344989830E+03  0.57046446215E+03  0.85295911770E+03  0.00000000000E+00 0. -1.
        -11    1    3    3    0    0  0.15281766739E+03 -0.17223445677E+03  0.24110976928E+03  0.33339446367E+03  0.00000000000E+00 0.  1.
          4    1    4    4  502    0 -0.31852978971E+03  0.31775164663E+03  0.20931426707E+03  0.49622555181E+03  0.00000000000E+00 0. -1.
          1    1    5    5  503    0 -0.27578899184E+03  0.95359080089E+01 -0.41932312034E+03  0.50197846648E+03  0.00000000000E+00 0. -1.
         -2    1    5    5    0  503  0.11206475345E+01  0.13776598639E+01  0.29941692416E+01  0.34812134442E+01  0.00000000000E+00 0.  1.
         -1    1    4    4    0  502 -0.72108291650E+02  0.21701914057E+03  0.71112901415E+02  0.23948686362E+03  0.00000000000E+00 0.  1.
<mgrwt>
<rscale>  0 0.23315977E+04</rscale>
<asrwt>0</asrwt>
<pdfrwt beam="1">  1        2 0.23870755E+00 0.23315977E+04</pdfrwt>
<pdfrwt beam="2">  1       -2 0.13475794E+00 0.23315977E+04</pdfrwt>
<totfact> 0.42553731E+00</totfact>
</mgrwt>
</event>
<event>
11    1  0.2975894E-008  0.2203614E+04  0.7818608E-02  0.8516926E-01
         -2   -1    0    0    0  501 -0.00000000000E+00  0.00000000000E+00  0.52103630728E+03  0.52103630728E+03  0.00000000000E+00 0.  1.
          2   -1    0    0  501    0  0.00000000000E+00 -0.00000000000E+00 -0.23299304351E+04  0.23299304351E+04  0.00000000000E+00 0. -1.
         23    2    1    2    0    0 -0.76846898469E+03  0.18673398233E+02 -0.14059774671E+04  0.16049726971E+04  0.90947480689E+02 0.  0.
        254    2    1    2    0    0  0.76846898469E+03 -0.18673398233E+02 -0.40291666078E+03  0.12459940453E+04  0.89401680590E+03 0.  0.
        -24    2    4    4    0    0  0.22989617712E+03  0.16630459695E+03  0.23890035719E+03  0.37960067379E+03  0.80708237862E+02 0.  0.
         11    1    3    3    0    0 -0.74563469466E+03  0.40588088898E+01 -0.13717514956E+04  0.15613102631E+04  0.00000000000E+00 0. -1.
        -11    1    3    3    0    0 -0.22834290034E+02  0.14614589343E+02 -0.34225971442E+02  0.43662434016E+02  0.00000000000E+00 0.  1.
          2    1    4    4  502    0  0.19797506378E+03 -0.53559993759E+02 -0.15096163764E+03  0.25466098023E+03  0.00000000000E+00 0. -1.
          3    1    5    5  503    0  0.27180672830E+02  0.41181929082E+02  0.12374796811E+02  0.50871169188E+02  0.00000000000E+00 0. -1.
         -4    1    5    5    0  503  0.20271550429E+03  0.12512266787E+03  0.22652556038E+03  0.32872950461E+03  0.00000000000E+00 0.  1.
         -1    1    4    4    0  502  0.34059774379E+03 -0.13141800142E+03 -0.49085538033E+03  0.61173239131E+03  0.00000000000E+00 0.  1.
<mgrwt>
<rscale>  0 0.22036137E+04</rscale>
<asrwt>0</asrwt>
<pdfrwt beam="1">  1        2 0.35845083E+00 0.22036137E+04</pdfrwt>
<pdfrwt beam="2">  1       -2 0.80159433E-01 0.22036137E+04</pdfrwt>
<totfact> 0.54813735E+00</totfact>
</mgrwt>
</event>
<event>
12    1  0.2744650E-008  0.1905586E+04  0.7818608E-02  0.8652081E-01
          2   -1    0    0  501    0  0.00000000000E+00  0.00000000000E+00  0.12814585054E+04  0.12814585054E+04  0.00000000000E+00 0. -1.
         -2   -1    0    0    0  501 -0.00000000000E+00 -0.00000000000E+00 -0.70842291803E+03  0.70842291803E+03  0.00000000000E+00 0.  1.
         23    2    1    2    0    0 -0.12696086425E+03  0.17898105697E+03 -0.51200975129E+03  0.56471540639E+03  0.92715829219E+02 0.  0.
        254    2    1    2    0    0  0.12696086425E+03 -0.17898105697E+03  0.10850453386E+04  0.14251660170E+04  0.89756420904E+03 0.  0.
        -24    2    4    4    0    0  0.31758701457E+03 -0.19807360256E+03  0.72212210889E+02  0.38952706103E+03  0.80137781468E+02 0.  0.
         24    2    4    4    0    0 -0.19062615032E+03  0.19092545597E+02  0.10128331278E+04  0.10356389560E+04  0.10007121467E+03 0.  0.
         11    1    3    3    0    0 -0.84266448293E+02  0.11215604838E+03 -0.21057960054E+03  0.25302881587E+03  0.00000000000E+00 0. -1.
        -11    1    3    3    0    0 -0.42694415953E+02  0.66825008590E+02 -0.30143015075E+03  0.31168659052E+03  0.00000000000E+00 0.  1.
          2    1    6    6  502    0  0.43687357137E+01 -0.10340228752E+02  0.15607344561E+03  0.15647660083E+03  0.00000000000E+00 0. -1.
          3    1    5    5  503    0  0.27870534714E+02 -0.10097197335E+02 -0.15153451297E+02  0.33291848634E+02  0.00000000000E+00 0. -1.
         -4    1    5    5    0  503  0.28971647985E+03 -0.18797640523E+03  0.87365662186E+02  0.35623521239E+03  0.00000000000E+00 0.  1.
         -1    1    6    6    0  502 -0.19499488603E+03  0.29432774348E+02  0.85675968215E+03  0.87916235516E+03  0.00000000000E+00 0.  1.
<mgrwt>
<rscale>  0 0.19055861E+04</rscale>
<asrwt>0</asrwt>
<pdfrwt beam="1">  1        2 0.19714746E+00 0.19055861E+04</pdfrwt>
<pdfrwt beam="2">  1       -2 0.10898814E+00 0.19055861E+04</pdfrwt>
<totfact> 0.10662927E+01</totfact>
</mgrwt>
</event>
<event>
12    1  0.2404191E-008  0.2059850E+04  0.7818608E-02  0.8579139E-01
          1   -1    0    0  501    0  0.00000000000E+00  0.00000000000E+00  0.53998478761E+03  0.53998478761E+03  0.00000000000E+00 0. -1.
         -1   -1    0    0    0  501 -0.00000000000E+00 -0.00000000000E+00 -0.19643984463E+04  0.19643984463E+04  0.00000000000E+00 0.  1.
         23    2    1    2    0    0 -0.15169409414E+02 -0.28947340281E+03  0.37607364519E+03  0.48342050029E+03  0.90769111365E+02 0.  0.
        254    2    1    2    0    0  0.15169409414E+02  0.28947340281E+03 -0.18004873039E+04  0.20209627337E+04  0.87092529951E+03 0.  0.
        -24    2    4    4    0    0 -0.18358862825E+03  0.24744958494E+03 -0.14731118050E+03  0.35273949825E+03  0.88252411973E+02 0.  0.
         24    2    4    4    0    0  0.19875803766E+03  0.42023817866E+02 -0.16531761234E+04  0.16682232354E+04  0.93309749051E+02 0.  0.
         11    1    3    3    0    0 -0.41563876700E+02 -0.24798185205E+03  0.28612261587E+03  0.38090511431E+03  0.00000000000E+00 0. -1.
        -11    1    3    3    0    0  0.26394467286E+02 -0.41491550759E+02  0.89951029314E+02  0.10251538598E+03  0.00000000000E+00 0.  1.
          2    1    6    6  502    0  0.18115878425E+03  0.47106793735E+02 -0.16157301676E+04  0.16265366671E+04  0.00000000000E+00 0. -1.
          1    1    5    5  503    0 -0.11085458166E+03  0.16445914483E+03 -0.47491071398E+02  0.20393859482E+03  0.00000000000E+00 0. -1.
         -2    1    5    5    0  503 -0.72734046589E+02  0.82990440109E+02 -0.99820109097E+02  0.14880090343E+03  0.00000000000E+00 0.  1.
         -1    1    6    6    0  502  0.17599253407E+02 -0.50829758692E+01 -0.37445955850E+02  0.41686568265E+02  0.00000000000E+00 0.  1.
<mgrwt>
<rscale>  0 0.20598498E+04</rscale>
<asrwt>0</asrwt>
<pdfrwt beam="1">  1        1 0.83074581E-01 0.20598498E+04</pdfrwt>
<pdfrwt beam="2">  1       -1 0.30221515E+00 0.20598498E+04</pdfrwt>
<totfact> 0.11745941E+00</totfact>
</mgrwt>
</event>
<event>
12    1  0.2404191E-008  0.1376714E+04  0.7818608E-02  0.8970849E-01
         -1   -1    0    0    0  501 -0.00000000000E+00  0.00000000000E+00  0.43476417329E+03  0.43476417329E+03  0.00000000000E+00 0.  1.
          1   -1    0    0  501    0  0.00000000000E+00 -0.00000000000E+00 -0.10898670197E+04  0.10898670197E+04  0.00000000000E+00 0. -1.
         23    2    1    2    0    0 -0.34528519508E+03  0.15245244077E+03 -0.25044895103E+03  0.46185431273E+03  0.90117237365E+02 0.  0.
        254    2    1    2    0    0  0.34528519508E+03 -0.15245244077E+03 -0.40465389536E+03  0.10627768802E+04  0.90735126027E+03 0.  0.
        -24    2    4    4    0    0 -0.49754167365E+02 -0.11477701732E+03  0.24944806689E+03  0.29131142544E+03  0.83598849509E+02 0.  0.
         24    2    4    4    0    0  0.39503936245E+03 -0.37675423447E+02 -0.65410196226E+03  0.77146545480E+03  0.99166705660E+02 0.  0.
         11    1    3    3    0    0 -0.30837954958E+03  0.14513791324E+03 -0.18878479515E+03  0.38961860754E+03  0.00000000000E+00 0. -1.
        -11    1    3    3    0    0 -0.36905645497E+02  0.73145275295E+01 -0.61664155889E+02  0.72235705188E+02  0.00000000000E+00 0.  1.
          2    1    6    6  502    0  0.33506544424E+03 -0.20102295108E+02 -0.60541748013E+03  0.69224510070E+03  0.00000000000E+00 0. -1.
          3    1    5    5  503    0 -0.38507891491E+02 -0.12436770469E+03  0.24191140783E+03  0.27472042683E+03  0.00000000000E+00 0. -1.
         -4    1    5    5    0  503 -0.11246275874E+02  0.95906873661E+01  0.75366590629E+01  0.16590998614E+02  0.00000000000E+00 0.  1.
         -1    1    6    6    0  502  0.59973918204E+02 -0.17573128339E+02 -0.48684482126E+02  0.79220354103E+02  0.00000000000E+00 0.  1.
<mgrwt>
<rscale>  0 0.13767137E+04</rscale>
<asrwt>0</asrwt>
<pdfrwt beam="1">  1        1 0.16767185E+00 0.13767137E+04</pdfrwt>
<pdfrwt beam="2">  1       -1 0.66886796E-01 0.13767137E+04</pdfrwt>
<totfact> 0.28546129E+01</totfact>
</mgrwt>
</event>
<event>
12    1  0.3343217E-008  0.1909728E+04  0.7818608E-02  0.8650029E-01
          2   -1    0    0  501    0  0.00000000000E+00  0.00000000000E+00  0.26041652563E+04  0.26041652563E+04  0.00000000000E+00 0. -1.
         -2   -1    0    0    0  501 -0.00000000000E+00 -0.00000000000E+00 -0.35011800769E+03  0.35011800769E+03  0.00000000000E+00 0.  1.
         23    2    1    2    0    0 -0.24007233911E+03  0.68345779594E+03  0.73938473835E+03  0.10389300325E+04  0.89087228358E+02 0.  0.
        254    2    1    2    0    0  0.24007233911E+03 -0.68345779594E+03  0.15146625103E+04  0.19153532315E+04  0.92175169902E+03 0.  0.
        -24    2    4    4    0    0 -0.21160235501E+03 -0.66826113713E+03  0.82673497454E+03  0.10870132701E+04  0.82210870518E+02 0.  0.
         24    2    4    4    0    0  0.45167469411E+03 -0.15196658810E+02  0.68792753571E+03  0.82833996139E+03  0.93068950294E+02 0.  0.
         11    1    3    3    0    0 -0.21395214662E+03  0.66215501486E+03  0.69885847238E+03  0.98621901683E+03  0.00000000000E+00 0. -1.
        -11    1    3    3    0    0 -0.26120192492E+02  0.21302781083E+02  0.40526265973E+02  0.52711015656E+02  0.00000000000E+00 0.  1.
          2    1    6    6  502    0  0.74569591673E+02  0.25359839046E+02  0.15949576877E+03  0.17788379829E+03  0.00000000000E+00 0. -1.
          3    1    5    5  503    0 -0.38367646589E+02 -0.18879495663E+03  0.18150970357E+03  0.26469111138E+03  0.00000000000E+00 0. -1.
         -4    1    5    5    0  503 -0.17323470842E+03 -0.47946618050E+03  0.64522527098E+03  0.82232215874E+03  0.00000000000E+00 0.  1.
         -1    1    6    6    0  502  0.37710510244E+03 -0.40556497856E+02  0.52843176694E+03  0.65045616310E+03  0.00000000000E+00 0.  1.
<mgrwt>
<rscale>  0 0.19097279E+04</rscale>
<asrwt>0</asrwt>
<pdfrwt beam="1">  1        2 0.40064080E+00 0.19097279E+04</pdfrwt>
<pdfrwt beam="2">  1       -2 0.53864310E-01 0.19097279E+04</pdfrwt>
<totfact> 0.92050283E+00</totfact>
</mgrwt>
</event>
<event>
12    1  0.2404191E-008  0.2177218E+04  0.7818608E-02  0.8527971E-01
         -2   -1    0    0    0  501 -0.00000000000E+00  0.00000000000E+00  0.22057092354E+04  0.22057092354E+04  0.00000000000E+00 0.  1.
          2   -1    0    0  501    0  0.00000000000E+00 -0.00000000000E+00 -0.53727349767E+03  0.53727349767E+03  0.00000000000E+00 0. -1.
         23    2    1    2    0    0 -0.67766897322E+03  0.44596516129E+03  0.11406834939E+04  0.14026425713E+04  0.90150912802E+02 0.  0.
        254    2    1    2    0    0  0.67766897322E+03 -0.44596516129E+03  0.52775224382E+03  0.13403401618E+04  0.92729130059E+03 0.  0.
        -24    2    4    4    0    0  0.83361747602E+03 -0.32996916396E+03  0.63368529409E+03  0.11006939510E+04  0.78564473111E+02 0.  0.
         24    2    4    4    0    0 -0.15594850280E+03 -0.11599599733E+03 -0.10593305027E+03  0.23964621077E+03  0.91834025680E+02 0.  0.
         13    1    3    3    0    0 -0.39848112516E+03  0.23435215986E+03  0.58277086349E+03  0.74386156056E+03  0.00000000000E+00 0.  1.
        -13    1    3    3    0    0 -0.27918784805E+03  0.21161300144E+03  0.55791263045E+03  0.65878101072E+03  0.00000000000E+00 0. -1.
          2    1    6    6  502    0 -0.16296965818E+03 -0.12061383236E+03 -0.10960211717E+03  0.23047652838E+03  0.00000000000E+00 0. -1.
          1    1    5    5  503    0  0.32939260354E+03 -0.10565664436E+03  0.20714829848E+03  0.40320370947E+03  0.00000000000E+00 0. -1.
         -2    1    5    5    0  503  0.50422487248E+03 -0.22431251960E+03  0.42653699560E+03  0.69749024157E+03  0.00000000000E+00 0.  1.
         -1    1    6    6    0  502  0.70211553783E+01  0.46178350304E+01  0.36690669015E+01  0.91696823904E+01  0.00000000000E+00 0.  1.
<mgrwt>
<rscale>  0 0.21772176E+04</rscale>
<asrwt>0</asrwt>
<pdfrwt beam="1">  1        2 0.82657463E-01 0.21772176E+04</pdfrwt>
<pdfrwt beam="2">  1       -2 0.33933988E+00 0.21772176E+04</pdfrwt>
<totfact> 0.94214802E-01</totfact>
</mgrwt>
</event>
<event>
11    1  0.2404191E-008  0.1637340E+04  0.7818608E-02  0.8797931E-01
          2   -1    0    0  501    0  0.00000000000E+00  0.00000000000E+00  0.42952583601E+03  0.42952583601E+03  0.00000000000E+00 0. -1.
         -2   -1    0    0    0  501 -0.00000000000E+00 -0.00000000000E+00 -0.15603733683E+04  0.15603733683E+04  0.00000000000E+00 0.  1.
         23    2    1    2    0    0 -0.43841428923E+03 -0.11854506775E+03 -0.27652864905E+02  0.46525084313E+03  0.97126947934E+02 0.  0.
        254    2    1    2    0    0  0.43841428923E+03  0.11854506775E+03 -0.11031946674E+04  0.15246483612E+04  0.94934405196E+03 0.  0.
        -24    2    4    4    0    0  0.16648587028E+03 -0.40844105445E+03 -0.44784979493E+03  0.63362927200E+03  0.79843444010E+02 0.  0.
         13    1    3    3    0    0 -0.38687920170E+03 -0.11973237295E+03  0.35409387592E+01  0.40499863714E+03  0.00000000000E+00 0. -1.
        -13    1    3    3    0    0 -0.51535087527E+02  0.11873051987E+01 -0.31193803664E+02  0.60252205994E+02  0.00000000000E+00 0.  1.
          2    1    4    4  502    0  0.11807550128E+02  0.11659643643E+03 -0.14362347640E+03  0.18536949642E+03  0.00000000000E+00 0. -1.
          3    1    5    5  503    0  0.13841299899E+03 -0.23659778889E+03 -0.27236929070E+03  0.38642166413E+03  0.00000000000E+00 0. -1.
         -4    1    5    5    0  503  0.28072871295E+02 -0.17184326556E+03 -0.17548050423E+03  0.24720760787E+03  0.00000000000E+00 0.  1.
         -1    1    4    4    0  502  0.26012086881E+03  0.41038968577E+03 -0.51172139605E+03  0.70564959275E+03  0.00000000000E+00 0.  1.
<mgrwt>
<rscale>  0 0.16373401E+04</rscale>
<asrwt>0</asrwt>
<pdfrwt beam="1">  1        2 0.66080899E-01 0.16373401E+04</pdfrwt>
<pdfrwt beam="2">  1       -2 0.24005744E+00 0.16373401E+04</pdfrwt>
<totfact> 0.51901538E+00</totfact>
</mgrwt>
</event>
<event>
11    1  0.2404191E-008  0.1263539E+04  0.7818608E-02  0.9058990E-01
         -1   -1    0    0    0  501 -0.00000000000E+00  0.00000000000E+00  0.42252947603E+03  0.42252947603E+03  0.00000000000E+00 0.  1.
          1   -1    0    0  501    0  0.00000000000E+00 -0.00000000000E+00 -0.94462655359E+03  0.94462655359E+03  0.00000000000E+00 0. -1.
         23    2    1    2    0    0 -0.35436164371E+03  0.91534995317E+02  0.13880519499E+02  0.37825095121E+03  0.94500176567E+02 0.  0.
        254    2    1    2    0    0  0.35436164371E+03 -0.91534995317E+02 -0.53597759706E+03  0.98890507841E+03  0.74613031011E+03 0.  0.
        -24    2    4    4    0    0 -0.21805004906E+03  0.19521052663E+02 -0.19523745374E+03  0.30406754504E+03  0.80078169420E+02 0.  0.
         11    1    3    3    0    0 -0.30221701561E+03  0.78837741038E+02 -0.22930682280E+02  0.31317140695E+03  0.00000000000E+00 0. -1.
        -11    1    3    3    0    0 -0.52144628095E+02  0.12697254279E+02  0.36811201780E+02  0.65079544266E+02  0.00000000000E+00 0.  1.
          4    1    4    4  502    0  0.42147693718E+03 -0.29629570488E+02 -0.24584522572E+03  0.48883595922E+03  0.00000000000E+00 0. -1.
          1    1    5    5  503    0 -0.20742519744E+03  0.46759961517E+01 -0.19650988120E+03  0.28576775690E+03  0.00000000000E+00 0. -1.
         -2    1    5    5    0  503 -0.10624851613E+02  0.14845056511E+02  0.12724274592E+01  0.18299788148E+02  0.00000000000E+00 0.  1.
         -3    1    4    4    0  502  0.15093475559E+03 -0.81426477492E+02 -0.94894917601E+02  0.19600157415E+03  0.00000000000E+00 0.  1.
<mgrwt>
<rscale>  0 0.12635388E+04</rscale>
<asrwt>0</asrwt>
<pdfrwt beam="1">  1        1 0.14532716E+00 0.12635388E+04</pdfrwt>
<pdfrwt beam="2">  1       -1 0.65004535E-01 0.12635388E+04</pdfrwt>
<totfact> 0.39574927E+01</totfact>
</mgrwt>
</event>
<event>
12    1  0.2404191E-008  0.1724944E+04  0.7818608E-02  0.8747265E-01
         -2   -1    0    0    0  501 -0.00000000000E+00  0.00000000000E+00  0.15974586049E+04  0.15974586049E+04  0.00000000000E+00 0.  1.
          2   -1    0    0  501    0  0.00000000000E+00 -0.00000000000E+00 -0.46565064243E+03  0.46565064243E+03  0.00000000000E+00 0. -1.
         23    2    1    2    0    0 -0.72111693925E+01 -0.80190795630E+01  0.11669470115E+04  0.11705003076E+04  0.90494949591E+02 0.  0.
        254    2    1    2    0    0  0.72111693925E+01  0.80190795630E+01 -0.35139049049E+02  0.89260893968E+03  0.89185181495E+03 0.  0.
        -24    2    4    4    0    0  0.84137855405E+02  0.36780004211E+03 -0.24633809835E+03  0.45764201602E+03  0.79985663989E+02 0.  0.
         24    2    4    4    0    0 -0.76926686013E+02 -0.35978096255E+03  0.21119904930E+03  0.43496692365E+03  0.96078770888E+02 0.  0.
         13    1    3    3    0    0  0.16835326155E+02 -0.29690929965E+02  0.19160947980E+03  0.19462572358E+03  0.00000000000E+00 0. -1.
        -13    1    3    3    0    0 -0.24046495548E+02  0.21671850402E+02  0.97533753168E+03  0.97587458403E+03  0.00000000000E+00 0.  1.
          2    1    6    6  502    0 -0.10713739471E+02 -0.15065157142E+02 -0.90394843987E+01  0.20578033224E+02  0.00000000000E+00 0. -1.
          3    1    5    5  503    0 -0.11464184570E+02  0.42663988152E+02 -0.12548097311E+02  0.45924918715E+02  0.00000000000E+00 0. -1.
         -4    1    5    5    0  503  0.95602039975E+02  0.32513605396E+03 -0.23379000104E+03  0.41171709731E+03  0.00000000000E+00 0.  1.
         -1    1    6    6    0  502 -0.66212946542E+02 -0.34471580540E+03  0.22023853370E+03  0.41438889043E+03  0.00000000000E+00 0.  1.
<mgrwt>
<rscale>  0 0.17249436E+04</rscale>
<asrwt>0</asrwt>
<pdfrwt beam="1">  1        2 0.71638561E-01 0.17249436E+04</pdfrwt>
<pdfrwt beam="2">  1       -2 0.24576286E+00 0.17249436E+04</pdfrwt>
<totfact> 0.43334372E+00</totfact>
</mgrwt>
</event>
<event>
12    1  0.2404191E-008  0.1436588E+04  0.7818608E-02  0.8927752E-01
          2   -1    0    0  501    0  0.00000000000E+00  0.00000000000E+00  0.32647450956E+04  0.32647450956E+04  0.00000000000E+00 0. -1.
         -2   -1    0    0    0  501 -0.00000000000E+00 -0.00000000000E+00 -0.15803566856E+03  0.15803566856E+03  0.00000000000E+00 0.  1.
         23    2    1    2    0    0  0.10831403080E+03  0.38047813821E+03  0.11159611406E+04  0.11874899114E+04  0.90925679936E+02 0.  0.
        254    2    1    2    0    0 -0.10831403080E+03 -0.38047813821E+03  0.19907482864E+04  0.22352908528E+04  0.93645657339E+03 0.  0.
        -24    2    4    4    0    0 -0.32129163883E+03 -0.59630988672E+03  0.11537969237E+04  0.13403279132E+04  0.80111021386E+02 0.  0.
         24    2    4    4    0    0  0.21297760804E+03  0.21583174851E+03  0.83695136271E+03  0.89496293954E+03  0.92348656779E+02 0.  0.
         13    1    3    3    0    0 -0.88536565430E+01  0.54771051328E+01  0.58175145692E+02  0.59099352713E+02  0.00000000000E+00 0. -1.
        -13    1    3    3    0    0  0.11716768734E+03  0.37500103307E+03  0.10577859949E+04  0.11283905587E+04  0.00000000000E+00 0.  1.
          4    1    6    6  502    0  0.13993787259E+03  0.19282943224E+03  0.58584131850E+03  0.63243643837E+03  0.00000000000E+00 0. -1.
          3    1    5    5  503    0 -0.26536335450E+03 -0.42201187387E+03  0.86666284760E+03  0.99980809309E+03  0.00000000000E+00 0. -1.
         -4    1    5    5    0  503 -0.55928284331E+02 -0.17429801285E+03  0.28713407608E+03  0.34051982016E+03  0.00000000000E+00 0.  1.
         -3    1    6    6    0  502  0.73039735449E+02  0.23002316271E+02  0.25111004421E+03  0.26252650116E+03  0.00000000000E+00 0.  1.
<mgrwt>
<rscale>  0 0.14365879E+04</rscale>
<asrwt>0</asrwt>
<pdfrwt beam="1">  1        2 0.50226842E+00 0.14365879E+04</pdfrwt>
<pdfrwt beam="2">  1       -2 0.24313182E-01 0.14365879E+04</pdfrwt>
<totfact> 0.17430397E+01</totfact>
</mgrwt>
</event>
<event>
12    1  0.2404191E-008  0.1694832E+04  0.7818608E-02  0.8764318E-01
         -1   -1    0    0    0  501 -0.00000000000E+00  0.00000000000E+00  0.12037880865E+04  0.12037880865E+04  0.00000000000E+00 0.  1.
          1   -1    0    0  501    0  0.00000000000E+00 -0.00000000000E+00 -0.59654477999E+03  0.59654477999E+03  0.00000000000E+00 0. -1.
         23    2    1    2    0    0 -0.76137660156E+01  0.40498558451E+03 -0.25812372925E+03  0.48892297310E+03  0.91359295800E+02 0.  0.
        254    2    1    2    0    0  0.76137660156E+01 -0.40498558451E+03  0.86536703572E+03  0.13114098934E+04  0.89825637141E+03 0.  0.
        -24    2    4    4    0    0 -0.23918988540E+03 -0.60121258585E+03  0.52620048149E+03  0.83777833653E+03  0.79480939737E+02 0.  0.
         24    2    4    4    0    0  0.24680365142E+03  0.19622700134E+03  0.33916655422E+03  0.47363155682E+03  0.99377168916E+02 0.  0.
         13    1    3    3    0    0  0.13302052633E+02  0.29701421748E+02  0.71748618635E+00  0.32552017518E+02  0.00000000000E+00 0.  1.
        -13    1    3    3    0    0 -0.20915818648E+02  0.37528416276E+03 -0.25884121544E+03  0.45637095558E+03  0.00000000000E+00 0. -1.
          4    1    6    6  502    0  0.98940168953E+02  0.66862802207E+02  0.19976037316E+03  0.23273160086E+03  0.00000000000E+00 0. -1.
          3    1    5    5  503    0 -0.25729916029E+01  0.22119316208E+01  0.97644042162E+00  0.35307737368E+01  0.00000000000E+00 0. -1.
         -4    1    5    5    0  503 -0.23661689380E+03 -0.60342451747E+03  0.52522404107E+03  0.83424756280E+03  0.00000000000E+00 0.  1.
         -3    1    6    6    0  502  0.14786348247E+03  0.12936419913E+03  0.13940618106E+03  0.24089995596E+03  0.00000000000E+00 0.  1.
<mgrwt>
<rscale>  0 0.16948316E+04</rscale>
<asrwt>0</asrwt>
<pdfrwt beam="1">  1        1 0.91776120E-01 0.16948316E+04</pdfrwt>
<pdfrwt beam="2">  1       -1 0.18519817E+00 0.16948316E+04</pdfrwt>
<totfact> 0.62806551E+00</totfact>
</mgrwt>
</event>
<event>
12    1  0.2404191E-008  0.1515347E+04  0.7818608E-02  0.8874311E-01
         -2   -1    0    0    0  501 -0.00000000000E+00  0.00000000000E+00  0.13224432110E+04  0.13224432110E+04  0.00000000000E+00 0.  1.
          2   -1    0    0  501    0  0.00000000000E+00 -0.00000000000E+00 -0.43409715965E+03  0.43409715965E+03  0.00000000000E+00 0. -1.
         23    2    1    2    0    0  0.45686977880E+03 -0.28368049775E+02  0.92670257909E+02  0.47575177613E+03  0.90648964491E+02 0.  0.
        254    2    1    2    0    0 -0.45686977880E+03  0.28368049775E+02  0.79567579341E+03  0.12807885945E+04  0.89318795028E+03 0.  0.
        -24    2    4    4    0    0  0.25643266713E+03  0.22019340065E+02  0.12517304477E+03  0.29763085561E+03  0.81690090984E+02 0.  0.
         24    2    4    4    0    0 -0.71330244593E+03  0.63487097092E+01  0.67050274863E+03  0.98315773887E+03  0.90468326454E+02 0.  0.
         13    1    3    3    0    0  0.15704058676E+03  0.23977335719E+02  0.59283934393E+02  0.16956191611E+03  0.00000000000E+00 0. -1.
        -13    1    3    3    0    0  0.29982919204E+03 -0.52345385494E+02  0.33386323516E+02  0.30618986002E+03  0.00000000000E+00 0.  1.
          2    1    6    6  502    0 -0.17451436422E+03  0.12182662088E+01  0.22007250475E+03  0.28087124246E+03  0.00000000000E+00 0. -1.
          1    1    5    5  503    0  0.60813591859E+01 -0.15580116861E+02  0.54575945741E+01  0.17592848248E+02  0.00000000000E+00 0. -1.
         -2    1    5    5    0  503  0.25035130795E+03  0.37599456927E+02  0.11971545020E+03  0.28003800736E+03  0.00000000000E+00 0.  1.
         -1    1    6    6    0  502 -0.53878808170E+03  0.51304435003E+01  0.45043024389E+03  0.70228649641E+03  0.00000000000E+00 0.  1.
<mgrwt>
<rscale>  0 0.15153466E+04</rscale>
<asrwt>0</asrwt>
<pdfrwt beam="1">  1        2 0.66784179E-01 0.15153466E+04</pdfrwt>
<pdfrwt beam="2">  1       -2 0.20345280E+00 0.15153466E+04</pdfrwt>
<totfact> 0.88214090E+00</totfact>
</mgrwt>
</event>
<event>
11    1  0.2404191E-008  0.1773582E+04  0.7818608E-02  0.8720476E-01
         -1   -1    0    0    0  501 -0.00000000000E+00  0.00000000000E+00  0.52437918122E+03  0.52437918122E+03  0.00000000000E+00 0.  1.
          1   -1    0    0  501    0  0.00000000000E+00 -0.00000000000E+00 -0.14996742774E+04  0.14996742774E+04  0.00000000000E+00 0. -1.
         23    2    1    2    0    0 -0.51098667238E+03 -0.18044918840E+03  0.54608215546E+02  0.55339147646E+03  0.97932528188E+02 0.  0.
        254    2    1    2    0    0  0.51098667238E+03  0.18044918840E+03 -0.10299033118E+04  0.14706619822E+04  0.89915323797E+03 0.  0.
        -24    2    4    4    0    0 -0.16612882166E+03 -0.55272965255E+02  0.17000188827E+01  0.19386439799E+03  0.83226370028E+02 0.  0.
         13    1    3    3    0    0 -0.43016150202E+03 -0.12075092323E+03  0.20426632081E+02  0.44725490560E+03  0.00000000000E+00 0.  1.
        -13    1    3    3    0    0 -0.80825170355E+02 -0.59698265170E+02  0.34181583465E+02  0.10613657087E+03  0.00000000000E+00 0. -1.
          4    1    4    4  502    0  0.47634431568E+03  0.52461050745E+02 -0.62202591731E+03  0.78522118586E+03  0.00000000000E+00 0. -1.
          1    1    5    5  503    0 -0.69343389074E+02 -0.63165729074E+02  0.17680208473E+02  0.95451583064E+02  0.00000000000E+00 0. -1.
         -2    1    5    5    0  503 -0.96785432585E+02  0.78927638190E+01 -0.15980189590E+02  0.98412814921E+02  0.00000000000E+00 0.  1.
         -3    1    4    4    0  502  0.20077117836E+03  0.18326110291E+03 -0.40957741334E+03  0.49157639835E+03  0.00000000000E+00 0.  1.
<mgrwt>
<rscale>  0 0.17735817E+04</rscale>
<asrwt>0</asrwt>
<pdfrwt beam="1">  1        1 0.23071911E+00 0.17735817E+04</pdfrwt>
<pdfrwt beam="2">  1       -1 0.80673722E-01 0.17735817E+04</pdfrwt>
<totfact> 0.94837654E+00</totfact>
</mgrwt>
</event>
<event>
11    1  0.2404191E-008  0.1689531E+04  0.7818608E-02  0.8767358E-01
         -2   -1    0    0    0  501 -0.00000000000E+00  0.00000000000E+00  0.15458343331E+04  0.15458343331E+04  0.00000000000E+00 0. -1.
          2   -1    0    0  501    0  0.00000000000E+00 -0.00000000000E+00 -0.46164632633E+03  0.46164632633E+03  0.00000000000E+00 0.  1.
         23    2    1    2    0    0 -0.41741764503E+03 -0.42696528282E+03  0.42081296364E+03  0.73617511752E+03  0.91287513732E+02 0.  0.
        254    2    1    2    0    0  0.41741764503E+03  0.42696528282E+03  0.66337504316E+03  0.12713055419E+04  0.90532562648E+03 0.  0.
        -24    2    4    4    0    0 -0.26198888119E+03 -0.10202064343E+02  0.19461318078E+03  0.33642678562E+03  0.81033548397E+02 0.  0.
         13    1    3    3    0    0 -0.12678484371E+03 -0.99659841532E+02  0.15720029846E+03  0.22520749198E+03  0.00000000000E+00 0.  1.
        -13    1    3    3    0    0 -0.29063280132E+03 -0.32730544129E+03  0.26361266519E+03  0.51096762554E+03  0.00000000000E+00 0. -1.
          4    1    4    4  502    0  0.63615094542E+03  0.41924509102E+03  0.43710116901E+03  0.87835750332E+03  0.00000000000E+00 0. -1.
          3    1    5    5  503    0 -0.26201819522E+03 -0.16538074503E+02  0.17425671121E+03  0.31510703568E+03  0.00000000000E+00 0. -1.
         -4    1    5    5    0  503  0.29314031951E-01  0.63360101596E+01  0.20356469569E+02  0.21319749937E+02  0.00000000000E+00 0.  1.
         -1    1    4    4    0  502  0.43255580797E+02  0.17922256147E+02  0.31660693372E+02  0.56521252997E+02  0.00000000000E+00 0.  1.
<mgrwt>
<rscale>  0 0.16895310E+04</rscale>
<asrwt>0</asrwt>
<pdfrwt beam="1">  1        2 0.71022512E-01 0.16895310E+04</pdfrwt>
<pdfrwt beam="2">  1       -2 0.23782067E+00 0.16895310E+04</pdfrwt>
<totfact> 0.49136037E+00</totfact>
</mgrwt>
</event>
<event>
12    1  0.2404191E-008  0.1865639E+04  0.7818608E-02  0.8672152E-01
          2   -1    0    0  501    0  0.00000000000E+00  0.00000000000E+00  0.20421324579E+04  0.20421324579E+04  0.00000000000E+00 0. -1.
         -2   -1    0    0    0  501 -0.00000000000E+00 -0.00000000000E+00 -0.42609987388E+03  0.42609987388E+03  0.00000000000E+00 0.  1.
         23    2    1    2    0    0 -0.57146327744E+03  0.16131038209E+03  0.99100735125E+03  0.11596107744E+04  0.10005129160E+03 0.  0.
        254    2    1    2    0    0  0.57146327744E+03 -0.16131038209E+03  0.62502523275E+03  0.13086215574E+04  0.98450115393E+03 0.  0.
        -24    2    4    4    0    0 -0.47020290573E+00 -0.22150416283E+03  0.68281089835E+03  0.72268816257E+03  0.83565197113E+02 0.  0.
         24    2    4    4    0    0  0.57193348035E+03  0.60193780740E+02 -0.57785665607E+02  0.58593339483E+03  0.96164249303E+02 0.  0.
         11    1    3    3    0    0 -0.40803162044E+03  0.79716314004E+02  0.62652641053E+03  0.75191744034E+03  0.00000000000E+00 0. -1.
        -11    1    3    3    0    0 -0.16343165700E+03  0.81594068088E+02  0.36448094072E+03  0.40769333403E+03  0.00000000000E+00 0.  1.
          2    1    6    6  502    0  0.52906739857E+03  0.33289214791E+02 -0.37596305450E+02  0.53144516767E+03  0.00000000000E+00 0. -1.
          3    1    5    5  503    0 -0.31559465650E+02 -0.18872501101E+03  0.56425566370E+03  0.59581673665E+03  0.00000000000E+00 0. -1.
         -4    1    5    5    0  503  0.31089262744E+02 -0.32779151824E+02  0.11855523465E+03  0.12687142592E+03  0.00000000000E+00 0.  1.
         -1    1    6    6    0  502  0.42866081775E+02  0.26904565949E+02 -0.20189360157E+02  0.54488227161E+02  0.00000000000E+00 0.  1.
<mgrwt>
<rscale>  0 0.18656392E+04</rscale>
<asrwt>0</asrwt>
<pdfrwt beam="1">  1        2 0.31417422E+00 0.18656392E+04</pdfrwt>
<pdfrwt beam="2">  1       -2 0.65553828E-01 0.18656392E+04</pdfrwt>
<totfact> 0.12742373E+01</totfact>
</mgrwt>
</event>
<event>
12    1  0.2404191E-008  0.3333028E+04  0.7818608E-02  0.8154542E-01
         -1   -1    0    0    0  501 -0.00000000000E+00  0.00000000000E+00  0.19631611001E+04  0.19631611001E+04  0.00000000000E+00 0. -1.
          1   -1    0    0  501    0  0.00000000000E+00 -0.00000000000E+00 -0.14146919067E+04  0.14146919067E+04  0.00000000000E+00 0.  1.
         23    2    1    2    0    0  0.26613342073E+03  0.11885095128E+04 -0.70419920065E+03  0.14097490678E+04  0.90078078495E+02 0.  0.
        254    2    1    2    0    0 -0.26613342073E+03 -0.11885095128E+04  0.12526683941E+04  0.19681039390E+04  0.90602050163E+03 0.  0.
        -24    2    4    4    0    0 -0.36407427394E+02 -0.86066821723E+03  0.12980149740E+04  0.15599527232E+04  0.80835294693E+02 0.  0.
         24    2    4    4    0    0 -0.22972599334E+03 -0.32784129558E+03 -0.45346579917E+02  0.40815121580E+03  0.65399965926E+02 0.  0.
         13    1    3    3    0    0  0.26668779797E+03  0.11746786121E+04 -0.68388795826E+03  0.13851696513E+04  0.00000000000E+00 0.  1.
        -13    1    3    3    0    0 -0.55437723898E+00  0.13830900684E+02 -0.20311242388E+02  0.24579416495E+02  0.00000000000E+00 0. -1.
          2    1    6    6  502    0 -0.10968264010E+03 -0.10241650798E+03 -0.11178583316E+02  0.15048050828E+03  0.00000000000E+00 0. -1.
          3    1    5    5  503    0 -0.42079190793E+02 -0.80670369884E+03  0.12449060962E+04  0.14840258436E+04  0.00000000000E+00 0. -1.
         -4    1    5    5    0  503  0.56717633992E+01 -0.53964518385E+02  0.53108877822E+02  0.75926879615E+02  0.00000000000E+00 0.  1.
         -1    1    6    6    0  502 -0.12004335323E+03 -0.22542478761E+03 -0.34167996601E+02  0.25767070752E+03  0.00000000000E+00 0.  1.
<mgrwt>
<rscale>  0 0.33330275E+04</rscale>
<asrwt>0</asrwt>
<pdfrwt beam="1">  1        1 0.21764491E+00 0.33330275E+04</pdfrwt>
<pdfrwt beam="2">  1       -1 0.30202478E+00 0.33330275E+04</pdfrwt>
<totfact> 0.19884876E-01</totfact>
</mgrwt>
</event>
<event>
11    1  0.2404191E-008  0.1578960E+04  0.7818608E-02  0.8833579E-01
         -1   -1    0    0    0  501 -0.00000000000E+00  0.00000000000E+00  0.29379956300E+03  0.29379956300E+03  0.00000000000E+00 0. -1.
          1   -1    0    0  501    0  0.00000000000E+00 -0.00000000000E+00 -0.21214412982E+04  0.21214412982E+04  0.00000000000E+00 0.  1.
         23    2    1    2    0    0 -0.16557435328E+02 -0.47757642640E+03 -0.36573019470E+03  0.60856815345E+03  0.90792237336E+02 0.  0.
        254    2    1    2    0    0  0.16557435328E+02  0.47757642640E+03 -0.14619115405E+04  0.18066727078E+04  0.94790692000E+03 0.  0.
        -24    2    4    4    0    0  0.41605630859E+03  0.26475341999E+03 -0.11192108362E+04  0.12255781212E+04  0.78813768117E+02 0.  0.
         13    1    3    3    0    0 -0.13611526484E+02 -0.10672682918E+03 -0.13160614027E+03  0.16998842865E+03  0.00000000000E+00 0.  1.
        -13    1    3    3    0    0 -0.29459088436E+01 -0.37084959723E+03 -0.23412405443E+03  0.43857972480E+03  0.00000000000E+00 0. -1.
          4    1    4    4  502    0 -0.97764973180E+02  0.97137634667E+02 -0.54852294964E+02  0.14833234412E+03  0.00000000000E+00 0. -1.
          3    1    5    5  503    0  0.56984515533E+00 -0.25815731504E+01 -0.23277935779E+02  0.23427580702E+02  0.00000000000E+00 0. -1.
         -4    1    5    5    0  503  0.41548646343E+03  0.26733499314E+03 -0.10959329004E+04  0.12021505405E+04  0.00000000000E+00 0.  1.
         -3    1    4    4    0  502 -0.30173390008E+03  0.11568537174E+03 -0.28784840934E+03  0.43276224240E+03  0.00000000000E+00 0.  1.
<mgrwt>
<rscale>  0 0.15789598E+04</rscale>
<asrwt>0</asrwt>
<pdfrwt beam="1">  1        1 0.32637558E+00 0.15789598E+04</pdfrwt>
<pdfrwt beam="2">  1       -1 0.45199934E-01 0.15789598E+04</pdfrwt>
<totfact> 0.11513097E+01</totfact>
</mgrwt>
</event>
<event>
12    1  0.2404191E-008  0.2194565E+04  0.7818608E-02  0.8520694E-01
         -1   -1    0    0    0  501 -0.00000000000E+00  0.00000000000E+00  0.47875180707E+03  0.47875180707E+03  0.00000000000E+00 0.  1.
          1   -1    0    0  501    0  0.00000000000E+00 -0.00000000000E+00 -0.25149337368E+04  0.25149337368E+04  0.00000000000E+00 0. -1.
         23    2    1    2    0    0 -0.31280736262E+03  0.28075681105E+03 -0.19493594151E+04  0.19962565202E+04  0.91461096268E+02 0.  0.
        254    2    1    2    0    0  0.31280736262E+03 -0.28075681105E+03 -0.86822514561E+02  0.99742902361E+03  0.90036307957E+03 0.  0.
        -24    2    4    4    0    0 -0.29062378887E+03  0.38006062544E+02 -0.32188718759E+02  0.30573432886E+03  0.80812862704E+02 0.  0.
         24    2    4    4    0    0  0.60343115149E+03 -0.31876287360E+03 -0.54633795802E+02  0.69169469476E+03  0.98578775305E+02 0.  0.
         11    1    3    3    0    0 -0.84745460358E+02  0.11448899324E+03 -0.51172851782E+03  0.53118320622E+03  0.00000000000E+00 0.  1.
        -11    1    3    3    0    0 -0.22806190226E+03  0.16626781782E+03 -0.14376308973E+04  0.14650733140E+04  0.00000000000E+00 0. -1.
          2    1    6    6  502    0  0.27013025010E+02 -0.68008754056E+01 -0.21938203649E+02  0.35457583192E+02  0.00000000000E+00 0. -1.
          3    1    5    5  503    0 -0.67686359559E+02  0.31664795411E+02  0.18578461272E+02  0.77001699735E+02  0.00000000000E+00 0. -1.
         -4    1    5    5    0  503 -0.22293742931E+03  0.63412671330E+01 -0.50767180030E+02  0.22873262912E+03  0.00000000000E+00 0.  1.
         -1    1    6    6    0  502  0.57641812648E+03 -0.31196199819E+03 -0.32695592153E+02  0.65623711157E+03  0.00000000000E+00 0.  1.
<mgrwt>
<rscale>  0 0.21945652E+04</rscale>
<asrwt>0</asrwt>
<pdfrwt beam="1">  1        1 0.38691288E+00 0.21945652E+04</pdfrwt>
<pdfrwt beam="2">  1       -1 0.73654125E-01 0.21945652E+04</pdfrwt>
<totfact> 0.22405495E+00</totfact>
</mgrwt>
</event>
<event>
12    1  0.2404191E-008  0.2343953E+04  0.7818608E-02  0.8460790E-01
          2   -1    0    0  501    0  0.00000000000E+00  0.00000000000E+00  0.18348494904E+04  0.18348494904E+04  0.00000000000E+00 0.  1.
         -2   -1    0    0    0  501 -0.00000000000E+00 -0.00000000000E+00 -0.74857829277E+03  0.74857829277E+03  0.00000000000E+00 0. -1.
         23    2    1    2    0    0  0.41392042985E+03 -0.58236613331E+03 -0.23725652268E+03  0.75832300369E+03  0.91009257216E+02 0.  0.
        254    2    1    2    0    0 -0.41392042985E+03  0.58236613331E+03  0.13235277203E+04  0.18251047795E+04  0.10338285130E+04 0.  0.
        -24    2    4    4    0    0 -0.66632656875E+03  0.86398679951E+02  0.84951623113E+03  0.10860885792E+04  0.80341438724E+02 0.  0.
         24    2    4    4    0    0  0.25240613890E+03  0.49596745336E+03  0.47401148922E+03  0.73901620033E+03  0.10846879134E+03 0.  0.
         11    1    3    3    0    0  0.22210855564E+03 -0.23545096418E+03 -0.98705092540E+02  0.33839630955E+03  0.00000000000E+00 0.  1.
        -11    1    3    3    0    0  0.19181187421E+03 -0.34691516913E+03 -0.13855143014E+03  0.41992669415E+03  0.00000000000E+00 0. -1.
          2    1    6    6  502    0  0.39163559387E+02  0.16808908488E+03  0.18268691939E+03  0.25132098073E+03  0.00000000000E+00 0. -1.
          3    1    5    5  503    0 -0.25765203583E+03  0.72425349756E+02  0.32530596684E+03  0.42125286339E+03  0.00000000000E+00 0. -1.
         -4    1    5    5    0  503 -0.40867453292E+03  0.13973330194E+02  0.52421026429E+03  0.66483571580E+03  0.00000000000E+00 0.  1.
         -1    1    6    6    0  502  0.21324257951E+03  0.32787836848E+03  0.29132456983E+03  0.48769521959E+03  0.00000000000E+00 0.  1.
<mgrwt>
<rscale>  0 0.23439526E+04</rscale>
<asrwt>0</asrwt>
<pdfrwt beam="1">  1        2 0.28228454E+00 0.23439526E+04</pdfrwt>
<pdfrwt beam="2">  1       -2 0.11516589E+00 0.23439526E+04</pdfrwt>
<totfact> 0.43807910E+00</totfact>
</mgrwt>
</event>
<event>
11    1  0.2404191E-008  0.1671031E+04  0.7818608E-02  0.8778061E-01
         -1   -1    0    0    0  501 -0.00000000000E+00  0.00000000000E+00  0.11598038199E+04  0.11598038199E+04  0.00000000000E+00 0.  1.
          1   -1    0    0  501    0  0.00000000000E+00 -0.00000000000E+00 -0.60189991240E+03  0.60189991240E+03  0.00000000000E+00 0. -1.
         23    2    1    2    0    0 -0.14632915913E+03 -0.39926099010E+03 -0.22986360473E+03  0.49201062663E+03  0.91736682466E+02 0.  0.
        254    2    1    2    0    0  0.14632915913E+03  0.39926099010E+03  0.78776751226E+03  0.12696931057E+04  0.90040067098E+03 0.  0.
        -24    2    4    4    0    0  0.16173569469E+02  0.21064206182E+03  0.93492009946E+03  0.96184464059E+03  0.80236261821E+02 0.  0.
         11    1    3    3    0    0 -0.43007915974E+02 -0.24881920877E+03 -0.13309370985E+03  0.28543758528E+03  0.00000000000E+00 0. -1.
        -11    1    3    3    0    0 -0.10332124316E+03 -0.15044178133E+03 -0.96769894877E+02  0.20657304135E+03  0.00000000000E+00 0.  1.
          2    1    4    4  502    0 -0.31202880758E+02  0.41626208357E+02 -0.31735590736E+02  0.60938565040E+02  0.00000000000E+00 0. -1.
          3    1    5    5  503    0  0.29045714854E+02  0.34160218309E+02  0.12441993163E+03  0.13225314157E+03  0.00000000000E+00 0. -1.
         -4    1    5    5    0  503 -0.12872145385E+02  0.17648184351E+03  0.81050016782E+03  0.82959149903E+03  0.00000000000E+00 0.  1.
         -1    1    4    4    0  502  0.16135847042E+03  0.14699271992E+03 -0.11541699646E+03  0.24690990008E+03  0.00000000000E+00 0.  1.
<mgrwt>
<rscale>  0 0.16710306E+04</rscale>
<asrwt>0</asrwt>
<pdfrwt beam="1">  1        1 0.92599986E-01 0.16710306E+04</pdfrwt>
<pdfrwt beam="2">  1       -1 0.17843136E+00 0.16710306E+04</pdfrwt>
<totfact> 0.69455043E+00</totfact>
</mgrwt>
</event>
<event>
12    1  0.2404191E-008  0.2157525E+04  0.7818608E-02  0.8536318E-01
          1   -1    0    0  501    0  0.00000000000E+00  0.00000000000E+00  0.11343877699E+04  0.11343877699E+04  0.00000000000E+00 0. -1.
         -1   -1    0    0    0  501 -0.00000000000E+00 -0.00000000000E+00 -0.10258648016E+04  0.10258648016E+04  0.00000000000E+00 0.  1.
         23    2    1    2    0    0 -0.38099127627E+03  0.76286593092E+03 -0.18941372802E+03  0.87823902733E+03  0.91145200706E+02 0.  0.
        254    2    1    2    0    0  0.38099127627E+03 -0.76286593092E+03  0.29793669635E+03  0.12820135441E+04  0.90976572324E+03 0.  0.
        -24    2    4    4    0    0  0.26282459132E+03  0.12139771058E+03  0.23683809327E+03  0.38250835795E+03  0.80038687772E+02 0.  0.
         24    2    4    4    0    0  0.11816668495E+03 -0.88426364150E+03  0.61098603077E+02  0.89950518620E+03  0.97421699772E+02 0.  0.
         11    1    3    3    0    0 -0.27280113051E+03  0.48322453627E+03 -0.88822959847E+02  0.56197502387E+03  0.00000000000E+00 0. -1.
        -11    1    3    3    0    0 -0.10819014576E+03  0.27964139465E+03 -0.10059076817E+03  0.31626400346E+03  0.00000000000E+00 0.  1.
          2    1    6    6  502    0  0.10220055789E+03 -0.40364275621E+03  0.19841762204E+02  0.41685264087E+03  0.00000000000E+00 0. -1.
          3    1    5    5  503    0  0.13421903073E+03  0.51163645115E+02  0.16671538033E+03  0.22006018456E+03  0.00000000000E+00 0. -1.
         -4    1    5    5    0  503  0.12860556059E+03  0.70234065464E+02  0.70122712943E+02  0.16244817339E+03  0.00000000000E+00 0.  1.
         -1    1    6    6    0  502  0.15966127057E+02 -0.48062088529E+03  0.41256840873E+02  0.48265254533E+03  0.00000000000E+00 0.  1.
<mgrwt>
<rscale>  0 0.21575250E+04</rscale>
<asrwt>0</asrwt>
<pdfrwt beam="1">  1        1 0.17452120E+00 0.21575250E+04</pdfrwt>
<pdfrwt beam="2">  1       -1 0.15782535E+00 0.21575250E+04</pdfrwt>
<totfact> 0.33195264E+00</totfact>
</mgrwt>
</event>
<event>
11    1  0.2404191E-008  0.1724026E+04  0.7818608E-02  0.8747779E-01
         -2   -1    0    0    0  501 -0.00000000000E+00  0.00000000000E+00  0.23193900236E+03  0.23193900236E+03  0.00000000000E+00 0.  1.
          2   -1    0    0  501    0  0.00000000000E+00 -0.00000000000E+00 -0.32037133849E+04  0.32037133849E+04  0.00000000000E+00 0. -1.
         23    2    1    2    0    0  0.34404071022E+03 -0.33899430374E+03 -0.18938946084E+04  0.19567082528E+04  0.92678210044E+02 0.  0.
        254    2    1    2    0    0 -0.34404071022E+03  0.33899430374E+03 -0.10778797741E+04  0.14789441344E+04  0.89003921097E+03 0.  0.
        -24    2    4    4    0    0 -0.50453909588E+03  0.95186169410E+02 -0.20698491367E+03  0.55956521664E+03  0.81549807238E+02 0.  0.
         11    1    3    3    0    0  0.15573743461E+03 -0.21507443171E+03 -0.96697247841E+03  0.10027696314E+04  0.00000000000E+00 0.  1.
        -11    1    3    3    0    0  0.18830327561E+03 -0.12391987203E+03 -0.92692213000E+03  0.95393862138E+03  0.00000000000E+00 0. -1.
          2    1    4    4  502    0  0.34778809131E+02  0.27384041029E+02 -0.13779374998E+03  0.14472929490E+03  0.00000000000E+00 0. -1.
          3    1    5    5  503    0 -0.24164864758E+03  0.83217606372E+02 -0.12047260220E+03  0.28254714079E+03  0.00000000000E+00 0. -1.
         -4    1    5    5    0  503 -0.26289044830E+03  0.11968563038E+02 -0.86512311473E+02  0.27701807584E+03  0.00000000000E+00 0.  1.
         -1    1    4    4    0  502  0.12571957654E+03  0.21642409330E+03 -0.73310111048E+03  0.77464962290E+03  0.00000000000E+00 0.  1.
<mgrwt>
<rscale>  0 0.17240256E+04</rscale>
<asrwt>0</asrwt>
<pdfrwt beam="1">  1        2 0.49287896E+00 0.17240256E+04</pdfrwt>
<pdfrwt beam="2">  1       -2 0.35682925E-01 0.17240256E+04</pdfrwt>
<totfact> 0.90988448E+00</totfact>
</mgrwt>
</event>
<event>
11    1  0.2404191E-008  0.2550558E+04  0.7818608E-02  0.8385192E-01
          2   -1    0    0  501    0  0.00000000000E+00  0.00000000000E+00  0.26652835038E+04  0.26652835038E+04  0.00000000000E+00 0.  1.
         -2   -1    0    0    0  501 -0.00000000000E+00 -0.00000000000E+00 -0.61019256307E+03  0.61019256307E+03  0.00000000000E+00 0. -1.
         23    2    1    2    0    0  0.66527453617E+03 -0.39251590083E+03  0.19318702097E+04  0.20826758650E+04  0.93580503916E+02 0.  0.
        254    2    1    2    0    0 -0.66527453617E+03  0.39251590083E+03  0.12322073099E+03  0.11928002018E+04  0.90051653624E+03 0.  0.
        -24    2    4    4    0    0 -0.39878210007E+03  0.55045878566E+03  0.20008678344E+03  0.71329032587E+03  0.81953218499E+02 0.  0.
         11    1    3    3    0    0  0.45664513663E+03 -0.23671456355E+03  0.13710675706E+04  0.14643718272E+04  0.00000000000E+00 0.  1.
        -11    1    3    3    0    0  0.20862939954E+03 -0.15580133729E+03  0.56080263918E+03  0.61830403780E+03  0.00000000000E+00 0. -1.
          2    1    4    4  502    0 -0.44693521333E+02 -0.18955941329E+03  0.75162135951E+02  0.20875734405E+03  0.00000000000E+00 0. -1.
          1    1    5    5  503    0 -0.23775582876E+03  0.36657460647E+03  0.94463365658E+02  0.44702136825E+03  0.00000000000E+00 0. -1.
         -2    1    5    5    0  503 -0.16102627131E+03  0.18388417919E+03  0.10562341778E+03  0.26626895762E+03  0.00000000000E+00 0.  1.
         -1    1    4    4    0  502 -0.22179891477E+03  0.31616528461E+02 -0.15202818840E+03  0.27075253190E+03  0.00000000000E+00 0.  1.
<mgrwt>
<rscale>  0 0.25505577E+04</rscale>
<asrwt>0</asrwt>
<pdfrwt beam="1">  1        2 0.41004361E+00 0.25505577E+04</pdfrwt>
<pdfrwt beam="2">  1       -2 0.93875780E-01 0.25505577E+04</pdfrwt>
<totfact> 0.23697778E+00</totfact>
</mgrwt>
</event>
<event>
11    1  0.2404191E-008  0.2088375E+04  0.7818608E-02  0.8566382E-01
          2   -1    0    0  501    0  0.00000000000E+00  0.00000000000E+00  0.18737182288E+04  0.18737182288E+04  0.00000000000E+00 0. -1.
         -2   -1    0    0    0  501 -0.00000000000E+00 -0.00000000000E+00 -0.58190560606E+03  0.58190560606E+03  0.00000000000E+00 0.  1.
         23    2    1    2    0    0  0.67652553953E+03  0.34663305624E+03  0.96305508967E+03  0.12303571810E+04  0.91991335279E+02 0.  0.
        254    2    1    2    0    0 -0.67652553953E+03 -0.34663305624E+03  0.32875753307E+03  0.12252666539E+04  0.90297041824E+03 0.  0.
        -24    2    4    4    0    0 -0.50538249637E+03  0.17099389643E+03  0.19724842263E+03  0.57469467058E+03  0.81955133519E+02 0.  0.
         11    1    3    3    0    0  0.34363345849E+03  0.19887943642E+03  0.56829322895E+03  0.69324900151E+03  0.00000000000E+00 0. -1.
        -11    1    3    3    0    0  0.33289208103E+03  0.14775361982E+03  0.39476186072E+03  0.53710817948E+03  0.00000000000E+00 0.  1.
          4    1    4    4  502    0 -0.91735297631E+02 -0.45872038374E+03  0.22085048044E+03  0.51731488477E+03  0.00000000000E+00 0. -1.
          3    1    5    5  503    0 -0.26935543999E+03  0.71502698953E+02  0.14153885747E+03  0.31256717227E+03  0.00000000000E+00 0. -1.
         -4    1    5    5    0  503 -0.23602705639E+03  0.99491197473E+02  0.55709565169E+02  0.26212749831E+03  0.00000000000E+00 0.  1.
         -3    1    4    4    0  502 -0.79407745523E+02 -0.58906568922E+02 -0.89341370004E+02  0.13325709852E+03  0.00000000000E+00 0.  1.
<mgrwt>
<rscale>  0 0.20883746E+04</rscale>
<asrwt>0</asrwt>
<pdfrwt beam="1">  1        2 0.28826434E+00 0.20883746E+04</pdfrwt>
<pdfrwt beam="2">  1       -2 0.89523940E-01 0.20883746E+04</pdfrwt>
<totfact> 0.77490493E+00</totfact>
</mgrwt>
</event>
<event>
12    1  0.2404191E-008  0.2113957E+04  0.7818608E-02  0.8555120E-01
          2   -1    0    0  501    0  0.00000000000E+00  0.00000000000E+00  0.19146220621E+04  0.19146220621E+04  0.00000000000E+00 0.  1.
         -2   -1    0    0    0  501 -0.00000000000E+00 -0.00000000000E+00 -0.58351131438E+03  0.58351131438E+03  0.00000000000E+00 0. -1.
         23    2    1    2    0    0 -0.13364727020E+03  0.79356740577E+02 -0.45721211626E+03  0.49133273748E+03  0.90586172000E+02 0.  0.
        254    2    1    2    0    0  0.13364727020E+03 -0.79356740577E+02  0.17883228639E+04  0.20068006390E+04  0.89721293669E+03 0.  0.
        -24    2    4    4    0    0  0.68577983911E+02 -0.81211591174E+02 -0.66640400796E+02  0.14842052336E+03  0.79306029516E+02 0.  0.
         24    2    4    4    0    0  0.65069286294E+02  0.18548505973E+01  0.18549632647E+04  0.18583801156E+04  0.91926536304E+02 0.  0.
         11    1    3    3    0    0 -0.58722535937E+02  0.53267759118E+02 -0.34445402737E+03  0.35346055983E+03  0.00000000000E+00 0. -1.
        -11    1    3    3    0    0 -0.74924734267E+02  0.26088981458E+02 -0.11275808889E+03  0.13787217765E+03  0.00000000000E+00 0.  1.
          2    1    6    6  502    0  0.63893834464E+02  0.38015996386E+02  0.10673480391E+04  0.10699343319E+04  0.00000000000E+00 0. -1.
          3    1    5    5  503    0 -0.44351720930E+01  0.12186163281E+02 -0.12395520081E+01  0.13027272017E+02  0.00000000000E+00 0. -1.
         -4    1    5    5    0  503  0.73013156004E+02 -0.93397754455E+02 -0.65400848788E+02  0.13539325134E+03  0.00000000000E+00 0.  1.
         -1    1    6    6    0  502  0.11754518301E+01 -0.36161145789E+02  0.78761522560E+03  0.78844578365E+03  0.00000000000E+00 0.  1.
<mgrwt>
<rscale>  0 0.21139571E+04</rscale>
<asrwt>0</asrwt>
<pdfrwt beam="1">  1        2 0.29455724E+00 0.21139571E+04</pdfrwt>
<pdfrwt beam="2">  1       -2 0.89770972E-01 0.21139571E+04</pdfrwt>
<totfact> 0.72923348E+00</totfact>
</mgrwt>
</event>
<event>
11    1  0.2404191E-008  0.1697704E+04  0.7818608E-02  0.8762675E-01
          1   -1    0    0  501    0  0.00000000000E+00  0.00000000000E+00  0.65785944922E+03  0.65785944922E+03  0.00000000000E+00 0. -1.
         -1   -1    0    0    0  501 -0.00000000000E+00 -0.00000000000E+00 -0.10952938528E+04  0.10952938528E+04  0.00000000000E+00 0.  1.
         23    2    1    2    0    0  0.25914940883E+03  0.61284237513E+02  0.40636879795E+03  0.49500866444E+03  0.94782931238E+02 0.  0.
        254    2    1    2    0    0 -0.25914940883E+03 -0.61284237513E+02 -0.84380320158E+03  0.12581446376E+04  0.89443273214E+03 0.  0.
        -24    2    4    4    0    0 -0.42209931398E+03 -0.99476996017E+02 -0.92745931705E+03  0.10269725157E+04  0.80176428316E+02 0.  0.
         11    1    3    3    0    0  0.40177311562E+02 -0.39195895594E+01  0.17520770152E+02  0.44006328333E+02  0.00000000000E+00 0.  1.
        -11    1    3    3    0    0  0.21897209727E+03  0.65203827072E+02  0.38884802780E+03  0.45100233610E+03  0.00000000000E+00 0. -1.
          2    1    4    4  502    0  0.11408859880E+03  0.87444819820E+02  0.72187259138E+02  0.16085336574E+03  0.00000000000E+00 0. -1.
          1    1    5    5  503    0 -0.30575567263E+03 -0.10750481754E+03 -0.69811215158E+03  0.76967811020E+03  0.00000000000E+00 0. -1.
         -2    1    5    5    0  503 -0.11634364135E+03  0.80278215206E+01 -0.22934716548E+03  0.25729440552E+03  0.00000000000E+00 0.  1.
         -1    1    4    4    0  502  0.48861306355E+02 -0.49252061316E+02  0.11468856332E+02  0.70318756162E+02  0.00000000000E+00 0.  1.
<mgrwt>
<rscale>  0 0.16977036E+04</rscale>
<asrwt>0</asrwt>
<pdfrwt beam="1">  1        1 0.10120915E+00 0.16977036E+04</pdfrwt>
<pdfrwt beam="2">  1       -1 0.16850674E+00 0.16977036E+04</pdfrwt>
<totfact> 0.71860919E+00</totfact>
</mgrwt>
</event>
<event>
12    1  0.4151094E-008  0.1715611E+04  0.7818608E-02  0.8752510E-01
          3   -1    0    0  501    0  0.00000000000E+00  0.00000000000E+00  0.16870936628E+04  0.16870936628E+04  0.00000000000E+00 0. -1.
         -3   -1    0    0    0  501 -0.00000000000E+00 -0.00000000000E+00 -0.43615283486E+03  0.43615283486E+03  0.00000000000E+00 0.  1.
         23    2    1    2    0    0 -0.40812402255E+02 -0.41443172731E+03 -0.11007749677E+03  0.44036768799E+03  0.91582403061E+02 0.  0.
        254    2    1    2    0    0  0.40812402255E+02  0.41443172731E+03  0.13610183247E+04  0.16828788097E+04  0.89793702399E+03 0.  0.
        -24    2    4    4    0    0 -0.26143504116E+03 -0.16800441646E+03  0.36142465254E+03  0.48361821304E+03  0.81762043949E+02 0.  0.
         24    2    4    4    0    0  0.30224744341E+03  0.58243614377E+03  0.99959367217E+03  0.11992605966E+04  0.91940690467E+02 0.  0.
         11    1    3    3    0    0 -0.87572091321E+01 -0.94594121015E+02  0.13576710673E+02  0.95963865674E+02  0.00000000000E+00 0. -1.
        -11    1    3    3    0    0 -0.32055193123E+02 -0.31983760629E+03 -0.12365420744E+03  0.34440382232E+03  0.00000000000E+00 0.  1.
          4    1    6    6  502    0  0.12004799809E+03  0.21137656860E+03  0.29387025348E+03  0.38138078279E+03  0.00000000000E+00 0. -1.
          1    1    5    5  503    0 -0.68592554688E+02 -0.11436569393E+02  0.11034327499E+03  0.13042765049E+03  0.00000000000E+00 0. -1.
         -2    1    5    5    0  503 -0.19284248647E+03 -0.15656784706E+03  0.25108137755E+03  0.35319056255E+03  0.00000000000E+00 0.  1.
         -3    1    6    6    0  502  0.18219944532E+03  0.37105957516E+03  0.70572341869E+03  0.81787981383E+03  0.00000000000E+00 0.  1.
<mgrwt>
<rscale>  0 0.17156115E+04</rscale>
<asrwt>0</asrwt>
<pdfrwt beam="1">  1        3 0.25955287E+00 0.17156115E+04</pdfrwt>
<pdfrwt beam="2">  1       -3 0.67100437E-01 0.17156115E+04</pdfrwt>
<totfact> 0.34692120E-01</totfact>
</mgrwt>
</event>
<event>
11    1  0.2404191E-008  0.1396418E+04  0.7818608E-02  0.8956415E-01
         -2   -1    0    0    0  501 -0.00000000000E+00  0.00000000000E+00  0.77125481286E+03  0.77125481286E+03  0.00000000000E+00 0. -1.
          2   -1    0    0  501    0  0.00000000000E+00 -0.00000000000E+00 -0.63208166722E+03  0.63208166722E+03  0.00000000000E+00 0.  1.
         23    2    1    2    0    0  0.24535231343E+03  0.19194671091E+02 -0.27874069565E+03  0.38299684301E+03  0.91782423369E+02 0.  0.
        254    2    1    2    0    0 -0.24535231343E+03 -0.19194671091E+02  0.41791384130E+03  0.10203396371E+04  0.89770529860E+03 0.  0.
        -24    2    4    4    0    0 -0.21620147196E+03 -0.11395632829E+02 -0.23244046964E+03  0.32772529429E+03  0.80637210185E+02 0.  0.
         13    1    3    3    0    0  0.55669325618E+02  0.41024698447E+02 -0.99070766107E+02  0.12081852670E+03  0.00000000000E+00 0. -1.
        -13    1    3    3    0    0  0.18968298781E+03 -0.21830027356E+02 -0.17966992955E+03  0.26217831631E+03  0.00000000000E+00 0.  1.
          2    1    4    4  502    0  0.67684403229E+02  0.81845554828E+02  0.28200199030E+03  0.30133867296E+03  0.00000000000E+00 0. -1.
          3    1    5    5  503    0 -0.61930403149E+02 -0.45784514509E+01 -0.20300017096E+02  0.65333205539E+02  0.00000000000E+00 0. -1.
         -4    1    5    5    0  503 -0.15427106881E+03 -0.68171813781E+01 -0.21214045254E+03  0.26239208875E+03  0.00000000000E+00 0.  1.
         -1    1    4    4    0  502 -0.96835244699E+02 -0.89644593090E+02  0.36835232063E+03  0.39127566983E+03  0.00000000000E+00 0.  1.
<mgrwt>
<rscale>  0 0.13964183E+04</rscale>
<asrwt>0</asrwt>
<pdfrwt beam="1">  1        2 0.97243333E-01 0.13964183E+04</pdfrwt>
<pdfrwt beam="2">  1       -2 0.11865459E+00 0.13964183E+04</pdfrwt>
<totfact> 0.24739465E+01</totfact>
</mgrwt>
</event>
<event>
12    1  0.2404191E-008  0.2449118E+04  0.7818608E-02  0.8421340E-01
          2   -1    0    0  501    0  0.00000000000E+00  0.00000000000E+00  0.40456870230E+04  0.40456870230E+04  0.00000000000E+00 0. -1.
         -2   -1    0    0    0  501 -0.00000000000E+00 -0.00000000000E+00 -0.37065263722E+03  0.37065263722E+03  0.00000000000E+00 0.  1.
         23    2    1    2    0    0 -0.86110934822E+03  0.22997807503E+03  0.57138835982E+03  0.10626827797E+04  0.91710457324E+02 0.  0.
        254    2    1    2    0    0  0.86110934822E+03 -0.22997807503E+03  0.31036460260E+04  0.33536568805E+04  0.90553663265E+03 0.  0.
        -24    2    4    4    0    0  0.57095796953E+02  0.80134420101E+02 -0.52123368473E+01  0.12628528186E+03  0.78989547694E+02 0.  0.
         24    2    4    4    0    0  0.80401355127E+03 -0.31011249513E+03  0.31088583629E+04  0.32273715987E+04  0.91211651727E+02 0.  0.
         13    1    3    3    0    0 -0.39496013834E+03  0.10618642350E+03  0.31663555869E+03  0.51723026249E+03  0.00000000000E+00 0. -1.
        -13    1    3    3    0    0 -0.46614920988E+03  0.12379165153E+03  0.25475280113E+03  0.54545251723E+03  0.00000000000E+00 0.  1.
          4    1    6    6  502    0  0.47845788211E+03 -0.20586320884E+03  0.17253835570E+04  0.18022902165E+04  0.00000000000E+00 0. -1.
          3    1    5    5  503    0 -0.75400979854E+01  0.45645606009E+02 -0.21840312104E+02  0.51160274221E+02  0.00000000000E+00 0. -1.
         -4    1    5    5    0  503  0.64635894939E+02  0.34488814092E+02  0.16627975256E+02  0.75125007641E+02  0.00000000000E+00 0.  1.
         -3    1    6    6    0  502  0.32555566916E+03 -0.10424928629E+03  0.13834748059E+04  0.14250813822E+04  0.00000000000E+00 0.  1.
<mgrwt>
<rscale>  0 0.24491179E+04</rscale>
<asrwt>0</asrwt>
<pdfrwt beam="1">  1        2 0.62241336E+00 0.24491179E+04</pdfrwt>
<pdfrwt beam="2">  1       -2 0.57023486E-01 0.24491179E+04</pdfrwt>
<totfact> 0.81412661E-01</totfact>
</mgrwt>
</event>
<event>
12    1  0.2404191E-008  0.1571022E+04  0.7818608E-02  0.8838551E-01
         -1   -1    0    0    0  501 -0.00000000000E+00  0.00000000000E+00  0.48090487929E+03  0.48090487929E+03  0.00000000000E+00 0.  1.
          1   -1    0    0  501    0  0.00000000000E+00 -0.00000000000E+00 -0.12830548620E+04  0.12830548620E+04  0.00000000000E+00 0. -1.
         23    2    1    2    0    0 -0.45090351970E+03 -0.21076404510E+03 -0.49108027607E+03  0.70536314132E+03  0.92961587794E+02 0.  0.
        254    2    1    2    0    0  0.45090351970E+03  0.21076404510E+03 -0.31106970669E+03  0.10585966000E+04  0.88098066514E+03 0.  0.
        -24    2    4    4    0    0  0.50734830787E+03 -0.19531553693E+03 -0.32258606646E+03  0.63712730285E+03  0.79491919742E+02 0.  0.
         24    2    4    4    0    0 -0.56444788167E+02  0.40607958203E+03  0.11516359765E+02  0.42146929716E+03  0.97041747980E+02 0.  0.
         11    1    3    3    0    0 -0.12616396865E+03 -0.27867031385E+02 -0.16930669317E+03  0.21297576100E+03  0.00000000000E+00 0. -1.
        -11    1    3    3    0    0 -0.32473955106E+03 -0.18289701372E+03 -0.32177358290E+03  0.49238738032E+03  0.00000000000E+00 0.  1.
          2    1    6    6  502    0  0.89535702661E+01  0.33157917906E+02  0.25217095213E+02  0.42608870337E+02  0.00000000000E+00 0. -1.
          3    1    5    5  503    0  0.25165467116E+03 -0.62446666537E+02 -0.17986295605E+03  0.31556353186E+03  0.00000000000E+00 0. -1.
         -4    1    5    5    0  503  0.25569363671E+03 -0.13286887040E+03 -0.14272311040E+03  0.32156377100E+03  0.00000000000E+00 0.  1.
         -1    1    6    6    0  502 -0.65398358434E+02  0.37292166413E+03 -0.13700735449E+02  0.37886042682E+03  0.00000000000E+00 0.  1.
<mgrwt>
<rscale>  0 0.15710218E+04</rscale>
<asrwt>0</asrwt>
<pdfrwt beam="1">  1        1 0.19739305E+00 0.15710218E+04</pdfrwt>
<pdfrwt beam="2">  1       -1 0.73985367E-01 0.15710218E+04</pdfrwt>
<totfact> 0.16458934E+01</totfact>
</mgrwt>
</event>
<event>
12    1  0.2404191E-008  0.1393625E+04  0.7818608E-02  0.8958446E-01
         -1   -1    0    0    0  501 -0.00000000000E+00  0.00000000000E+00  0.31699028627E+03  0.31699028627E+03  0.00000000000E+00 0.  1.
          1   -1    0    0  501    0  0.00000000000E+00 -0.00000000000E+00 -0.15317426178E+04  0.15317426178E+04  0.00000000000E+00 0. -1.
         23    2    1    2    0    0 -0.24462660768E+03  0.14044959200E+03 -0.72977683454E+03  0.78752537589E+03  0.89742544863E+02 0.  0.
        254    2    1    2    0    0  0.24462660768E+03 -0.14044959200E+03 -0.48497549701E+03  0.10612075282E+04  0.90077295703E+03 0.  0.
        -24    2    4    4    0    0  0.12982598165E+03 -0.14993486414E+03  0.24080102781E+03  0.32337559327E+03  0.85155095768E+02 0.  0.
         24    2    4    4    0    0  0.11480062603E+03  0.94852721391E+01 -0.72577652482E+03  0.73783193492E+03  0.66145642947E+02 0.  0.
         11    1    3    3    0    0 -0.24336705805E+03  0.14632248793E+03 -0.72774370511E+03  0.78118416250E+03  0.00000000000E+00 0. -1.
        -11    1    3    3    0    0 -0.12595496326E+01 -0.58728959310E+01 -0.20331294256E+01  0.63412133819E+01  0.00000000000E+00 0.  1.
          2    1    6    6  502    0  0.65284082883E+02  0.37483546903E+02 -0.37628059707E+03  0.38373703952E+03  0.00000000000E+00 0. -1.
          1    1    5    5  503    0  0.10314471974E+03 -0.62465182549E+02  0.16631980539E+03  0.20543371170E+03  0.00000000000E+00 0. -1.
         -2    1    5    5    0  503  0.26681261912E+02 -0.87469681589E+02  0.74481222422E+02  0.11794188157E+03  0.00000000000E+00 0.  1.
         -1    1    6    6    0  502  0.49516543151E+02 -0.27998274764E+02 -0.34949592775E+03  0.35409489540E+03  0.00000000000E+00 0.  1.
<mgrwt>
<rscale>  0 0.13936248E+04</rscale>
<asrwt>0</asrwt>
<pdfrwt beam="1">  1        1 0.23565271E+00 0.13936248E+04</pdfrwt>
<pdfrwt beam="2">  1       -1 0.48767737E-01 0.13936248E+04</pdfrwt>
<totfact> 0.25532851E+01</totfact>
</mgrwt>
</event>
<event>
12    1  0.2404191E-008  0.3391269E+04  0.7818608E-02  0.8140052E-01
         -3   -1    0    0    0  501 -0.00000000000E+00  0.00000000000E+00  0.77507805973E+03  0.77507805973E+03  0.00000000000E+00 0.  1.
          3   -1    0    0  501    0  0.00000000000E+00 -0.00000000000E+00 -0.37095314974E+04  0.37095314974E+04  0.00000000000E+00 0. -1.
         23    2    1    2    0    0 -0.30961396938E+02  0.38075400687E+02  0.71540969517E+03  0.72424937094E+03  0.10157644965E+03 0.  0.
        254    2    1    2    0    0  0.30961396938E+02 -0.38075400687E+02 -0.36498631328E+04  0.37603601862E+04  0.90354828161E+03 0.  0.
        -24    2    4    4    0    0 -0.40837392408E+03  0.11157759431E+03 -0.17405891690E+04  0.17932879842E+04  0.83739582023E+02 0.  0.
         24    2    4    4    0    0  0.43933532102E+03 -0.14965299500E+03 -0.19092739638E+04  0.19670722020E+04  0.92921664118E+02 0.  0.
         13    1    3    3    0    0  0.31457609355E+02  0.17016841047E+02  0.12027824774E+03  0.12548311020E+03  0.00000000000E+00 0. -1.
        -13    1    3    3    0    0 -0.62419006293E+02  0.21058559639E+02  0.59513144743E+03  0.59876626074E+03  0.00000000000E+00 0.  1.
          2    1    6    6  502    0  0.28329215308E+03 -0.13003563964E+03 -0.13890423422E+04  0.14235878407E+04  0.00000000000E+00 0. -1.
          3    1    5    5  503    0 -0.31406658935E+03  0.12111115028E+03 -0.13772487544E+04  0.14177869603E+04  0.00000000000E+00 0. -1.
         -4    1    5    5    0  503 -0.94307334730E+02 -0.95335559645E+01 -0.36334041457E+03  0.37550102388E+03  0.00000000000E+00 0.  1.
         -1    1    6    6    0  502  0.15604316794E+03 -0.19617355361E+02 -0.52023162161E+03  0.54348436133E+03  0.00000000000E+00 0.  1.
<mgrwt>
<rscale>  0 0.33912691E+04</rscale>
<asrwt>0</asrwt>
<pdfrwt beam="1">  1        3 0.57069716E+00 0.33912691E+04</pdfrwt>
<pdfrwt beam="2">  1       -3 0.11924278E+00 0.33912691E+04</pdfrwt>
<totfact> 0.19273088E-03</totfact>
</mgrwt>
</event>
<event>
12    1  0.2404191E-008  0.3888819E+04  0.7818608E-02  0.8027359E-01
         -2   -1    0    0    0  501 -0.00000000000E+00  0.00000000000E+00  0.15741137505E+04  0.15741137505E+04  0.00000000000E+00 0.  1.
          2   -1    0    0  501    0  0.00000000000E+00 -0.00000000000E+00 -0.24018137494E+04  0.24018137494E+04  0.00000000000E+00 0. -1.
         23    2    1    2    0    0  0.38930039417E+03  0.14665975744E+04 -0.14498573902E+04  0.21008185412E+04  0.94280691945E+02 0.  0.
        254    2    1    2    0    0 -0.38930039417E+03 -0.14665975744E+04  0.62215739139E+03  0.18751089587E+04  0.90911525400E+03 0.  0.
        -24    2    4    4    0    0 -0.91966162348E+02 -0.81884783743E+03 -0.12939289668E+03  0.83787930750E+03  0.79559137388E+02 0.  0.
         24    2    4    4    0    0 -0.29733423182E+03 -0.64774973699E+03  0.75155028807E+03  0.10372296512E+04  0.55046767375E+02 0.  0.
         13    1    3    3    0    0  0.35390349310E+03  0.13331410305E+04 -0.13532643914E+04  0.19323139504E+04  0.00000000000E+00 0. -1.
        -13    1    3    3    0    0  0.35396901074E+02  0.13345654389E+03 -0.96592998786E+02  0.16850459082E+03  0.00000000000E+00 0.  1.
          2    1    6    6  502    0 -0.10700678453E+03 -0.19974419299E+03  0.27053334025E+03  0.35289726941E+03  0.00000000000E+00 0. -1.
          1    1    5    5  503    0 -0.45239142559E+02 -0.17115943892E+03 -0.77085718982E+01  0.17720484088E+03  0.00000000000E+00 0. -1.
         -2    1    5    5    0  503 -0.46727019789E+02 -0.64768839851E+03 -0.12168432478E+03  0.66067446662E+03  0.00000000000E+00 0.  1.
         -1    1    6    6    0  502 -0.19032744729E+03 -0.44800554400E+03  0.48101694782E+03  0.68433238176E+03  0.00000000000E+00 0.  1.
<mgrwt>
<rscale>  0 0.38888189E+04</rscale>
<asrwt>0</asrwt>
<pdfrwt beam="1">  1        2 0.36950981E+00 0.38888189E+04</pdfrwt>
<pdfrwt beam="2">  1       -2 0.24217135E+00 0.38888189E+04</pdfrwt>
<totfact> 0.22673360E-01</totfact>
</mgrwt>
</event>
<event>
12    1  0.2404191E-008  0.1823054E+04  0.7818608E-02  0.8694135E-01
          1   -1    0    0  501    0  0.00000000000E+00  0.00000000000E+00  0.44151179165E+03  0.44151179165E+03  0.00000000000E+00 0.  1.
         -1   -1    0    0    0  501 -0.00000000000E+00 -0.00000000000E+00 -0.18819015448E+04  0.18819015448E+04  0.00000000000E+00 0. -1.
         23    2    1    2    0    0  0.54746447854E+03 -0.41089065181E+03 -0.61710077914E+03  0.92359356255E+03  0.60524492144E+02 0.  0.
        254    2    1    2    0    0 -0.54746447854E+03  0.41089065181E+03 -0.82328897399E+03  0.13998197739E+04  0.90174396682E+03 0.  0.
        -24    2    4    4    0    0 -0.35281789857E+03 -0.13824059180E+03  0.32480463746E+01  0.38724079397E+03  0.79711680037E+02 0.  0.
         24    2    4    4    0    0 -0.19464657997E+03  0.54913124361E+03 -0.82653702037E+03  0.10125789799E+04  0.52156790016E+02 0.  0.
         11    1    3    3    0    0  0.52240271800E+03 -0.40583693720E+03 -0.59690657438E+03  0.89101384833E+03  0.00000000000E+00 0.  1.
        -11    1    3    3    0    0  0.25061760536E+02 -0.50537146099E+01 -0.20194204766E+02  0.32579714221E+02  0.00000000000E+00 0. -1.
          2    1    6    6  502    0 -0.43904582661E+02  0.79234206827E+02 -0.10903535114E+03  0.14175464616E+03  0.00000000000E+00 0. -1.
          1    1    5    5  503    0 -0.75697942605E+02 -0.14229923933E+02 -0.28179087558E+02  0.82016646026E+02  0.00000000000E+00 0. -1.
         -2    1    5    5    0  503 -0.27711995597E+03 -0.12401066787E+03  0.31427133933E+02  0.30522414794E+03  0.00000000000E+00 0.  1.
         -1    1    6    6    0  502 -0.15074199731E+03  0.46989703679E+03 -0.71750166923E+03  0.87082433376E+03  0.00000000000E+00 0.  1.
<mgrwt>
<rscale>  0 0.18230543E+04</rscale>
<asrwt>0</asrwt>
<pdfrwt beam="1">  1        1 0.67924891E-01 0.18230543E+04</pdfrwt>
<pdfrwt beam="2">  1       -1 0.28952331E+00 0.18230543E+04</pdfrwt>
<totfact> 0.19122851E+00</totfact>
</mgrwt>
</event>
<event>
12    1  0.2404191E-008  0.1132252E+04  0.7818608E-02  0.9174315E-01
         -1   -1    0    0    0  501 -0.00000000000E+00  0.00000000000E+00  0.26098742367E+03  0.26098742367E+03  0.00000000000E+00 0.  1.
          1   -1    0    0  501    0  0.00000000000E+00 -0.00000000000E+00 -0.12280223032E+04  0.12280223032E+04  0.00000000000E+00 0. -1.
         23    2    1    2    0    0 -0.16971442353E+03  0.53536857803E+02 -0.22044096238E+03  0.29761853693E+03  0.91177820375E+02 0.  0.
        254    2    1    2    0    0  0.16971442353E+03 -0.53536857803E+02 -0.74659391714E+03  0.11913911899E+04  0.91123065666E+03 0.  0.
        -24    2    4    4    0    0  0.42588239614E+03  0.24286703274E+03 -0.26513940137E+03  0.56286431705E+03  0.78467358287E+02 0.  0.
         24    2    4    4    0    0 -0.25616797261E+03 -0.29640389054E+03 -0.48145451576E+03  0.62852687287E+03  0.98844740167E+02 0.  0.
         11    1    3    3    0    0 -0.75835416737E+02  0.15427153587E+02 -0.32155750663E+02  0.83803340030E+02  0.00000000000E+00 0.  1.
        -11    1    3    3    0    0 -0.93879006798E+02  0.38109704215E+02 -0.18828521172E+03  0.21381519690E+03  0.00000000000E+00 0. -1.
          2    1    6    6  502    0 -0.23184360924E+03 -0.26387349354E+03 -0.37129415385E+03  0.51111645290E+03  0.00000000000E+00 0. -1.
          1    1    5    5  503    0  0.33962443684E+03  0.18313223571E+03 -0.24186737743E+03  0.45539214103E+03  0.00000000000E+00 0. -1.
         -2    1    5    5    0  503  0.86257959306E+02  0.59734797031E+02 -0.23272023947E+02  0.10747217602E+03  0.00000000000E+00 0.  1.
         -1    1    6    6    0  502 -0.24324363367E+02 -0.32530396997E+02 -0.11016036191E+03  0.11741041997E+03  0.00000000000E+00 0.  1.
<mgrwt>
<rscale>  0 0.11322515E+04</rscale>
<asrwt>0</asrwt>
<pdfrwt beam="1">  1        1 0.18892651E+00 0.11322515E+04</pdfrwt>
<pdfrwt beam="2">  1       -1 0.40151911E-01 0.11322515E+04</pdfrwt>
<totfact> 0.61276798E+01</totfact>
</mgrwt>
</event>
<event>
11    1  0.2404191E-008  0.1299198E+04  0.7818608E-02  0.9030202E-01
          1   -1    0    0  501    0  0.00000000000E+00  0.00000000000E+00  0.38395170789E+03  0.38395170789E+03  0.00000000000E+00 0. -1.
         -1   -1    0    0    0  501 -0.00000000000E+00 -0.00000000000E+00 -0.10990408631E+04  0.10990408631E+04  0.00000000000E+00 0.  1.
         23    2    1    2    0    0 -0.21749580717E+03  0.36806979421E+02 -0.41105740908E+03  0.47658197286E+03  0.97483349470E+02 0.  0.
        254    2    1    2    0    0  0.21749580717E+03 -0.36806979421E+02 -0.30403174611E+03  0.10064105981E+04  0.93368506974E+03 0.  0.
        -24    2    4    4    0    0 -0.59215525549E+02  0.19480391578E+03  0.44240535012E+02  0.22314757961E+03  0.79891008758E+02 0.  0.
         13    1    3    3    0    0 -0.18053098942E+03  0.67231059854E+02 -0.34255345506E+03  0.39300677236E+03  0.00000000000E+00 0.  1.
        -13    1    3    3    0    0 -0.36964817751E+02 -0.30424080433E+02 -0.68503954016E+02  0.83575200492E+02  0.00000000000E+00 0. -1.
          2    1    4    4  502    0  0.11539158074E+03  0.13357573616E+03  0.83444694583E+02  0.19524525922E+03  0.00000000000E+00 0. -1.
          3    1    5    5  503    0 -0.84564682288E+01  0.62974275429E+01  0.24815687161E+02  0.26962710877E+02  0.00000000000E+00 0. -1.
         -4    1    5    5    0  503 -0.50759057320E+02  0.18850648824E+03  0.19424847851E+02  0.19618486874E+03  0.00000000000E+00 0.  1.
         -3    1    4    4    0  502  0.16131975198E+03 -0.36518663136E+03 -0.43171697571E+03  0.58801775927E+03  0.00000000000E+00 0.  1.
<mgrwt>
<rscale>  0 0.12991976E+04</rscale>
<asrwt>0</asrwt>
<pdfrwt beam="1">  1        1 0.59069494E-01 0.12991976E+04</pdfrwt>
<pdfrwt beam="2">  1       -1 0.16908321E+00 0.12991976E+04</pdfrwt>
<totfact> 0.15558193E+01</totfact>
</mgrwt>
</event>
<event>
11    1  0.2404191E-008  0.1635245E+04  0.7818608E-02  0.8799184E-01
          1   -1    0    0  501    0  0.00000000000E+00  0.00000000000E+00  0.13643953725E+04  0.13643953725E+04  0.00000000000E+00 0. -1.
         -1   -1    0    0    0  501 -0.00000000000E+00 -0.00000000000E+00 -0.48996513106E+03  0.48996513106E+03  0.00000000000E+00 0.  1.
         23    2    1    2    0    0 -0.29125569803E+03  0.36943611381E+02  0.85397948006E+03  0.90760401320E+03  0.90936133348E+02 0.  0.
        254    2    1    2    0    0  0.29125569803E+03 -0.36943611381E+02  0.20450761401E+02  0.94675649039E+03  0.89985271372E+03 0.  0.
        -24    2    4    4    0    0 -0.40408826528E+02  0.10570873788E+03 -0.37040665883E+03  0.39523381591E+03  0.78749386050E+02 0.  0.
         11    1    3    3    0    0 -0.18202818335E+03  0.60733857581E+02  0.60444085877E+03  0.63417001880E+03  0.00000000000E+00 0. -1.
        -11    1    3    3    0    0 -0.10922751468E+03 -0.23790246200E+02  0.24953862129E+03  0.27343399440E+03  0.00000000000E+00 0.  1.
          4    1    4    4  502    0  0.33046761542E+03 -0.15428860246E+03  0.39633599306E+03  0.53860564153E+03  0.00000000000E+00 0. -1.
          3    1    5    5  503    0  0.20824884548E-02  0.94935344594E+02 -0.27911188381E+03  0.29481547337E+03  0.00000000000E+00 0. -1.
         -4    1    5    5    0  503 -0.40410909016E+02  0.10773393287E+02 -0.91294775025E+02  0.10041834253E+03  0.00000000000E+00 0.  1.
         -3    1    4    4    0  502  0.11969091352E+01  0.11636253198E+02 -0.54785728306E+01  0.12917032949E+02  0.00000000000E+00 0.  1.
<mgrwt>
<rscale>  0 0.16352445E+04</rscale>
<asrwt>0</asrwt>
<pdfrwt beam="1">  1        1 0.20990698E+00 0.16352445E+04</pdfrwt>
<pdfrwt beam="2">  1       -1 0.75379251E-01 0.16352445E+04</pdfrwt>
<totfact> 0.13777866E+01</totfact>
</mgrwt>
</event>
<event>
12    1  0.2404191E-008  0.1473653E+04  0.7818608E-02  0.8902165E-01
         -1   -1    0    0    0  501 -0.00000000000E+00  0.00000000000E+00  0.13540337127E+04  0.13540337127E+04  0.00000000000E+00 0. -1.
          1   -1    0    0  501    0  0.00000000000E+00 -0.00000000000E+00 -0.40096013378E+03  0.40096013378E+03  0.00000000000E+00 0.  1.
         23    2    1    2    0    0 -0.12330503578E+03 -0.43730615204E+03  0.31757267854E+03  0.56266052651E+03  0.96403627932E+02 0.  0.
        254    2    1    2    0    0  0.12330503578E+03  0.43730615204E+03  0.63550090034E+03  0.11923333199E+04  0.90075332308E+03 0.  0.
        -24    2    4    4    0    0  0.36212108944E+03  0.41101469849E+03  0.73768092979E+03  0.92242246143E+03  0.81395806985E+02 0.  0.
         24    2    4    4    0    0 -0.23881605365E+03  0.26291453547E+02 -0.10218002945E+03  0.26991085850E+03  0.68459952586E+02 0.  0.
         13    1    3    3    0    0 -0.64685383405E+02 -0.36053009602E+03  0.26959890471E+03  0.45480734205E+03  0.00000000000E+00 0. -1.
        -13    1    3    3    0    0 -0.58619652377E+02 -0.76776056015E+02  0.47973773826E+02  0.10785318446E+03  0.00000000000E+00 0.  1.
          2    1    6    6  502    0 -0.80116213461E+02 -0.17691851870E+02 -0.54381052494E+02  0.98432251586E+02  0.00000000000E+00 0. -1.
          1    1    5    5  503    0  0.35930287643E+03  0.40754171786E+03  0.70818222637E+03  0.89258662019E+03  0.00000000000E+00 0. -1.
         -2    1    5    5    0  503  0.28182130069E+01  0.34729806313E+01  0.29498703419E+02  0.29835841239E+02  0.00000000000E+00 0.  1.
         -1    1    6    6    0  502 -0.15869984019E+03  0.43983305417E+02 -0.47798976951E+02  0.17147860692E+03  0.00000000000E+00 0.  1.
<mgrwt>
<rscale>  0 0.14736533E+04</rscale>
<asrwt>0</asrwt>
<pdfrwt beam="1">  1        1 0.61686175E-01 0.14736533E+04</pdfrwt>
<pdfrwt beam="2">  1       -1 0.20831288E+00 0.14736533E+04</pdfrwt>
<totfact> 0.76520215E+00</totfact>
</mgrwt>
</event>
<event>
12    1  0.2404191E-008  0.1987519E+04  0.7818608E-02  0.8612478E-01
          1   -1    0    0  501    0  0.00000000000E+00  0.00000000000E+00  0.22181328063E+04  0.22181328063E+04  0.00000000000E+00 0. -1.
         -1   -1    0    0    0  501 -0.00000000000E+00 -0.00000000000E+00 -0.44522025485E+03  0.44522025485E+03  0.00000000000E+00 0.  1.
         23    2    1    2    0    0  0.11834371352E+03  0.74580566757E+03  0.40764660214E+03  0.86314051348E+03  0.92760258049E+02 0.  0.
        254    2    1    2    0    0 -0.11834371352E+03 -0.74580566757E+03  0.13652659493E+04  0.18002125477E+04  0.89809953574E+03 0.  0.
        -24    2    4    4    0    0 -0.12278581029E+03  0.16815555872E+03  0.46427430842E+03  0.51506042672E+03  0.79899703190E+02 0.  0.
         24    2    4    4    0    0  0.44420967794E+01 -0.91396122629E+03  0.90099164088E+03  0.12851521209E+04  0.66971498597E+02 0.  0.
         13    1    3    3    0    0  0.12245214546E+03  0.62277137089E+03  0.31193236961E+03  0.70720613087E+03  0.00000000000E+00 0.  1.
        -13    1    3    3    0    0 -0.41084319455E+01  0.12303429667E+03  0.95714232531E+02  0.15593438261E+03  0.00000000000E+00 0. -1.
          2    1    6    6  502    0 -0.40466345065E+01 -0.13013318848E+02  0.25221905137E+02  0.28668209170E+02  0.00000000000E+00 0. -1.
          3    1    5    5  503    0 -0.15876221305E+02  0.37495481376E+01  0.10028191937E+03  0.10160008300E+03  0.00000000000E+00 0. -1.
         -4    1    5    5    0  503 -0.10690958899E+03  0.16440601058E+03  0.36399238906E+03  0.41346034371E+03  0.00000000000E+00 0.  1.
         -1    1    6    6    0  502  0.84887312859E+01 -0.90094790744E+03  0.87576973574E+03  0.12564839118E+04  0.00000000000E+00 0.  1.
<mgrwt>
<rscale>  0 0.19875187E+04</rscale>
<asrwt>0</asrwt>
<pdfrwt beam="1">  1        1 0.34125119E+00 0.19875187E+04</pdfrwt>
<pdfrwt beam="2">  1       -1 0.68495425E-01 0.19875187E+04</pdfrwt>
<totfact> 0.42421897E+00</totfact>
</mgrwt>
</event>
<event>
11    1  0.2404191E-008  0.1355671E+04  0.7818608E-02  0.8986546E-01
          4   -1    0    0  501    0  0.00000000000E+00  0.00000000000E+00  0.22778822277E+03  0.22778822277E+03  0.00000000000E+00 0. -1.
         -4   -1    0    0    0  501 -0.00000000000E+00 -0.00000000000E+00 -0.20170526962E+04  0.20170526962E+04  0.00000000000E+00 0.  1.
         23    2    1    2    0    0  0.30578270314E+03  0.10374105153E+03 -0.21351153126E+03  0.39781248728E+03  0.91664244617E+02 0.  0.
        254    2    1    2    0    0 -0.30578270314E+03 -0.10374105153E+03 -0.15757529422E+04  0.18470284317E+04  0.90788293595E+03 0.  0.
        -24    2    4    4    0    0 -0.17401683204E+02  0.36076922151E+03 -0.39727431209E+03  0.54245573327E+03  0.77292261860E+02 0.  0.
         13    1    3    3    0    0  0.10187343141E+03  0.45333536874E+01 -0.10519551045E+03  0.14650884868E+03  0.00000000000E+00 0.  1.
        -13    1    3    3    0    0  0.20390927173E+03  0.99207697844E+02 -0.10831602082E+03  0.25130363860E+03  0.00000000000E+00 0. -1.
          2    1    4    4  502    0 -0.36722321656E+02 -0.14975048350E+03 -0.38203558713E+03  0.41197685135E+03  0.00000000000E+00 0. -1.
          1    1    5    5  503    0  0.11909236864E+02  0.32754066806E+02 -0.15146911461E+02  0.38001154480E+02  0.00000000000E+00 0. -1.
         -2    1    5    5    0  503 -0.29310920068E+02  0.32801515471E+03 -0.38212740063E+03  0.50445457879E+03  0.00000000000E+00 0.  1.
         -1    1    4    4    0  502 -0.25165869828E+03 -0.31475978954E+03 -0.79644304298E+03  0.89259584709E+03  0.00000000000E+00 0.  1.
<mgrwt>
<rscale>  0 0.13556708E+04</rscale>
<asrwt>0</asrwt>
<pdfrwt beam="1">  1        4 0.35044342E-01 0.13556708E+04</pdfrwt>
<pdfrwt beam="2">  1       -4 0.31031580E+00 0.13556708E+04</pdfrwt>
<totfact> 0.41666401E-01</totfact>
</mgrwt>
</event>
<event>
11    1  0.2404191E-008  0.1573530E+04  0.7818608E-02  0.8836977E-01
          1   -1    0    0  501    0  0.00000000000E+00  0.00000000000E+00  0.30368843073E+03  0.30368843073E+03  0.00000000000E+00 0. -1.
         -1   -1    0    0    0  501 -0.00000000000E+00 -0.00000000000E+00 -0.20382695091E+04  0.20382695091E+04  0.00000000000E+00 0.  1.
         23    2    1    2    0    0 -0.38556155743E+03 -0.41790836255E+02 -0.10556169652E+03  0.41200898984E+03  0.90575644493E+02 0.  0.
        254    2    1    2    0    0  0.38556155743E+03  0.41790836255E+02 -0.16290193819E+04  0.19299489500E+04  0.95947621887E+03 0.  0.
        -24    2    4    4    0    0  0.23147295955E+03 -0.10008960774E+03  0.10792927200E+02  0.26428753309E+03  0.78318275590E+02 0.  0.
         13    1    3    3    0    0 -0.10664996259E+03 -0.24018189114E+02  0.95849323461E+01  0.10974041578E+03  0.00000000000E+00 0.  1.
        -13    1    3    3    0    0 -0.27891159484E+03 -0.17772647142E+02 -0.11514662887E+03  0.30226857405E+03  0.00000000000E+00 0. -1.
          4    1    4    4  502    0 -0.85319071668E+01  0.10476596117E+03 -0.95767601078E+03  0.96342723736E+03  0.00000000000E+00 0. -1.
          3    1    5    5  503    0  0.51517099363E+02 -0.61589513027E+01  0.30753053922E+02  0.60313303122E+02  0.00000000000E+00 0. -1.
         -4    1    5    5    0  503  0.17995586019E+03 -0.93930656434E+02 -0.19960126722E+02  0.20397422997E+03  0.00000000000E+00 0.  1.
         -3    1    4    4    0  502  0.16262050504E+03  0.37114482824E+02 -0.68213629829E+03  0.70223417956E+03  0.00000000000E+00 0.  1.
<mgrwt>
<rscale>  0 0.15735296E+04</rscale>
<asrwt>0</asrwt>
<pdfrwt beam="1">  1        1 0.46721299E-01 0.15735296E+04</pdfrwt>
<pdfrwt beam="2">  1       -1 0.31357991E+00 0.15735296E+04</pdfrwt>
<totfact> 0.22422459E+00</totfact>
</mgrwt>
</event>
<event>
11    1  0.2404191E-008  0.2889048E+04  0.7818608E-02  0.8276143E-01
         -2   -1    0    0    0  501 -0.00000000000E+00  0.00000000000E+00  0.54905892435E+03  0.54905892435E+03  0.00000000000E+00 0.  1.
          2   -1    0    0  501    0  0.00000000000E+00 -0.00000000000E+00 -0.38004108903E+04  0.38004108903E+04  0.00000000000E+00 0. -1.
         23    2    1    2    0    0 -0.16181530212E+03  0.17956117134E+03  0.45375754563E+03  0.52227150742E+03  0.91897829109E+02 0.  0.
        254    2    1    2    0    0  0.16181530212E+03 -0.17956117134E+03 -0.37051095116E+04  0.38271983072E+04  0.92799999124E+03 0.  0.
        -24    2    4    4    0    0  0.19288001036E+03 -0.33321797788E+03 -0.34138108976E+04  0.34363756206E+04  0.79596748062E+02 0.  0.
         13    1    3    3    0    0 -0.59987849145E+02  0.13059590164E+03  0.22232764341E+03  0.26473271916E+03  0.00000000000E+00 0. -1.
        -13    1    3    3    0    0 -0.10182745297E+03  0.48965269694E+02  0.23142990223E+03  0.25753878826E+03  0.00000000000E+00 0.  1.
          2    1    4    4  502    0 -0.19362273288E+02  0.19076553708E+03 -0.14767390882E+03  0.24202060059E+03  0.00000000000E+00 0. -1.
          3    1    5    5  503    0  0.18792265003E+03 -0.27212155872E+03 -0.27772095754E+04  0.27968300074E+04  0.00000000000E+00 0. -1.
         -4    1    5    5    0  503  0.49573603256E+01 -0.61096419159E+02 -0.63660132221E+03  0.63954561315E+03  0.00000000000E+00 0.  1.
         -1    1    4    4    0  502 -0.11702434950E+02 -0.37108730540E+02 -0.14362470518E+03  0.14880208602E+03  0.00000000000E+00 0.  1.
<mgrwt>
<rscale>  0 0.28890480E+04</rscale>
<asrwt>0</asrwt>
<pdfrwt beam="1">  1        2 0.58467862E+00 0.28890480E+04</pdfrwt>
<pdfrwt beam="2">  1       -2 0.84470600E-01 0.28890480E+04</pdfrwt>
<totfact> 0.51804045E-01</totfact>
</mgrwt>
</event>
<event>
12    1  0.2404191E-008  0.1730526E+04  0.7818608E-02  0.8744143E-01
          2   -1    0    0  501    0  0.00000000000E+00  0.00000000000E+00  0.31421246360E+04  0.31421246360E+04  0.00000000000E+00 0. -1.
         -2   -1    0    0    0  501 -0.00000000000E+00 -0.00000000000E+00 -0.23827194865E+03  0.23827194865E+03  0.00000000000E+00 0.  1.
         23    2    1    2    0    0  0.19586885591E+03  0.14822963474E+03 -0.55549890164E+02  0.26731731315E+03  0.89644421381E+02 0.  0.
        254    2    1    2    0    0 -0.19586885591E+03 -0.14822963474E+03  0.29594025775E+04  0.31130792715E+04  0.93427100001E+03 0.  0.
        -24    2    4    4    0    0 -0.37155301292E+03 -0.32992773693E+03  0.26665238656E+04  0.27135743339E+04  0.78944201884E+02 0.  0.
         24    2    4    4    0    0  0.17568415701E+03  0.18169810219E+03  0.29287871194E+03  0.39950493758E+03  0.99735309063E+02 0.  0.
         13    1    3    3    0    0  0.13766441704E+03  0.14950738688E+03 -0.44851768225E+02  0.20812407733E+03  0.00000000000E+00 0.  1.
        -13    1    3    3    0    0  0.58204438868E+02 -0.12777521406E+01 -0.10698121938E+02  0.59193235825E+02  0.00000000000E+00 0. -1.
          2    1    6    6  502    0  0.14960793047E+03  0.17336597767E+03  0.29332514704E+03  0.37212623794E+03  0.00000000000E+00 0. -1.
          1    1    5    5  503    0 -0.36239668343E+03 -0.30377529941E+03  0.24434937176E+04  0.24888295113E+04  0.00000000000E+00 0. -1.
         -2    1    5    5    0  503 -0.91563294830E+01 -0.26152437523E+02  0.22303014800E+03  0.22474482257E+03  0.00000000000E+00 0.  1.
         -1    1    6    6    0  502  0.26076226540E+02  0.83321245267E+01 -0.44643510170E+00  0.27378699641E+02  0.00000000000E+00 0.  1.
<mgrwt>
<rscale>  0 0.17305261E+04</rscale>
<asrwt>0</asrwt>
<pdfrwt beam="1">  1        2 0.48340376E+00 0.17305261E+04</pdfrwt>
<pdfrwt beam="2">  1       -2 0.36657225E-01 0.17305261E+04</pdfrwt>
<totfact> 0.94611257E+00</totfact>
</mgrwt>
</event>
<event>
12    1  0.2404191E-008  0.3491819E+04  0.7818608E-02  0.8115732E-01
          1   -1    0    0  501    0  0.00000000000E+00  0.00000000000E+00  0.94408807848E+03  0.94408807848E+03  0.00000000000E+00 0. -1.
         -1   -1    0    0    0  501 -0.00000000000E+00 -0.00000000000E+00 -0.32287232933E+04  0.32287232933E+04  0.00000000000E+00 0.  1.
         23    2    1    2    0    0 -0.41539534438E+03  0.11823926030E+04  0.17887193764E+03  0.12692650016E+04  0.91830902241E+02 0.  0.
        254    2    1    2    0    0  0.41539534438E+03 -0.11823926030E+04 -0.24635071525E+04  0.29035463702E+04  0.88944278833E+03 0.  0.
        -24    2    4    4    0    0 -0.49237549314E+01 -0.52717717498E+03 -0.31804302506E+03  0.62033424334E+03  0.75651771209E+02 0.  0.
         24    2    4    4    0    0  0.42031909932E+03 -0.65521542799E+03 -0.21454641274E+04  0.22832121269E+04  0.63764345162E+02 0.  0.
         13    1    3    3    0    0 -0.35076764401E+03  0.87984081692E+03  0.13899800718E+03  0.95732870489E+03  0.00000000000E+00 0. -1.
        -13    1    3    3    0    0 -0.64627700372E+02  0.30255178605E+03  0.39873930459E+02  0.31193629674E+03  0.00000000000E+00 0.  1.
          2    1    6    6  502    0  0.27430022048E+03 -0.41039651544E+03 -0.14439331368E+04  0.15259779862E+04  0.00000000000E+00 0. -1.
          3    1    5    5  503    0 -0.23293438968E+01  0.21396698409E+01 -0.29528113666E+01  0.43270226466E+01  0.00000000000E+00 0. -1.
         -4    1    5    5    0  503 -0.25944110346E+01 -0.52931684482E+03 -0.31509021369E+03  0.61600722069E+03  0.00000000000E+00 0.  1.
         -1    1    6    6    0  502  0.14601887883E+03 -0.24481891255E+03 -0.70153099064E+03  0.75723414064E+03  0.00000000000E+00 0.  1.
<mgrwt>
<rscale>  0 0.34918185E+04</rscale>
<asrwt>0</asrwt>
<pdfrwt beam="1">  1        1 0.14524432E+00 0.34918185E+04</pdfrwt>
<pdfrwt beam="2">  1       -1 0.49672667E+00 0.34918185E+04</pdfrwt>
<totfact> 0.21386039E-02</totfact>
</mgrwt>
</event>
<event>
12    1  0.2404191E-008  0.1917879E+04  0.7818608E-02  0.8646008E-01
         -2   -1    0    0    0  501 -0.00000000000E+00  0.00000000000E+00  0.40804174146E+03  0.40804174146E+03  0.00000000000E+00 0.  1.
          2   -1    0    0  501    0  0.00000000000E+00 -0.00000000000E+00 -0.22536056389E+04  0.22536056389E+04  0.00000000000E+00 0. -1.
         23    2    1    2    0    0 -0.32476973692E+03  0.14480191420E+03 -0.16277794775E+04  0.16687925947E+04  0.93593377124E+02 0.  0.
        254    2    1    2    0    0  0.32476973692E+03 -0.14480191420E+03 -0.21778441989E+03  0.99285478566E+03  0.90104805392E+03 0.  0.
        -24    2    4    4    0    0  0.30865967213E+03 -0.49120144761E+03 -0.24054953634E+03  0.63265028787E+03  0.76371800859E+02 0.  0.
         24    2    4    4    0    0  0.16110064791E+02  0.34639953342E+03  0.22765116445E+02  0.36020449779E+03  0.94746286263E+02 0.  0.
         11    1    3    3    0    0 -0.37129068344E+02  0.41577056696E+01 -0.80715321829E+02  0.88942776045E+02  0.00000000000E+00 0.  1.
        -11    1    3    3    0    0 -0.28764066858E+03  0.14064420853E+03 -0.15470641557E+04  0.15798498187E+04  0.00000000000E+00 0. -1.
          4    1    6    6  502    0 -0.15948675724E+02  0.58399146460E+01 -0.26791068635E+01  0.17194257007E+02  0.00000000000E+00 0. -1.
          1    1    5    5  503    0  0.27035843255E+02 -0.13416290177E+02 -0.77300427029E+01  0.31155853749E+02  0.00000000000E+00 0. -1.
         -2    1    5    5    0  503  0.28162382888E+03 -0.47778515744E+03 -0.23281949363E+03  0.60149443412E+03  0.00000000000E+00 0.  1.
         -3    1    6    6    0  502  0.32058740515E+02  0.34055961877E+03  0.25444223309E+02  0.34301024078E+03  0.00000000000E+00 0.  1.
<mgrwt>
<rscale>  0 0.19178792E+04</rscale>
<asrwt>0</asrwt>
<pdfrwt beam="1">  1        2 0.34670855E+00 0.19178792E+04</pdfrwt>
<pdfrwt beam="2">  1       -2 0.62775654E-01 0.19178792E+04</pdfrwt>
<totfact> 0.10598546E+01</totfact>
</mgrwt>
</event>
<event>
11    1  0.2404191E-008  0.1741142E+04  0.7818608E-02  0.8738241E-01
          2   -1    0    0  501    0  0.00000000000E+00  0.00000000000E+00  0.12136683958E+04  0.12136683958E+04  0.00000000000E+00 0.  1.
         -2   -1    0    0    0  501 -0.00000000000E+00 -0.00000000000E+00 -0.62446523530E+03  0.62446523530E+03  0.00000000000E+00 0. -1.
         23    2    1    2    0    0  0.28464259695E+03  0.32406061362E+03  0.70849084478E+03  0.83551529464E+03  0.10044820122E+03 0.  0.
        254    2    1    2    0    0 -0.28464259695E+03 -0.32406061362E+03 -0.11928768428E+03  0.10026183365E+04  0.89720526509E+03 0.  0.
        -24    2    4    4    0    0  0.44460125243E+02  0.93434700392E+02  0.28534156690E+03  0.31360519037E+03  0.78877497736E+02 0.  0.
         11    1    3    3    0    0  0.51130155645E+02  0.80299097298E+02  0.23906351174E+03  0.25732003515E+03  0.00000000000E+00 0. -1.
        -11    1    3    3    0    0  0.23351244131E+03  0.24376151632E+03  0.46942733304E+03  0.57819525948E+03  0.00000000000E+00 0.  1.
          4    1    4    4  502    0 -0.20240141904E+02 -0.10961716869E+03 -0.33574294675E+02  0.11641658077E+03  0.00000000000E+00 0. -1.
          3    1    5    5  503    0 -0.21081094754E+02  0.38868315024E+02  0.11223405723E+03  0.12063018723E+03  0.00000000000E+00 0. -1.
         -4    1    5    5    0  503  0.65541219997E+02  0.54566385367E+02  0.17310750967E+03  0.19297500314E+03  0.00000000000E+00 0.  1.
         -3    1    4    4    0  502 -0.30886258029E+03 -0.30787814532E+03 -0.37105495651E+03  0.57259656533E+03  0.00000000000E+00 0.  1.
<mgrwt>
<rscale>  0 0.17411418E+04</rscale>
<asrwt>0</asrwt>
<pdfrwt beam="1">  1        2 0.18671821E+00 0.17411418E+04</pdfrwt>
<pdfrwt beam="2">  1       -2 0.96071575E-01 0.17411418E+04</pdfrwt>
<totfact> 0.16008269E+01</totfact>
</mgrwt>
</event>
<event>
12    1  0.2404191E-008  0.2447106E+04  0.7818608E-02  0.8422075E-01
          1   -1    0    0  501    0  0.00000000000E+00  0.00000000000E+00  0.17681277458E+04  0.17681277458E+04  0.00000000000E+00 0. -1.
         -1   -1    0    0    0  501 -0.00000000000E+00 -0.00000000000E+00 -0.84670489736E+03  0.84670489736E+03  0.00000000000E+00 0.  1.
         23    2    1    2    0    0  0.44694098080E+03  0.48864517899E+03 -0.47962473498E+03  0.82207223666E+03  0.85044250863E+02 0.  0.
        254    2    1    2    0    0 -0.44694098080E+03 -0.48864517899E+03  0.14010475834E+04  0.17927604065E+04  0.90140179324E+03 0.  0.
        -24    2    4    4    0    0 -0.42238024969E+03  0.85680528416E+02  0.98262764586E+03  0.10759154227E+04  0.79313795890E+02 0.  0.
         24    2    4    4    0    0 -0.24560731114E+02 -0.57432570740E+03  0.41841993756E+03  0.71684498376E+03  0.91313957839E+02 0.  0.
         11    1    3    3    0    0  0.25909341824E+03  0.33316494649E+03 -0.27493898490E+03  0.50370599199E+03  0.00000000000E+00 0. -1.
        -11    1    3    3    0    0  0.18784756257E+03  0.15548023250E+03 -0.20468575008E+03  0.31836624467E+03  0.00000000000E+00 0.  1.
          2    1    6    6  502    0 -0.13695669636E+02 -0.47764413593E+03  0.30264619847E+03  0.56562020243E+03  0.00000000000E+00 0. -1.
          3    1    5    5  503    0 -0.22497149166E+03  0.21724345672E+02  0.59027976145E+03  0.63207144851E+03  0.00000000000E+00 0. -1.
         -4    1    5    5    0  503 -0.19740875803E+03  0.63956182744E+02  0.39234788441E+03  0.44384397423E+03  0.00000000000E+00 0.  1.
         -1    1    6    6    0  502 -0.10865061478E+02 -0.96681571478E+02  0.11577373910E+03  0.15122478133E+03  0.00000000000E+00 0.  1.
<mgrwt>
<rscale>  0 0.24471064E+04</rscale>
<asrwt>0</asrwt>
<pdfrwt beam="1">  1        1 0.27201965E+00 0.24471064E+04</pdfrwt>
<pdfrwt beam="2">  1       -1 0.13026229E+00 0.24471064E+04</pdfrwt>
<totfact> 0.19283817E+00</totfact>
</mgrwt>
</event>
<event>
12    1  0.2404191E-008  0.1718400E+04  0.7818608E-02  0.8750939E-01
         -1   -1    0    0    0  501 -0.00000000000E+00  0.00000000000E+00  0.11887694995E+04  0.11887694995E+04  0.00000000000E+00 0.  1.
          1   -1    0    0  501    0  0.00000000000E+00 -0.00000000000E+00 -0.62099914071E+03  0.62099914071E+03  0.00000000000E+00 0. -1.
         23    2    1    2    0    0 -0.15159370505E+03  0.24073214343E+03 -0.37495023248E+03  0.47905008725E+03  0.89267535905E+02 0.  0.
        254    2    1    2    0    0  0.15159370505E+03 -0.24073214343E+03  0.94272059124E+03  0.13307185529E+04  0.89507381687E+03 0.  0.
        -24    2    4    4    0    0  0.27118319689E+03 -0.15574432704E+03  0.10691684743E+04  0.11169269934E+04  0.81289978209E+02 0.  0.
         24    2    4    4    0    0 -0.11958949184E+03 -0.84987816395E+02 -0.12644788303E+03  0.21379155951E+03  0.90516232241E+02 0.  0.
         11    1    3    3    0    0 -0.74367684679E+02  0.12891574341E+03 -0.12419912556E+03  0.19384334968E+03  0.00000000000E+00 0.  1.
        -11    1    3    3    0    0 -0.77226020367E+02  0.11181640002E+03 -0.25075110692E+03  0.28520673758E+03  0.00000000000E+00 0. -1.
          4    1    6    6  502    0 -0.95671333378E+02 -0.68391047355E+02 -0.42677681405E+02  0.12510684985E+03  0.00000000000E+00 0. -1.
          1    1    5    5  503    0  0.13256567456E+03 -0.88760377207E+02  0.67882988065E+03  0.69732493824E+03  0.00000000000E+00 0. -1.
         -2    1    5    5    0  503  0.13861752232E+03 -0.66983949832E+02  0.39033859363E+03  0.41960205517E+03  0.00000000000E+00 0.  1.
         -3    1    6    6    0  502 -0.23918158461E+02 -0.16596769040E+02 -0.83770201626E+02  0.88684709659E+02  0.00000000000E+00 0.  1.
<mgrwt>
<rscale>  0 0.17184002E+04</rscale>
<asrwt>0</asrwt>
<pdfrwt beam="1">  1        1 0.95538329E-01 0.17184002E+04</pdfrwt>
<pdfrwt beam="2">  1       -1 0.18288762E+00 0.17184002E+04</pdfrwt>
<totfact> 0.61408467E+00</totfact>
</mgrwt>
</event>
<event>
11    1  0.2404191E-008  0.1408378E+04  0.7818608E-02  0.8947776E-01
         -2   -1    0    0    0  501 -0.00000000000E+00  0.00000000000E+00  0.26856442867E+03  0.26856442867E+03  0.00000000000E+00 0.  1.
          2   -1    0    0  501    0  0.00000000000E+00 -0.00000000000E+00 -0.18464185008E+04  0.18464185008E+04  0.00000000000E+00 0. -1.
         23    2    1    2    0    0 -0.24078390853E+03  0.24914514632E+03 -0.89224087711E+03  0.96152754827E+03  0.91603759531E+02 0.  0.
        254    2    1    2    0    0  0.24078390853E+03 -0.24914514632E+03 -0.68561319502E+03  0.11534553812E+04  0.86043225690E+03 0.  0.
        -24    2    4    4    0    0  0.35916605501E+03 -0.33701897479E+03 -0.78450518299E+03  0.92966419112E+03  0.79025829165E+02 0.  0.
         13    1    3    3    0    0 -0.11472902319E+03  0.10487697287E+03 -0.52206276873E+03  0.54471227515E+03  0.00000000000E+00 0.  1.
        -13    1    3    3    0    0 -0.12605488533E+03  0.14426817345E+03 -0.37017810838E+03  0.41681527313E+03  0.00000000000E+00 0. -1.
          4    1    4    4  502    0 -0.10729692958E+03  0.99214254902E+02  0.12562290411E+03  0.19271018008E+03  0.00000000000E+00 0. -1.
          1    1    5    5  503    0  0.33920709057E+03 -0.30893938068E+03 -0.75862456328E+03  0.88657555755E+03  0.00000000000E+00 0. -1.
         -2    1    5    5    0  503  0.19958964432E+02 -0.28079594109E+02 -0.25880619715E+02  0.43088633575E+02  0.00000000000E+00 0.  1.
         -3    1    4    4    0  502 -0.11085216903E+02 -0.11340426435E+02 -0.26730916132E+02  0.31081010003E+02  0.00000000000E+00 0.  1.
<mgrwt>
<rscale>  0 0.14083783E+04</rscale>
<asrwt>0</asrwt>
<pdfrwt beam="1">  1        2 0.28406439E+00 0.14083783E+04</pdfrwt>
<pdfrwt beam="2">  1       -2 0.41317604E-01 0.14083783E+04</pdfrwt>
<totfact> 0.43898734E+01</totfact>
</mgrwt>
</event>
<event>
11    1  0.2404191E-008  0.1393643E+04  0.7818608E-02  0.8958433E-01
         -2   -1    0    0    0  501 -0.00000000000E+00  0.00000000000E+00  0.29873577746E+03  0.29873577746E+03  0.00000000000E+00 0.  1.
          2   -1    0    0  501    0  0.00000000000E+00 -0.00000000000E+00 -0.16253830981E+04  0.16253830981E+04  0.00000000000E+00 0. -1.
         23    2    1    2    0    0 -0.14605765145E+03 -0.29431599563E+03 -0.80613153489E+02  0.35011126366E+03  0.90136971304E+02 0.  0.
        254    2    1    2    0    0  0.14605765145E+03  0.29431599563E+03 -0.12460341671E+04  0.15740076119E+04  0.90384958581E+03 0.  0.
        -24    2    4    4    0    0  0.11001812061E+03  0.11827300513E+03 -0.10800619910E+03  0.21008870113E+03  0.79871350886E+02 0.  0.
         11    1    3    3    0    0 -0.74837979550E+02 -0.72404447668E+02 -0.48423170102E+02  0.11483871572E+03  0.00000000000E+00 0. -1.
        -11    1    3    3    0    0 -0.71219671896E+02 -0.22191154796E+03 -0.32189983388E+02  0.23527254794E+03  0.00000000000E+00 0.  1.
          4    1    4    4  502    0 -0.17489614194E+03  0.99783721983E+02 -0.11210386586E+04  0.11389789838E+04  0.00000000000E+00 0. -1.
          1    1    5    5  503    0  0.93495226543E+02  0.44141739956E+02 -0.52070835716E+02  0.11576364941E+03  0.00000000000E+00 0. -1.
         -2    1    5    5    0  503  0.16522894071E+02  0.74131265177E+02 -0.55935363384E+02  0.94325051720E+02  0.00000000000E+00 0.  1.
         -3    1    4    4    0  502  0.21093567277E+03  0.76259268514E+02 -0.16989309476E+02  0.22493992691E+03  0.00000000000E+00 0.  1.
<mgrwt>
<rscale>  0 0.13936428E+04</rscale>
<asrwt>0</asrwt>
<pdfrwt beam="1">  1        2 0.25005893E+00 0.13936428E+04</pdfrwt>
<pdfrwt beam="2">  1       -2 0.45959352E-01 0.13936428E+04</pdfrwt>
<totfact> 0.47169979E+01</totfact>
</mgrwt>
</event>
<event>
12    1  0.2404191E-008  0.1295261E+04  0.7818608E-02  0.9033331E-01
         -1   -1    0    0    0  501 -0.00000000000E+00  0.00000000000E+00  0.26877037911E+03  0.26877037911E+03  0.00000000000E+00 0.  1.
          1   -1    0    0  501    0  0.00000000000E+00 -0.00000000000E+00 -0.15605345916E+04  0.15605345916E+04  0.00000000000E+00 0. -1.
         23    2    1    2    0    0 -0.10054280719E+03 -0.28152364494E+03 -0.50056945956E+03  0.59133632715E+03  0.98713976861E+02 0.  0.
        254    2    1    2    0    0  0.10054280719E+03  0.28152364494E+03 -0.79119475291E+03  0.12379686435E+04  0.90399823375E+03 0.  0.
        -24    2    4    4    0    0 -0.25898699910E+03  0.96129949795E+01  0.52530530418E+02  0.27679142242E+03  0.81776277269E+02 0.  0.
         24    2    4    4    0    0  0.35952980629E+03  0.27191064996E+03 -0.84372528333E+03  0.96117722112E+03  0.93766803799E+02 0.  0.
         11    1    3    3    0    0 -0.29712373005E+02 -0.19934062996E+03 -0.37216434700E+03  0.42323257559E+03  0.00000000000E+00 0. -1.
        -11    1    3    3    0    0 -0.70830434184E+02 -0.82183014972E+02 -0.12840511256E+03  0.16810375156E+03  0.00000000000E+00 0.  1.
          4    1    6    6  502    0  0.76228376287E+02  0.11021753091E+03 -0.23247303347E+03  0.26833259355E+03  0.00000000000E+00 0. -1.
          1    1    5    5  503    0 -0.13971353609E+03 -0.28583297593E+02  0.45656878339E+01  0.14268049121E+03  0.00000000000E+00 0. -1.
         -2    1    5    5    0  503 -0.11927346302E+03  0.38196292572E+02  0.47964842584E+02  0.13411093121E+03  0.00000000000E+00 0.  1.
         -3    1    6    6    0  502  0.28330143001E+03  0.16169311905E+03 -0.61125224986E+03  0.69284462756E+03  0.00000000000E+00 0.  1.
<mgrwt>
<rscale>  0 0.12952613E+04</rscale>
<asrwt>0</asrwt>
<pdfrwt beam="1">  1        1 0.24008224E+00 0.12952613E+04</pdfrwt>
<pdfrwt beam="2">  1       -1 0.41349289E-01 0.12952613E+04</pdfrwt>
<totfact> 0.33455827E+01</totfact>
</mgrwt>
</event>
<event>
12    1  0.2404191E-008  0.4913986E+04  0.7818608E-02  0.7841914E-01
         -1   -1    0    0    0  501 -0.00000000000E+00  0.00000000000E+00  0.17621674040E+04  0.17621674040E+04  0.00000000000E+00 0.  1.
          1   -1    0    0  501    0  0.00000000000E+00 -0.00000000000E+00 -0.34257889366E+04  0.34257889366E+04  0.00000000000E+00 0. -1.
         23    2    1    2    0    0 -0.10382922009E+04  0.10055315422E+04  0.11827012837E+04  0.18698154909E+04  0.91012453091E+02 0.  0.
        254    2    1    2    0    0  0.10382922009E+04 -0.10055315422E+04 -0.28463228163E+04  0.33181408497E+04  0.90518547659E+03 0.  0.
        -24    2    4    4    0    0  0.32904462511E+03  0.12304587540E+03 -0.75471391835E+03  0.83625644459E+03  0.79505281626E+02 0.  0.
         24    2    4    4    0    0  0.70924757579E+03 -0.11285774176E+04 -0.20916088980E+04  0.24818844051E+04  0.90572109592E+02 0.  0.
         13    1    3    3    0    0 -0.58615862210E+03  0.62661782173E+03  0.68227359836E+03  0.10962340479E+04  0.00000000000E+00 0. -1.
        -13    1    3    3    0    0 -0.45213357879E+03  0.37891372047E+03  0.50042768537E+03  0.77358144298E+03  0.00000000000E+00 0.  1.
          2    1    6    6  502    0  0.55387805386E+03 -0.86318382272E+03 -0.16753210759E+04  0.19643237813E+04  0.00000000000E+00 0. -1.
          3    1    5    5  503    0  0.32696249656E+02 -0.40811998425E+01 -0.37713067226E+02  0.50079700212E+02  0.00000000000E+00 0. -1.
         -4    1    5    5    0  503  0.29634837545E+03  0.12712707524E+03 -0.71700085113E+03  0.78617674438E+03  0.00000000000E+00 0.  1.
         -1    1    6    6    0  502  0.15536952192E+03 -0.26539359487E+03 -0.41628782211E+03  0.51756062387E+03  0.00000000000E+00 0.  1.
<mgrwt>
<rscale>  0 0.49139856E+04</rscale>
<asrwt>0</asrwt>
<pdfrwt beam="1">  1        1 0.52704445E+00 0.49139856E+04</pdfrwt>
<pdfrwt beam="2">  1       -1 0.27110268E+00 0.49139856E+04</pdfrwt>
<totfact> 0.10545082E-02</totfact>
</mgrwt>
</event>
<event>
11    1  0.2404191E-008  0.1340555E+04  0.7818608E-02  0.8998009E-01
         -2   -1    0    0    0  501 -0.00000000000E+00  0.00000000000E+00  0.36936528498E+03  0.36936528498E+03  0.00000000000E+00 0.  1.
          2   -1    0    0  501    0  0.00000000000E+00 -0.00000000000E+00 -0.12163343916E+04  0.12163343916E+04  0.00000000000E+00 0. -1.
         23    2    1    2    0    0 -0.21631200430E+03  0.19650065949E+02  0.10271501944E+03  0.25725828917E+03  0.91948049646E+02 0.  0.
        254    2    1    2    0    0  0.21631200430E+03 -0.19650065949E+02 -0.94968412609E+03  0.13284413874E+04  0.90314980608E+03 0.  0.
        -24    2    4    4    0    0  0.16054625034E+03  0.28327376722E+03 -0.12217118327E+02  0.33425849843E+03  0.74567822139E+02 0.  0.
         11    1    3    3    0    0 -0.21637627205E+03  0.35682572037E+02  0.91138264078E+02  0.23748288408E+03  0.00000000000E+00 0.  1.
        -11    1    3    3    0    0  0.64267749897E-01 -0.16032506088E+02  0.11576755358E+02  0.19775405089E+02  0.00000000000E+00 0. -1.
          4    1    4    4  502    0 -0.33977179973E+02 -0.70370769545E+02 -0.16661346915E+03  0.18402864470E+03  0.00000000000E+00 0. -1.
          1    1    5    5  503    0  0.90987795940E+01 -0.21411683060E+00 -0.90530094701E+01  0.12837079753E+02  0.00000000000E+00 0. -1.
         -2    1    5    5    0  503  0.15144747075E+03  0.28348788405E+03 -0.31641088568E+01  0.32142141868E+03  0.00000000000E+00 0.  1.
         -3    1    4    4    0  502  0.89742933929E+02 -0.23255306363E+03 -0.77085353861E+03  0.81015424431E+03  0.00000000000E+00 0.  1.
<mgrwt>
<rscale>  0 0.13405547E+04</rscale>
<asrwt>0</asrwt>
<pdfrwt beam="1">  1        2 0.18712837E+00 0.13405547E+04</pdfrwt>
<pdfrwt beam="2">  1       -2 0.56825427E-01 0.13405547E+04</pdfrwt>
<totfact> 0.52564914E+01</totfact>
</mgrwt>
</event>
<event>
12    1  0.2404191E-008  0.1366180E+04  0.7818608E-02  0.8978669E-01
          2   -1    0    0  501    0  0.00000000000E+00  0.00000000000E+00  0.10746283809E+04  0.10746283809E+04  0.00000000000E+00 0. -1.
         -2   -1    0    0    0  501 -0.00000000000E+00 -0.00000000000E+00 -0.43420800432E+03  0.43420800432E+03  0.00000000000E+00 0.  1.
         23    2    1    2    0    0 -0.21078564251E+03  0.12515864392E+03  0.47554992329E+03  0.54271833715E+03  0.91105382417E+02 0.  0.
        254    2    1    2    0    0  0.21078564251E+03 -0.12515864392E+03  0.16487045331E+03  0.96611804809E+03  0.91984049880E+03 0.  0.
        -24    2    4    4    0    0  0.80664186134E+02  0.37355880203E+03 -0.69599149507E+02  0.39612180720E+03  0.77560009209E+02 0.  0.
         24    2    4    4    0    0  0.13012145638E+03 -0.49871744596E+03  0.23446960281E+03  0.56999624088E+03  0.65337857801E+02 0.  0.
         11    1    3    3    0    0 -0.10245611641E+03  0.54810960744E+02  0.13291020139E+03  0.17654070024E+03  0.00000000000E+00 0.  1.
        -11    1    3    3    0    0 -0.10832952610E+03  0.70347683181E+02  0.34263972190E+03  0.36617763691E+03  0.00000000000E+00 0. -1.
          2    1    6    6  502    0  0.45505920219E+02 -0.30160935135E+03  0.13572170095E+03  0.33385531253E+03  0.00000000000E+00 0. -1.
          1    1    5    5  503    0  0.81580995063E+02  0.20175911675E+03 -0.28643667492E+02  0.21950548885E+03  0.00000000000E+00 0. -1.
         -2    1    5    5    0  503 -0.91680892927E+00  0.17179968528E+03 -0.40955482015E+02  0.17661631835E+03  0.00000000000E+00 0.  1.
         -1    1    6    6    0  502  0.84615536156E+02 -0.19710809461E+03  0.98747901862E+02  0.23614092835E+03  0.00000000000E+00 0.  1.
<mgrwt>
<rscale>  0 0.13661804E+04</rscale>
<asrwt>0</asrwt>
<pdfrwt beam="1">  1        2 0.16532744E+00 0.13661804E+04</pdfrwt>
<pdfrwt beam="2">  1       -2 0.66801231E-01 0.13661804E+04</pdfrwt>
<totfact> 0.45368675E+01</totfact>
</mgrwt>
</event>
<event>
12    1  0.2404191E-008  0.1875063E+04  0.7818608E-02  0.8667370E-01
          2   -1    0    0  501    0  0.00000000000E+00  0.00000000000E+00  0.79413198111E+03  0.79413198111E+03  0.00000000000E+00 0. -1.
         -2   -1    0    0    0  501 -0.00000000000E+00 -0.00000000000E+00 -0.11068250863E+04  0.11068250863E+04  0.00000000000E+00 0.  1.
         23    2    1    2    0    0 -0.98035455198E+02 -0.29520086212E+03  0.53372349188E+03  0.62714903401E+03  0.10816952253E+03 0.  0.
        254    2    1    2    0    0  0.98035455198E+02  0.29520086212E+03 -0.84641659703E+03  0.12738080334E+04  0.89967291317E+03 0.  0.
        -24    2    4    4    0    0 -0.31347331842E+03  0.65643863452E+02 -0.37144177110E+02  0.33197176972E+03  0.79062809358E+02 0.  0.
         24    2    4    4    0    0  0.41150877362E+03  0.22955699867E+03 -0.80927241992E+03  0.94183626366E+03  0.10048786741E+03 0.  0.
         13    1    3    3    0    0  0.23041338330E+02 -0.38530762408E+02  0.87061792175E+02  0.97955492855E+02  0.00000000000E+00 0.  1.
        -13    1    3    3    0    0 -0.12107679353E+03 -0.25667009971E+03  0.44666169970E+03  0.52919354115E+03  0.00000000000E+00 0. -1.
          2    1    6    6  502    0  0.33367399401E+03  0.15394936980E+03 -0.68100955504E+03  0.77382992757E+03  0.00000000000E+00 0. -1.
          1    1    5    5  503    0 -0.18337425405E+03  0.12042799808E+02 -0.50636698108E+02  0.19061799829E+03  0.00000000000E+00 0. -1.
         -2    1    5    5    0  503 -0.13009906437E+03  0.53601063644E+02  0.13492520998E+02  0.14135377143E+03  0.00000000000E+00 0.  1.
         -1    1    6    6    0  502  0.77834779611E+02  0.75607628869E+02 -0.12826286488E+03  0.16800633609E+03  0.00000000000E+00 0.  1.
<mgrwt>
<rscale>  0 0.18750629E+04</rscale>
<asrwt>0</asrwt>
<pdfrwt beam="1">  1        2 0.12217415E+00 0.18750629E+04</pdfrwt>
<pdfrwt beam="2">  1       -2 0.17028078E+00 0.18750629E+04</pdfrwt>
<totfact> 0.69219884E+00</totfact>
</mgrwt>
</event>
<event>
12    1  0.2404191E-008  0.1962662E+04  0.7818608E-02  0.8624279E-01
          2   -1    0    0  501    0  0.00000000000E+00  0.00000000000E+00  0.10777626620E+04  0.10777626620E+04  0.00000000000E+00 0. -1.
         -2   -1    0    0    0  501 -0.00000000000E+00 -0.00000000000E+00 -0.89352715497E+03  0.89352715497E+03  0.00000000000E+00 0.  1.
         23    2    1    2    0    0  0.27599991182E+03 -0.69347013786E+03 -0.11639723269E+03  0.76115099359E+03  0.93411647247E+02 0.  0.
        254    2    1    2    0    0 -0.27599991182E+03  0.69347013786E+03  0.30063273977E+03  0.12101388234E+04  0.90386898625E+03 0.  0.
        -24    2    4    4    0    0  0.30728847937E+03  0.16839702474E+03  0.20713682418E+03  0.41448866709E+03  0.78175595404E+02 0.  0.
         24    2    4    4    0    0 -0.58328839119E+03  0.52507311312E+03  0.93495915585E+02  0.79565015633E+03  0.91600019740E+02 0.  0.
         11    1    3    3    0    0  0.17042787375E+03 -0.48143857017E+03 -0.11849939348E+03  0.52428128257E+03  0.00000000000E+00 0. -1.
        -11    1    3    3    0    0  0.10557203807E+03 -0.21203156768E+03  0.21021607938E+01  0.23686971102E+03  0.00000000000E+00 0.  1.
          2    1    6    6  502    0 -0.24828618404E+03  0.18330132817E+03  0.70235714064E+02  0.31650981284E+03  0.00000000000E+00 0. -1.
          3    1    5    5  503    0  0.26814606418E+03  0.15439802026E+03  0.15008727976E+03  0.34390006098E+03  0.00000000000E+00 0. -1.
         -4    1    5    5    0  503  0.39142415192E+02  0.13999004471E+02  0.57049544423E+02  0.70588606107E+02  0.00000000000E+00 0.  1.
         -1    1    6    6    0  502 -0.33500220715E+03  0.34177178495E+03  0.23260201521E+02  0.47914034349E+03  0.00000000000E+00 0.  1.
<mgrwt>
<rscale>  0 0.19626617E+04</rscale>
<asrwt>0</asrwt>
<pdfrwt beam="1">  1        2 0.16580964E+00 0.19626617E+04</pdfrwt>
<pdfrwt beam="2">  1       -2 0.13746572E+00 0.19626617E+04</pdfrwt>
<totfact> 0.78925116E+00</totfact>
</mgrwt>
</event>
<event>
12    1  0.2404191E-008  0.3151703E+04  0.7818608E-02  0.8201690E-01
         -2   -1    0    0    0  501 -0.00000000000E+00  0.00000000000E+00  0.89715231337E+03  0.89715231337E+03  0.00000000000E+00 0.  1.
          2   -1    0    0  501    0  0.00000000000E+00 -0.00000000000E+00 -0.27679886803E+04  0.27679886803E+04  0.00000000000E+00 0. -1.
         23    2    1    2    0    0 -0.50082154295E+03 -0.51805433937E+03 -0.23142683006E+04  0.24255448025E+04  0.90704495029E+02 0.  0.
        254    2    1    2    0    0  0.50082154295E+03  0.51805433937E+03  0.44343193361E+03  0.12395961912E+04  0.90596044124E+03 0.  0.
        -24    2    4    4    0    0  0.55397675977E+03  0.53277128102E+03  0.64840096449E+03  0.10087439415E+04  0.80031497334E+02 0.  0.
         24    2    4    4    0    0 -0.53155216820E+02 -0.14716941648E+02 -0.20496903088E+03  0.23085224969E+03  0.90765588850E+02 0.  0.
         13    1    3    3    0    0 -0.43836854774E+03 -0.42110951662E+03 -0.20203152258E+04  0.21097805147E+04  0.00000000000E+00 0. -1.
        -13    1    3    3    0    0 -0.62452995212E+02 -0.96944822756E+02 -0.29395307472E+03  0.31576428774E+03  0.00000000000E+00 0.  1.
          2    1    6    6  502    0 -0.69521672860E+00  0.20147750852E+01  0.93411664103E+01  0.95812334722E+01  0.00000000000E+00 0. -1.
          1    1    5    5  503    0  0.25775408806E+03  0.29531710649E+03  0.30222926904E+03  0.49496655883E+03  0.00000000000E+00 0. -1.
         -2    1    5    5    0  503  0.29622267171E+03  0.23745417453E+03  0.34617169545E+03  0.51377738269E+03  0.00000000000E+00 0.  1.
         -1    1    6    6    0  502 -0.52460000092E+02 -0.16731716734E+02 -0.21431019729E+03  0.22127101622E+03  0.00000000000E+00 0.  1.
<mgrwt>
<rscale>  0 0.31517027E+04</rscale>
<asrwt>0</asrwt>
<pdfrwt beam="1">  1        2 0.42584441E+00 0.31517027E+04</pdfrwt>
<pdfrwt beam="2">  1       -2 0.13802343E+00 0.31517027E+04</pdfrwt>
<totfact> 0.76137262E-01</totfact>
</mgrwt>
</event>
<event>
12    1  0.2404191E-008  0.2237199E+04  0.7818608E-02  0.8503102E-01
          1   -1    0    0  501    0  0.00000000000E+00  0.00000000000E+00  0.26923080903E+04  0.26923080903E+04  0.00000000000E+00 0. -1.
         -1   -1    0    0    0  501 -0.00000000000E+00 -0.00000000000E+00 -0.46475563924E+03  0.46475563924E+03  0.00000000000E+00 0.  1.
         23    2    1    2    0    0  0.37656437426E+03 -0.83009275377E+03  0.68309243191E+03  0.11427779452E+04  0.92040500699E+02 0.  0.
        254    2    1    2    0    0 -0.37656437426E+03  0.83009275377E+03  0.15444600192E+04  0.20142857843E+04  0.91713453882E+03 0.  0.
        -24    2    4    4    0    0 -0.42921053181E+03  0.89463401669E+03  0.85417841618E+03  0.13118279561E+04  0.81731972100E+02 0.  0.
         24    2    4    4    0    0  0.52646157548E+02 -0.64541262925E+02  0.69028160301E+03  0.70245782825E+03  0.10010552679E+03 0.  0.
         13    1    3    3    0    0  0.30649103761E+03 -0.74702211637E+03  0.60429859867E+03  0.10085413203E+04  0.00000000000E+00 0.  1.
        -13    1    3    3    0    0  0.70073336647E+02 -0.83070637396E+02  0.78793833231E+02  0.13423662489E+03  0.00000000000E+00 0. -1.
          2    1    6    6  502    0  0.56848629086E+02 -0.21739174045E+02  0.59272717218E+03  0.59584382095E+03  0.00000000000E+00 0. -1.
          1    1    5    5  503    0 -0.30674903177E+03  0.70462976043E+03  0.63400508030E+03  0.99627331070E+03  0.00000000000E+00 0. -1.
         -2    1    5    5    0  503 -0.12246150004E+03  0.19000425626E+03  0.22017333588E+03  0.31555464538E+03  0.00000000000E+00 0.  1.
         -1    1    6    6    0  502 -0.42024715382E+01 -0.42802088880E+02  0.97554430827E+02  0.10661400730E+03  0.00000000000E+00 0.  1.
<mgrwt>
<rscale>  0 0.22371995E+04</rscale>
<asrwt>0</asrwt>
<pdfrwt beam="1">  1        1 0.41420123E+00 0.22371995E+04</pdfrwt>
<pdfrwt beam="2">  1       -1 0.71500870E-01 0.22371995E+04</pdfrwt>
<totfact> 0.17838259E+00</totfact>
</mgrwt>
</event>
<event>
12    1  0.2404191E-008  0.1685907E+04  0.7818608E-02  0.8769443E-01
         -2   -1    0    0    0  501 -0.00000000000E+00  0.00000000000E+00  0.86492751828E+03  0.86492751828E+03  0.00000000000E+00 0.  1.
          2   -1    0    0  501    0  0.00000000000E+00 -0.00000000000E+00 -0.82153766584E+03  0.82153766584E+03  0.00000000000E+00 0. -1.
         23    2    1    2    0    0 -0.22844139754E+03 -0.29695181673E+03  0.47341048502E+03  0.60988550028E+03  0.86469546973E+02 0.  0.
        254    2    1    2    0    0  0.22844139754E+03  0.29695181673E+03 -0.43002063258E+03  0.10765796838E+04  0.91309376170E+03 0.  0.
        -24    2    4    4    0    0  0.12296422320E+03 -0.54527619661E+02 -0.62816388194E+03  0.64720903355E+03  0.78716002447E+02 0.  0.
         24    2    4    4    0    0  0.10547717434E+03  0.35147943639E+03  0.19814324937E+03  0.42937065029E+03  0.10215272656E+03 0.  0.
         11    1    3    3    0    0  0.73057184128E+01 -0.14101993542E+02  0.14409552321E+02  0.21444694949E+02  0.00000000000E+00 0. -1.
        -11    1    3    3    0    0 -0.23574711595E+03 -0.28284982319E+03  0.45900093270E+03  0.58844080533E+03  0.00000000000E+00 0.  1.
          2    1    6    6  502    0  0.20124972819E+02  0.14992092749E+03  0.32104709775E+02  0.15463509116E+03  0.00000000000E+00 0. -1.
          1    1    5    5  503    0  0.59323488279E+00  0.27182409977E+01  0.15371730250E+01  0.31786259070E+01  0.00000000000E+00 0. -1.
         -2    1    5    5    0  503  0.12237098832E+03 -0.57245860658E+02 -0.62970105497E+03  0.64403040765E+03  0.00000000000E+00 0.  1.
         -1    1    6    6    0  502  0.85352201521E+02  0.20155850891E+03  0.16603853959E+03  0.27473555913E+03  0.00000000000E+00 0.  1.
<mgrwt>
<rscale>  0 0.16859069E+04</rscale>
<asrwt>0</asrwt>
<pdfrwt beam="1">  1        2 0.12639041E+00 0.16859069E+04</pdfrwt>
<pdfrwt beam="2">  1       -2 0.13306577E+00 0.16859069E+04</pdfrwt>
<totfact> 0.12958663E+01</totfact>
</mgrwt>
</event>
<event>
11    1  0.2404191E-008  0.1480031E+04  0.7818608E-02  0.8897841E-01
          2   -1    0    0  501    0  0.00000000000E+00  0.00000000000E+00  0.12769093339E+04  0.12769093339E+04  0.00000000000E+00 0. -1.
         -2   -1    0    0    0  501 -0.00000000000E+00 -0.00000000000E+00 -0.42886616771E+03  0.42886616771E+03  0.00000000000E+00 0.  1.
         23    2    1    2    0    0  0.37241793819E+03  0.24984699972E+03  0.34727281457E+03  0.57441113164E+03  0.90725390360E+02 0.  0.
        254    2    1    2    0    0 -0.37241793819E+03 -0.24984699972E+03  0.50077035163E+03  0.11313643700E+04  0.90999766409E+03 0.  0.
        -24    2    4    4    0    0 -0.64039965068E+03 -0.27949507501E+03  0.40068773809E+03  0.80942055550E+03  0.79885935307E+02 0.  0.
         11    1    3    3    0    0  0.24150548230E+03  0.20956832885E+03  0.22709390604E+03  0.39219309607E+03  0.00000000000E+00 0. -1.
        -11    1    3    3    0    0  0.13091245589E+03  0.40278670873E+02  0.12017890853E+03  0.18221803558E+03  0.00000000000E+00 0.  1.
          2    1    4    4  502    0  0.16107535748E+03  0.87056549916E+02  0.44234716595E+02  0.18836354165E+03  0.00000000000E+00 0. -1.
          3    1    5    5  503    0 -0.38901609939E+03 -0.19858575268E+03  0.28195539132E+03  0.51987370529E+03  0.00000000000E+00 0. -1.
         -4    1    5    5    0  503 -0.25138355128E+03 -0.80909322329E+02  0.11873234678E+03  0.28954685021E+03  0.00000000000E+00 0.  1.
         -3    1    4    4    0  502  0.10690635500E+03 -0.57408474629E+02  0.55847896945E+02  0.13358027284E+03  0.00000000000E+00 0.  1.
<mgrwt>
<rscale>  0 0.14800314E+04</rscale>
<asrwt>0</asrwt>
<pdfrwt beam="1">  1        2 0.19644759E+00 0.14800314E+04</pdfrwt>
<pdfrwt beam="2">  1       -2 0.65979411E-01 0.14800314E+04</pdfrwt>
<totfact> 0.34883614E+01</totfact>
</mgrwt>
</event>
<event>
12    1  0.2404191E-008  0.1973679E+04  0.7818608E-02  0.8619026E-01
         -2   -1    0    0    0  501 -0.00000000000E+00  0.00000000000E+00  0.77103330176E+03  0.77103330176E+03  0.00000000000E+00 0.  1.
          2   -1    0    0  501    0  0.00000000000E+00 -0.00000000000E+00 -0.12630481171E+04  0.12630481171E+04  0.00000000000E+00 0. -1.
         23    2    1    2    0    0  0.50622845125E+03  0.57330953421E+03 -0.33610674850E+03  0.84058887325E+03  0.93117348410E+02 0.  0.
        254    2    1    2    0    0 -0.50622845125E+03 -0.57330953421E+03 -0.15590806679E+03  0.11934925456E+04  0.90286547401E+03 0.  0.
        -24    2    4    4    0    0 -0.15338461329E+03 -0.43607426174E+03 -0.49411488332E+03  0.68134992062E+03  0.80003719077E+02 0.  0.
         24    2    4    4    0    0 -0.35284383796E+03 -0.13723527247E+03  0.33820681653E+03  0.51214262494E+03  0.67630788403E+02 0.  0.
         13    1    3    3    0    0  0.17602969927E+02  0.45004393525E+02 -0.54450502895E+01  0.48630325513E+02  0.00000000000E+00 0.  1.
        -13    1    3    3    0    0  0.48862548133E+03  0.52830514069E+03 -0.33066169821E+03  0.79195854774E+03  0.00000000000E+00 0. -1.
          2    1    6    6  502    0 -0.12257187835E+02 -0.14463046625E+02  0.38872526631E+01  0.19352754444E+02  0.00000000000E+00 0. -1.
          1    1    5    5  503    0 -0.11005103181E+03 -0.20854776151E+03 -0.22014777324E+03  0.32259640497E+03  0.00000000000E+00 0. -1.
         -4    1    5    5    0  503 -0.43333581478E+02 -0.22752650023E+03 -0.27396711008E+03  0.35875351565E+03  0.00000000000E+00 0.  1.
         -1    1    6    6    0  502 -0.34058665013E+03 -0.12277222585E+03  0.33431956386E+03  0.49278987050E+03  0.00000000000E+00 0.  1.
<mgrwt>
<rscale>  0 0.19736790E+04</rscale>
<asrwt>0</asrwt>
<pdfrwt beam="1">  1        2 0.19431509E+00 0.19736790E+04</pdfrwt>
<pdfrwt beam="2">  1       -2 0.11862051E+00 0.19736790E+04</pdfrwt>
<totfact> 0.88428069E+00</totfact>
</mgrwt>
</event>
<event>
12    1  0.2404191E-008  0.2767853E+04  0.7818608E-02  0.8313319E-01
         -2   -1    0    0    0  501 -0.00000000000E+00  0.00000000000E+00  0.12243149947E+04  0.12243149947E+04  0.00000000000E+00 0.  1.
          2   -1    0    0  501    0  0.00000000000E+00 -0.00000000000E+00 -0.15643458336E+04  0.15643458336E+04  0.00000000000E+00 0. -1.
         23    2    1    2    0    0 -0.29689898019E+03 -0.91814174700E+03  0.62665858383E+03  0.11542178740E+04  0.91567722768E+02 0.  0.
        254    2    1    2    0    0  0.29689898019E+03  0.91814174700E+03 -0.96668942272E+03  0.16344429544E+04  0.89765364102E+03 0.  0.
        -24    2    4    4    0    0  0.37457081862E+03  0.76310444277E+03 -0.11002303669E+04  0.13925943209E+04  0.78615479432E+02 0.  0.
         24    2    4    4    0    0 -0.77671838428E+02  0.15503730423E+03  0.13354094415E+03  0.24184863355E+03  0.10289848199E+03 0.  0.
         13    1    3    3    0    0 -0.60776475668E+02 -0.16462070587E+03  0.15694330333E+03  0.23542505656E+03  0.00000000000E+00 0. -1.
        -13    1    3    3    0    0 -0.23612250452E+03 -0.75352104113E+03  0.46971528051E+03  0.91879281740E+03  0.00000000000E+00 0.  1.
          2    1    6    6  502    0 -0.20361042354E+02  0.41020071191E+02 -0.12929687256E+02  0.47585660642E+02  0.00000000000E+00 0. -1.
          1    1    5    5  503    0  0.55317662205E+02  0.92597534786E+02 -0.18295841720E+03  0.21238674540E+03  0.00000000000E+00 0. -1.
         -2    1    5    5    0  503  0.31925315641E+03  0.67050690798E+03 -0.91727194968E+03  0.11802075755E+04  0.00000000000E+00 0.  1.
         -1    1    6    6    0  502 -0.57310796075E+02  0.11401723304E+03  0.14647063141E+03  0.19426297291E+03  0.00000000000E+00 0.  1.
<mgrwt>
<rscale>  0 0.27678526E+04</rscale>
<asrwt>0</asrwt>
<pdfrwt beam="1">  1        2 0.24066859E+00 0.27678526E+04</pdfrwt>
<pdfrwt beam="2">  1       -2 0.18835615E+00 0.27678526E+04</pdfrwt>
<totfact> 0.16200930E+00</totfact>
</mgrwt>
</event>
<event>
12    1  0.4445578E-008  0.2328279E+04  0.7818608E-02  0.8466854E-01
         -1   -1    0    0    0  501 -0.00000000000E+00  0.00000000000E+00  0.13209355155E+04  0.13209355155E+04  0.00000000000E+00 0.  1.
          1   -1    0    0  501    0  0.00000000000E+00 -0.00000000000E+00 -0.10259549564E+04  0.10259549564E+04  0.00000000000E+00 0. -1.
         23    2    1    2    0    0 -0.26420034132E+03  0.87143709213E+03  0.51508612785E+03  0.10500895494E+04  0.90387592147E+02 0.  0.
        254    2    1    2    0    0  0.26420034132E+03 -0.87143709213E+03 -0.22010556873E+03  0.12968009224E+04  0.89668374869E+03 0.  0.
        -24    2    4    4    0    0 -0.69582054858E+02 -0.18486840242E+03 -0.44716730615E+03  0.49519438486E+03  0.78999307137E+02 0.  0.
         24    2    4    4    0    0  0.33378239618E+03 -0.68656868971E+03  0.22706173742E+03  0.80160653759E+03  0.90712484361E+02 0.  0.
         11    1    3    3    0    0  0.36320377042E+01  0.43461744594E+02  0.36995551053E+02  0.57190783688E+02  0.00000000000E+00 0. -1.
        -11    1    3    3    0    0 -0.26783237902E+03  0.82797534753E+03  0.47809057680E+03  0.99289876574E+03  0.00000000000E+00 0.  1.
          2    1    6    6  502    0  0.28512710550E+03 -0.62986584631E+03  0.22418841111E+03  0.72683484666E+03  0.00000000000E+00 0. -1.
          1    1    5    5  503    0 -0.37372090718E+02 -0.13971709030E+03 -0.38808278927E+03  0.41415672132E+03  0.00000000000E+00 0. -1.
         -2    1    5    5    0  503 -0.32209964140E+02 -0.45151312121E+02 -0.59084516886E+02  0.81037663538E+02  0.00000000000E+00 0.  1.
         -1    1    6    6    0  502  0.48655290679E+02 -0.56702843392E+02  0.28733263049E+01  0.74771690926E+02  0.00000000000E+00 0.  1.
<mgrwt>
<rscale>  0 0.23282786E+04</rscale>
<asrwt>0</asrwt>
<pdfrwt beam="1">  1        1 0.15783922E+00 0.23282786E+04</pdfrwt>
<pdfrwt beam="2">  1       -1 0.20322085E+00 0.23282786E+04</pdfrwt>
<totfact> 0.18624053E+00</totfact>
</mgrwt>
</event>
<event>
11    1  0.2404191E-008  0.1200278E+04  0.7818608E-02  0.9112613E-01
          1   -1    0    0  501    0  0.00000000000E+00  0.00000000000E+00  0.16448477426E+04  0.16448477426E+04  0.00000000000E+00 0. -1.
         -1   -1    0    0    0  501 -0.00000000000E+00 -0.00000000000E+00 -0.21896668493E+03  0.21896668493E+03  0.00000000000E+00 0.  1.
         23    2    1    2    0    0 -0.95018873170E+02  0.59770543202E+02 -0.31081315534E+02  0.14762293011E+03  0.90693865422E+02 0.  0.
        254    2    1    2    0    0  0.95018873170E+02 -0.59770543202E+02  0.14569623732E+04  0.17161914974E+04  0.89998488586E+03 0.  0.
        -24    2    4    4    0    0  0.25235202756E+03 -0.11029517199E+03  0.47696095508E+02  0.28849950627E+03  0.71487599015E+02 0.  0.
         11    1    3    3    0    0 -0.66919539809E+02  0.67247578092E+02 -0.55273244152E+02  0.10979796486E+03  0.00000000000E+00 0.  1.
        -11    1    3    3    0    0 -0.28099333361E+02 -0.74770348894E+01  0.24191928618E+02  0.37824965252E+02  0.00000000000E+00 0. -1.
          4    1    4    4  502    0 -0.16223005052E+03  0.86353427329E+02  0.12911522584E+04  0.13041662693E+04  0.00000000000E+00 0. -1.
          3    1    5    5  503    0  0.23103405099E+03 -0.12081011361E+03  0.45129809837E+02  0.26459122435E+03  0.00000000000E+00 0. -1.
         -4    1    5    5    0  503  0.21317976568E+02  0.10514941616E+02  0.25662856710E+01  0.23908281918E+02  0.00000000000E+00 0.  1.
         -3    1    4    4    0  502  0.48968961368E+01 -0.35828798538E+02  0.11811401924E+03  0.12352572176E+03  0.00000000000E+00 0.  1.
<mgrwt>
<rscale>  0 0.12002781E+04</rscale>
<asrwt>0</asrwt>
<pdfrwt beam="1">  1        1 0.25305349E+00 0.12002781E+04</pdfrwt>
<pdfrwt beam="2">  1       -1 0.33687183E-01 0.12002781E+04</pdfrwt>
<totfact> 0.42757940E+01</totfact>
</mgrwt>
</event>
<event>
11    1  0.2404191E-008  0.1185680E+04  0.7818608E-02  0.9125484E-01
          2   -1    0    0  501    0  0.00000000000E+00  0.00000000000E+00  0.13769116613E+04  0.13769116613E+04  0.00000000000E+00 0. -1.
         -2   -1    0    0    0  501 -0.00000000000E+00 -0.00000000000E+00 -0.25525181857E+03  0.25525181857E+03  0.00000000000E+00 0.  1.
         23    2    1    2    0    0 -0.24488871209E+02  0.55035262607E+02  0.62593410800E+03  0.63525304531E+03  0.90135115641E+02 0.  0.
        254    2    1    2    0    0  0.24488871209E+02 -0.55035262607E+02  0.49572573478E+03  0.99691043461E+03  0.86281969471E+03 0.  0.
        -24    2    4    4    0    0 -0.11042763262E+03  0.23535354892E+03 -0.10816650510E+03  0.29295957401E+03  0.80868808215E+02 0.  0.
         11    1    3    3    0    0 -0.52389867351E+02  0.48494094397E+02  0.53924522891E+03  0.54395017446E+03  0.00000000000E+00 0. -1.
        -11    1    3    3    0    0  0.27900996141E+02  0.65411682096E+01  0.86688879090E+02  0.91302870848E+02  0.00000000000E+00 0.  1.
          4    1    4    4  502    0  0.55542502486E+02 -0.27116759423E+03  0.42351093387E+03  0.50594302531E+03  0.00000000000E+00 0. -1.
          3    1    5    5  503    0 -0.76669446416E+02  0.22378742390E+03 -0.95134930718E+02  0.25496993970E+03  0.00000000000E+00 0. -1.
         -2    1    5    5    0  503 -0.33758186204E+02  0.11566125021E+02 -0.13031574384E+02  0.37989634306E+02  0.00000000000E+00 0.  1.
         -1    1    4    4    0  502  0.79374001343E+02 -0.19221217296E+02  0.18038130600E+03  0.19800783530E+03  0.00000000000E+00 0.  1.
<mgrwt>
<rscale>  0 0.11856799E+04</rscale>
<asrwt>0</asrwt>
<pdfrwt beam="1">  1        2 0.21183256E+00 0.11856799E+04</pdfrwt>
<pdfrwt beam="2">  1       -2 0.39269511E-01 0.11856799E+04</pdfrwt>
<totfact> 0.90288664E+01</totfact>
</mgrwt>
</event>
<event>
11    1  0.2404191E-008  0.2545371E+04  0.7818608E-02  0.8386998E-01
         -1   -1    0    0    0  501 -0.00000000000E+00  0.00000000000E+00  0.71086059734E+03  0.71086059734E+03  0.00000000000E+00 0.  1.
          1   -1    0    0  501    0  0.00000000000E+00 -0.00000000000E+00 -0.22785461203E+04  0.22785461203E+04  0.00000000000E+00 0. -1.
         23    2    1    2    0    0 -0.47245843122E+03 -0.28287797153E+02  0.49457831089E+03  0.69056144784E+03  0.90830825914E+02 0.  0.
        254    2    1    2    0    0  0.47245843122E+03  0.28287797153E+02 -0.20622638339E+04  0.22988452698E+04  0.89874372618E+03 0.  0.
        -24    2    4    4    0    0  0.61815198245E+03  0.24412026140E+03 -0.17422406796E+04  0.18664038786E+04  0.79713719739E+02 0.  0.
         11    1    3    3    0    0 -0.41750547141E+03 -0.29452440039E+01  0.45847136394E+03  0.62009312581E+03  0.00000000000E+00 0.  1.
        -11    1    3    3    0    0 -0.54952959805E+02 -0.25342553149E+02  0.36106946959E+02  0.70468322032E+02  0.00000000000E+00 0. -1.
          2    1    4    4  502    0 -0.15090766901E+03 -0.17504843890E+03 -0.20023253473E+03  0.30579102094E+03  0.00000000000E+00 0. -1.
          1    1    5    5  503    0  0.38039106221E+03  0.10930893986E+03 -0.10044977762E+04  0.10796580880E+04  0.00000000000E+00 0. -1.
         -2    1    5    5    0  503  0.23776092023E+03  0.13481132154E+03 -0.73774290336E+03  0.78674579062E+03  0.00000000000E+00 0.  1.
         -1    1    4    4    0  502  0.52141177811E+01 -0.40784025354E+02 -0.11979061957E+03  0.12665037025E+03  0.00000000000E+00 0.  1.
<mgrwt>
<rscale>  0 0.25453712E+04</rscale>
<asrwt>0</asrwt>
<pdfrwt beam="1">  1        1 0.35054556E+00 0.25453712E+04</pdfrwt>
<pdfrwt beam="2">  1       -1 0.10936317E+00 0.25453712E+04</pdfrwt>
<totfact> 0.13177824E+00</totfact>
</mgrwt>
</event>
<event>
12    1  0.2404191E-008  0.2665273E+04  0.7818608E-02  0.8346361E-01
         -2   -1    0    0    0  501 -0.00000000000E+00  0.00000000000E+00  0.14799885033E+04  0.14799885033E+04  0.00000000000E+00 0.  1.
          2   -1    0    0  501    0  0.00000000000E+00 -0.00000000000E+00 -0.11999554489E+04  0.11999554489E+04  0.00000000000E+00 0. -1.
         23    2    1    2    0    0 -0.91243748741E+03 -0.74425913558E+03  0.95305265175E+02  0.11839750436E+04  0.79056821456E+02 0.  0.
        254    2    1    2    0    0  0.91243748741E+03  0.74425913558E+03  0.18472778928E+03  0.14959689086E+04  0.90406570007E+03 0.  0.
        -24    2    4    4    0    0  0.27819892198E+03  0.26973945405E+03  0.49911807300E+03  0.63658594093E+03  0.77257984234E+02 0.  0.
         24    2    4    4    0    0  0.63423856543E+03  0.47451968153E+03 -0.31439028372E+03  0.85938296767E+03  0.11077160555E+03 0.  0.
         11    1    3    3    0    0 -0.11904328783E+03 -0.86962490806E+02 -0.13023999396E+02  0.14799798561E+03  0.00000000000E+00 0.  1.
        -11    1    3    3    0    0 -0.79339419958E+03 -0.65729664478E+03  0.10832926457E+03  0.10359770580E+04  0.00000000000E+00 0. -1.
          4    1    6    6  502    0  0.58293896747E+03  0.40645416195E+03 -0.25299468595E+03  0.75434019956E+03  0.00000000000E+00 0. -1.
          1    1    5    5  503    0  0.20605390586E+03  0.21442790910E+03  0.32747004042E+03  0.44235072928E+03  0.00000000000E+00 0. -1.
         -2    1    5    5    0  503  0.72145016127E+02  0.55311544953E+02  0.17164803257E+03  0.19423521165E+03  0.00000000000E+00 0.  1.
         -3    1    6    6    0  502  0.51299597954E+02  0.68065519584E+02 -0.61395597768E+02  0.10504276811E+03  0.00000000000E+00 0.  1.
<mgrwt>
<rscale>  0 0.26652732E+04</rscale>
<asrwt>0</asrwt>
<pdfrwt beam="1">  1        2 0.18460853E+00 0.26652732E+04</pdfrwt>
<pdfrwt beam="2">  1       -2 0.22769054E+00 0.26652732E+04</pdfrwt>
<totfact> 0.14731115E+00</totfact>
</mgrwt>
</event>
<event>
11    1  0.2404191E-008  0.1853476E+04  0.7818608E-02  0.8678367E-01
         -2   -1    0    0    0  501 -0.00000000000E+00  0.00000000000E+00  0.38990960518E+04  0.38990960518E+04  0.00000000000E+00 0.  1.
          2   -1    0    0  501    0  0.00000000000E+00 -0.00000000000E+00 -0.22026739884E+03  0.22026739884E+03  0.00000000000E+00 0. -1.
         23    2    1    2    0    0  0.43479056959E+03 -0.17493996994E+03  0.23026612032E+03  0.53028996014E+03  0.92401965164E+02 0.  0.
        254    2    1    2    0    0 -0.43479056959E+03  0.17493996994E+03  0.34485625326E+04  0.35890734905E+04  0.87705082302E+03 0.  0.
        -24    2    4    4    0    0  0.34084104264E+00 -0.32700189347E+00 -0.13410440615E+02  0.81236015070E+02  0.80120079407E+02 0.  0.
         13    1    3    3    0    0  0.36640873081E+03 -0.11632842211E+03  0.16150736865E+03  0.41697996347E+03  0.00000000000E+00 0. -1.
        -13    1    3    3    0    0  0.68381838778E+02 -0.58611547825E+02  0.68758751670E+02  0.11330999667E+03  0.00000000000E+00 0.  1.
          4    1    4    4  502    0 -0.44295485805E+02  0.12664417069E+03  0.43145855763E+03  0.45183771753E+03  0.00000000000E+00 0. -1.
          3    1    5    5  503    0 -0.10301261283E+02 -0.17331848970E+02  0.28419244453E+02  0.34844833592E+02  0.00000000000E+00 0. -1.
         -4    1    5    5    0  503  0.10642102326E+02  0.17004847077E+02 -0.41829685069E+02  0.46391181478E+02  0.00000000000E+00 0.  1.
         -3    1    4    4    0  502 -0.39083592483E+03  0.48622801141E+02  0.30305144156E+04  0.30559997579E+04  0.00000000000E+00 0.  1.
<mgrwt>
<rscale>  0 0.18534765E+04</rscale>
<asrwt>0</asrwt>
<pdfrwt beam="1">  1        2 0.33887295E-01 0.18534765E+04</pdfrwt>
<pdfrwt beam="2">  1       -2 0.59986088E+00 0.18534765E+04</pdfrwt>
<totfact> 0.72557533E-02</totfact>
</mgrwt>
</event>
<event>
11    1  0.2404191E-008  0.1199416E+04  0.7818608E-02  0.9113368E-01
         -4   -1    0    0    0  501 -0.00000000000E+00  0.00000000000E+00  0.49664019973E+03  0.49664019973E+03  0.00000000000E+00 0.  1.
          4   -1    0    0  501    0  0.00000000000E+00 -0.00000000000E+00 -0.72416574200E+03  0.72416574200E+03  0.00000000000E+00 0. -1.
         23    2    1    2    0    0 -0.11147435362E+03 -0.23377384735E+03 -0.94610002922E+02  0.29025527533E+03  0.90666029935E+02 0.  0.
        254    2    1    2    0    0  0.11147435362E+03  0.23377384735E+03 -0.13291553935E+03  0.93055066639E+03  0.88384458979E+03 0.  0.
        -24    2    4    4    0    0  0.37151272038E+03  0.38523928209E+03 -0.22274213401E+03  0.58512681220E+03  0.79550752444E+02 0.  0.
         13    1    3    3    0    0 -0.97632606510E+02 -0.17418930539E+03 -0.10888260197E+03  0.22744111541E+03  0.00000000000E+00 0. -1.
        -13    1    3    3    0    0 -0.13841747114E+02 -0.59584541960E+02  0.14272599044E+02  0.62814159926E+02  0.00000000000E+00 0.  1.
          4    1    4    4  502    0 -0.89878914821E+02 -0.11328967463E+03  0.91312021444E+02  0.17102822857E+03  0.00000000000E+00 0. -1.
          1    1    5    5  503    0  0.29577047246E+03  0.25757104146E+03 -0.17184484309E+03  0.42819815959E+03  0.00000000000E+00 0. -1.
         -2    1    5    5    0  503  0.75742247921E+02  0.12766824063E+03 -0.50897290923E+02  0.15692865261E+03  0.00000000000E+00 0.  1.
         -3    1    4    4    0  502 -0.17015945194E+03 -0.38175760103E+02 -0.14854267775E+01  0.17439562562E+03  0.00000000000E+00 0.  1.
<mgrwt>
<rscale>  0 0.11994162E+04</rscale>
<asrwt>0</asrwt>
<pdfrwt beam="1">  1        4 0.11141011E+00 0.11994162E+04</pdfrwt>
<pdfrwt beam="2">  1       -4 0.76406184E-01 0.11994162E+04</pdfrwt>
<totfact> 0.19260354E+00</totfact>
</mgrwt>
</event>
<event>
12    1  0.2404191E-008  0.1920425E+04  0.7818608E-02  0.8644756E-01
         -1   -1    0    0    0  501 -0.00000000000E+00  0.00000000000E+00  0.42649216945E+03  0.42649216945E+03  0.00000000000E+00 0.  1.
          1   -1    0    0  501    0  0.00000000000E+00 -0.00000000000E+00 -0.21618397476E+04  0.21618397476E+04  0.00000000000E+00 0. -1.
         23    2    1    2    0    0  0.22335453105E+03  0.43833893294E+03 -0.14407964372E+04  0.15256276084E+04  0.98066097275E+02 0.  0.
        254    2    1    2    0    0 -0.22335453105E+03 -0.43833893294E+03 -0.29455114099E+03  0.10627043087E+04  0.89473560694E+03 0.  0.
        -24    2    4    4    0    0  0.99113928914E+02 -0.55818251514E+03 -0.39185360822E+03  0.69374671543E+03  0.79649003655E+02 0.  0.
         24    2    4    4    0    0 -0.32246845996E+03  0.11984358219E+03  0.97302467233E+02  0.36895759324E+03  0.91178635744E+02 0.  0.
         11    1    3    3    0    0  0.20074688853E+03  0.38750997457E+03 -0.13534309026E+04  0.14220543245E+04  0.00000000000E+00 0. -1.
        -11    1    3    3    0    0  0.22607642521E+02  0.50828958371E+02 -0.87365534574E+02  0.10357328391E+03  0.00000000000E+00 0.  1.
          4    1    6    6  502    0 -0.31418485133E+03  0.94869873478E+02  0.81135639614E+02  0.33807603541E+03  0.00000000000E+00 0. -1.
          3    1    5    5  503    0  0.54294932893E+02 -0.27343234605E+03 -0.24047625918E+03  0.36816031675E+03  0.00000000000E+00 0. -1.
         -4    1    5    5    0  503  0.44818996021E+02 -0.28475016909E+03 -0.15137734905E+03  0.32558639868E+03  0.00000000000E+00 0.  1.
         -3    1    6    6    0  502 -0.82836086288E+01  0.24973708715E+02  0.16166827619E+02  0.30881557832E+02  0.00000000000E+00 0.  1.
<mgrwt>
<rscale>  0 0.19204247E+04</rscale>
<asrwt>0</asrwt>
<pdfrwt beam="1">  1        1 0.33259074E+00 0.19204247E+04</pdfrwt>
<pdfrwt beam="2">  1       -1 0.65614179E-01 0.19204247E+04</pdfrwt>
<totfact> 0.50871889E+00</totfact>
</mgrwt>
</event>
<event>
12    1  0.2404191E-008  0.1562225E+04  0.7818608E-02  0.8844097E-01
          1   -1    0    0  501    0  0.00000000000E+00  0.00000000000E+00  0.22788367392E+04  0.22788367392E+04  0.00000000000E+00 0. -1.
         -1   -1    0    0    0  501 -0.00000000000E+00 -0.00000000000E+00 -0.26774032399E+03  0.26774032399E+03  0.00000000000E+00 0.  1.
         23    2    1    2    0    0 -0.21870882499E+03 -0.92874337330E+01  0.14485438870E+04  0.14679461293E+04  0.93094787645E+02 0.  0.
        254    2    1    2    0    0  0.21870882499E+03  0.92874337330E+01  0.56255252820E+03  0.10786309339E+04  0.89390130212E+03 0.  0.
        -24    2    4    4    0    0  0.39152292751E+03 -0.66549916133E+02 -0.68685146729E+02  0.41109245457E+03  0.80995448747E+02 0.  0.
         24    2    4    4    0    0 -0.17281410252E+03  0.75837349866E+02  0.63123767493E+03  0.66753847929E+03  0.10738063801E+03 0.  0.
         11    1    3    3    0    0 -0.31342993659E+02 -0.64282021946E+01  0.50278160049E+03  0.50379861336E+03  0.00000000000E+00 0.  1.
        -11    1    3    3    0    0 -0.18736583133E+03 -0.28592315383E+01  0.94576228652E+03  0.96414751598E+03  0.00000000000E+00 0. -1.
          2    1    6    6  502    0 -0.14500922707E+03  0.74898022318E+02  0.36471592989E+03  0.39956864141E+03  0.00000000000E+00 0. -1.
          1    1    5    5  503    0  0.31344123314E+03 -0.35003339015E+02 -0.81895653507E+02  0.32584895034E+03  0.00000000000E+00 0. -1.
         -2    1    5    5    0  503  0.78081694368E+02 -0.31546577118E+02  0.13210506778E+02  0.85243504225E+02  0.00000000000E+00 0.  1.
         -1    1    6    6    0  502 -0.27804875446E+02  0.93932754786E+00  0.26652174503E+03  0.26796983787E+03  0.00000000000E+00 0.  1.
<mgrwt>
<rscale>  0 0.15622247E+04</rscale>
<asrwt>0</asrwt>
<pdfrwt beam="1">  1        1 0.35059025E+00 0.15622247E+04</pdfrwt>
<pdfrwt beam="2">  1       -1 0.41190821E-01 0.15622247E+04</pdfrwt>
<totfact> 0.10703181E+01</totfact>
</mgrwt>
</event>
<event>
12    1  0.2404191E-008  0.2324179E+04  0.7818608E-02  0.8468448E-01
          2   -1    0    0  501    0  0.00000000000E+00  0.00000000000E+00  0.20371247517E+04  0.20371247517E+04  0.00000000000E+00 0. -1.
         -2   -1    0    0    0  501 -0.00000000000E+00 -0.00000000000E+00 -0.66292090123E+03  0.66292090123E+03  0.00000000000E+00 0.  1.
         23    2    1    2    0    0 -0.67107793186E+03 -0.17457773842E+03  0.13959135861E+04  0.15613372787E+04  0.91522569653E+02 0.  0.
        254    2    1    2    0    0  0.67107793186E+03  0.17457773842E+03 -0.21709735674E+02  0.11387083741E+04  0.90297423624E+03 0.  0.
        -24    2    4    4    0    0  0.41734951206E+03 -0.32518562102E+03  0.12918067713E+03  0.55000277558E+03  0.76740487814E+02 0.  0.
         24    2    4    4    0    0  0.25372841980E+03  0.49976335944E+03 -0.15089041281E+03  0.58870559856E+03  0.98309911209E+02 0.  0.
         11    1    3    3    0    0 -0.21119460222E+03 -0.40995683875E+02  0.34711737267E+03  0.40838006380E+03  0.00000000000E+00 0.  1.
        -11    1    3    3    0    0 -0.45988332965E+03 -0.13358205454E+03  0.10487962134E+04  0.11529572149E+04  0.00000000000E+00 0. -1.
          2    1    6    6  502    0  0.25094661712E+03  0.50410663583E+03 -0.15232337949E+03  0.58335248082E+03  0.00000000000E+00 0. -1.
          1    1    5    5  503    0  0.37834278043E+03 -0.28657358669E+03  0.13830468701E+03  0.49436410321E+03  0.00000000000E+00 0. -1.
         -2    1    5    5    0  503  0.39006731630E+02 -0.38612034329E+02 -0.91240098747E+01  0.55638672376E+02  0.00000000000E+00 0.  1.
         -1    1    6    6    0  502  0.27818026795E+01 -0.43432763969E+01  0.14329666806E+01  0.53531177378E+01  0.00000000000E+00 0.  1.
<mgrwt>
<rscale>  0 0.23241795E+04</rscale>
<asrwt>0</asrwt>
<pdfrwt beam="1">  1        2 0.31340381E+00 0.23241795E+04</pdfrwt>
<pdfrwt beam="2">  1       -2 0.10198783E+00 0.23241795E+04</pdfrwt>
<totfact> 0.45428505E+00</totfact>
</mgrwt>
</event>
<event>
11    1  0.2404191E-008  0.1539962E+04  0.7818608E-02  0.8858305E-01
         -2   -1    0    0    0  501 -0.00000000000E+00  0.00000000000E+00  0.17979384678E+03  0.17979384678E+03  0.00000000000E+00 0.  1.
          2   -1    0    0  501    0  0.00000000000E+00 -0.00000000000E+00 -0.32975036753E+04  0.32975036753E+04  0.00000000000E+00 0. -1.
         23    2    1    2    0    0  0.31835803832E+03  0.25943442321E+03 -0.16904250611E+04  0.17419841511E+04  0.91180233544E+02 0.  0.
        254    2    1    2    0    0 -0.31835803832E+03 -0.25943442321E+03 -0.14272847675E+04  0.17353133710E+04  0.89750355302E+03 0.  0.
        -24    2    4    4    0    0 -0.13539521383E+03  0.32374979190E+03 -0.55223174548E+03  0.65904701821E+03  0.78976450982E+02 0.  0.
         13    1    3    3    0    0  0.16961459060E+03  0.16036556345E+03 -0.11260412539E+04  0.11499804906E+04  0.00000000000E+00 0. -1.
        -13    1    3    3    0    0  0.14874344772E+03  0.99068859761E+02 -0.56438380717E+03  0.59200366047E+03  0.00000000000E+00 0.  1.
          2    1    4    4  502    0 -0.17341000582E+03 -0.33084667332E+03 -0.49989881234E+03  0.62404276612E+03  0.00000000000E+00 0. -1.
          1    1    5    5  503    0 -0.27873040691E+02  0.15014318688E+03 -0.19639545742E+03  0.24877913631E+03  0.00000000000E+00 0. -1.
         -2    1    5    5    0  503 -0.10752217314E+03  0.17360660502E+03 -0.35583628806E+03  0.41026788190E+03  0.00000000000E+00 0.  1.
         -1    1    4    4    0  502 -0.95528186729E+01 -0.25233754180E+03 -0.37515420966E+03  0.45222358671E+03  0.00000000000E+00 0.  1.
<mgrwt>
<rscale>  0 0.15399622E+04</rscale>
<asrwt>0</asrwt>
<pdfrwt beam="1">  1        2 0.50730829E+00 0.15399622E+04</pdfrwt>
<pdfrwt beam="2">  1       -2 0.27660590E-01 0.15399622E+04</pdfrwt>
<totfact> 0.12974611E+01</totfact>
</mgrwt>
</event>
<event>
11    1  0.2404191E-008  0.2033123E+04  0.7818608E-02  0.8591289E-01
          2   -1    0    0  501    0  0.00000000000E+00  0.00000000000E+00  0.26544620940E+04  0.26544620940E+04  0.00000000000E+00 0. -1.
         -2   -1    0    0    0  501 -0.00000000000E+00 -0.00000000000E+00 -0.38930574238E+03  0.38930574238E+03  0.00000000000E+00 0.  1.
         23    2    1    2    0    0 -0.47694971986E+03 -0.44301264212E+02 -0.71009452800E+02  0.49258979354E+03  0.90325660989E+02 0.  0.
        254    2    1    2    0    0  0.47694971986E+03  0.44301264212E+02  0.23361658045E+04  0.25511780429E+04  0.90630850333E+03 0.  0.
        -24    2    4    4    0    0  0.41539339684E+03 -0.34374251936E+03  0.16100857917E+04  0.16998904876E+04  0.80875334425E+02 0.  0.
         13    1    3    3    0    0 -0.16589600065E+02 -0.38676083432E+01 -0.22061230087E+02  0.27872407459E+02  0.00000000000E+00 0. -1.
        -13    1    3    3    0    0 -0.46036011979E+03 -0.40433655869E+02 -0.48948222713E+02  0.46471738608E+03  0.00000000000E+00 0.  1.
          4    1    4    4  502    0  0.12648424004E+03  0.33945348297E+03  0.56943173862E+03  0.67489216548E+03  0.00000000000E+00 0. -1.
          1    1    5    5  503    0  0.38068578489E+03 -0.32336971434E+03  0.15410923615E+04  0.16200170696E+04  0.00000000000E+00 0. -1.
         -2    1    5    5    0  503  0.34707611952E+02 -0.20372805019E+02  0.68993430134E+02  0.79873418065E+02  0.00000000000E+00 0.  1.
         -3    1    4    4    0  502 -0.64927917015E+02  0.48590300602E+02  0.15664827418E+03  0.17639538975E+03  0.00000000000E+00 0.  1.
<mgrwt>
<rscale>  0 0.20331231E+04</rscale>
<asrwt>0</asrwt>
<pdfrwt beam="1">  1        2 0.40837877E+00 0.20331231E+04</pdfrwt>
<pdfrwt beam="2">  1       -2 0.59893193E-01 0.20331231E+04</pdfrwt>
<totfact> 0.68138244E+00</totfact>
</mgrwt>
</event>
<event>
12    1  0.2404191E-008  0.1918796E+04  0.7818608E-02  0.8645557E-01
         -1   -1    0    0    0  501 -0.00000000000E+00  0.00000000000E+00  0.33801840345E+03  0.33801840345E+03  0.00000000000E+00 0.  1.
          1   -1    0    0  501    0  0.00000000000E+00 -0.00000000000E+00 -0.27230606105E+04  0.27230606105E+04  0.00000000000E+00 0. -1.
         23    2    1    2    0    0  0.70677988549E+03 -0.22130659292E+03 -0.87284586978E+03  0.11482650572E+04  0.90212607363E+02 0.  0.
        254    2    1    2    0    0 -0.70677988549E+03  0.22130659292E+03 -0.15121963373E+04  0.19128139568E+04  0.90752689007E+03 0.  0.
        -24    2    4    4    0    0 -0.22502597126E+03  0.52805776160E+03 -0.89027646836E+03  0.10622701270E+04  0.79648888072E+02 0.  0.
         24    2    4    4    0    0 -0.48175391423E+03 -0.30675116868E+03 -0.62191986890E+03  0.85054382973E+03  0.10226128100E+03 0.  0.
         11    1    3    3    0    0  0.66029689379E+03 -0.22193992038E+03 -0.78990898507E+03  0.10531882647E+04  0.00000000000E+00 0. -1.
        -11    1    3    3    0    0  0.46482991693E+02  0.63332746305E+00 -0.82936884713E+02  0.95076792470E+02  0.00000000000E+00 0.  1.
          4    1    6    6  502    0 -0.13516192520E+03 -0.14194174331E+03 -0.22579838689E+03  0.29900019405E+03  0.00000000000E+00 0. -1.
          1    1    5    5  503    0 -0.17267067789E+03  0.30766620506E+03 -0.52950068553E+03  0.63627402329E+03  0.00000000000E+00 0. -1.
         -2    1    5    5    0  503 -0.52355293376E+02  0.22039155654E+03 -0.36077578282E+03  0.42599610375E+03  0.00000000000E+00 0.  1.
         -3    1    6    6    0  502 -0.34659198902E+03 -0.16480942537E+03 -0.39612148201E+03  0.55154363568E+03  0.00000000000E+00 0.  1.
<mgrwt>
<rscale>  0 0.19187961E+04</rscale>
<asrwt>0</asrwt>
<pdfrwt beam="1">  1        1 0.41893241E+00 0.19187961E+04</pdfrwt>
<pdfrwt beam="2">  1       -1 0.52002830E-01 0.19187961E+04</pdfrwt>
<totfact> 0.32916728E+00</totfact>
</mgrwt>
</event>
<event>
11    1  0.2404191E-008  0.1243830E+04  0.7818608E-02  0.9075334E-01
          2   -1    0    0  501    0  0.00000000000E+00  0.00000000000E+00  0.84439597938E+03  0.84439597938E+03  0.00000000000E+00 0. -1.
         -2   -1    0    0    0  501 -0.00000000000E+00 -0.00000000000E+00 -0.45805295530E+03  0.45805295530E+03  0.00000000000E+00 0.  1.
         23    2    1    2    0    0  0.13632823294E+03 -0.17065356071E+03 -0.68230481682E+02  0.24668847975E+03  0.92150868304E+02 0.  0.
        254    2    1    2    0    0 -0.13632823294E+03  0.17065356071E+03  0.45457350576E+03  0.10557604549E+04  0.92751552072E+03 0.  0.
        -24    2    4    4    0    0 -0.24424423150E+03 -0.16091438844E+03  0.58246093635E+03  0.65657079863E+03  0.79219859930E+02 0.  0.
         11    1    3    3    0    0  0.81783177833E+01 -0.14584100933E+02  0.20210085012E+02  0.26230295804E+02  0.00000000000E+00 0. -1.
        -11    1    3    3    0    0  0.12814991516E+03 -0.15606945978E+03 -0.88440566694E+02  0.22045818394E+03  0.00000000000E+00 0.  1.
          2    1    4    4  502    0  0.90351556564E+02  0.71520412450E+02 -0.59692740434E+02  0.12977594704E+03  0.00000000000E+00 0. -1.
          3    1    5    5  503    0 -0.70658603030E+01 -0.38567110227E+01 -0.33380661371E+00  0.80568001458E+01  0.00000000000E+00 0. -1.
         -4    1    5    5    0  503 -0.23717837120E+03 -0.15705767742E+03  0.58279474297E+03  0.64851399848E+03  0.00000000000E+00 0.  1.
         -1    1    4    4    0  502  0.17564441995E+02  0.26004753671E+03 -0.68194690162E+02  0.26941370926E+03  0.00000000000E+00 0.  1.
<mgrwt>
<rscale>  0 0.12438297E+04</rscale>
<asrwt>0</asrwt>
<pdfrwt beam="1">  1        2 0.12990707E+00 0.12438297E+04</pdfrwt>
<pdfrwt beam="2">  1       -2 0.70469686E-01 0.12438297E+04</pdfrwt>
<totfact> 0.57748980E+01</totfact>
</mgrwt>
</event>
<event>
12    1  0.2404191E-008  0.2140229E+04  0.7818608E-02  0.8543726E-01
         -1   -1    0    0    0  501 -0.00000000000E+00  0.00000000000E+00  0.34250189569E+03  0.34250189569E+03  0.00000000000E+00 0.  1.
          1   -1    0    0  501    0  0.00000000000E+00 -0.00000000000E+00 -0.33434710504E+04  0.33434710504E+04  0.00000000000E+00 0. -1.
         23    2    1    2    0    0  0.36677977656E+03 -0.11345250560E+03 -0.25825525582E+04  0.26131368991E+04  0.10727470479E+03 0.  0.
        254    2    1    2    0    0 -0.36677977656E+03  0.11345250560E+03 -0.41841659658E+03  0.10728360470E+04  0.91022297266E+03 0.  0.
        -24    2    4    4    0    0  0.59045065609E+02  0.21317098949E+03 -0.56153225932E+03  0.60859137363E+03  0.78337674639E+02 0.  0.
         24    2    4    4    0    0 -0.42582484217E+03 -0.99718483887E+02  0.14311566274E+03  0.46424467338E+03  0.61404003173E+02 0.  0.
         13    1    3    3    0    0  0.26456114804E+03 -0.12119807525E+03 -0.20779047815E+04  0.20981825125E+04  0.00000000000E+00 0. -1.
        -13    1    3    3    0    0  0.10221862852E+03  0.77455696506E+01 -0.50464777666E+03  0.51495438667E+03  0.00000000000E+00 0.  1.
          2    1    6    6  502    0 -0.36441197176E+03 -0.10674105046E+03  0.12645433837E+03  0.40022548233E+03  0.00000000000E+00 0. -1.
          3    1    5    5  503    0  0.13740006643E+02  0.65557458700E+02 -0.27568331014E+03  0.28370381679E+03  0.00000000000E+00 0. -1.
         -4    1    5    5    0  503  0.45305058965E+02  0.14761353079E+03 -0.28584894918E+03  0.32488755684E+03  0.00000000000E+00 0.  1.
         -1    1    6    6    0  502 -0.61412870415E+02  0.70225665692E+01  0.16661324368E+02  0.64019191056E+02  0.00000000000E+00 0.  1.
<mgrwt>
<rscale>  0 0.21402291E+04</rscale>
<asrwt>0</asrwt>
<pdfrwt beam="1">  1        1 0.51438017E+00 0.21402291E+04</pdfrwt>
<pdfrwt beam="2">  1       -1 0.52692599E-01 0.21402291E+04</pdfrwt>
<totfact> 0.11031955E+00</totfact>
</mgrwt>
</event>
<event>
12    1  0.2404191E-008  0.1715508E+04  0.7818608E-02  0.8752569E-01
         -1   -1    0    0    0  501 -0.00000000000E+00  0.00000000000E+00  0.10493353717E+04  0.10493353717E+04  0.00000000000E+00 0.  1.
          1   -1    0    0  501    0  0.00000000000E+00 -0.00000000000E+00 -0.70115012389E+03  0.70115012389E+03  0.00000000000E+00 0. -1.
         23    2    1    2    0    0 -0.52571332613E+03 -0.33029897005E+03  0.12339989440E+03  0.64039618923E+03  0.96993991356E+02 0.  0.
        254    2    1    2    0    0  0.52571332613E+03  0.33029897005E+03  0.22478535341E+03  0.11100893064E+04  0.89235525555E+03 0.  0.
        -24    2    4    4    0    0  0.18641251920E+02  0.10056021299E+03 -0.30714386607E+03  0.33327257092E+03  0.79204793773E+02 0.  0.
         24    2    4    4    0    0  0.50707207421E+03  0.22973875706E+03  0.53192921948E+03  0.77681673544E+03  0.10292502607E+03 0.  0.
         13    1    3    3    0    0 -0.16846919553E+03 -0.87952045707E+02  0.81143688880E+02  0.20664397023E+03  0.00000000000E+00 0.  1.
        -13    1    3    3    0    0 -0.35724413060E+03 -0.24234692434E+03  0.42256205522E+02  0.43375221901E+03  0.00000000000E+00 0. -1.
          2    1    6    6  502    0  0.14054718666E+02  0.27369165087E-01  0.43775723934E+02  0.45976623102E+02  0.00000000000E+00 0. -1.
          3    1    5    5  503    0  0.42665569164E+02  0.94579249103E+02 -0.26178119898E+03  0.28159364569E+03  0.00000000000E+00 0. -1.
         -4    1    5    5    0  503 -0.24024317244E+02  0.59809638893E+01 -0.45362667088E+02  0.51678925234E+02  0.00000000000E+00 0.  1.
         -1    1    6    6    0  502  0.49301735554E+03  0.22971138789E+03  0.48815349554E+03  0.73084011234E+03  0.00000000000E+00 0.  1.
<mgrwt>
<rscale>  0 0.17155077E+04</rscale>
<asrwt>0</asrwt>
<pdfrwt beam="1">  1        1 0.10786925E+00 0.17155077E+04</pdfrwt>
<pdfrwt beam="2">  1       -1 0.16143621E+00 0.17155077E+04</pdfrwt>
<totfact> 0.73612752E+00</totfact>
</mgrwt>
</event>
<event>
12    1  0.2404191E-008  0.1873522E+04  0.7818608E-02  0.8668149E-01
          2   -1    0    0  501    0  0.00000000000E+00  0.00000000000E+00  0.48648476000E+03  0.48648476000E+03  0.00000000000E+00 0. -1.
         -2   -1    0    0    0  501 -0.00000000000E+00 -0.00000000000E+00 -0.18038006820E+04  0.18038006820E+04  0.00000000000E+00 0.  1.
         23    2    1    2    0    0 -0.64406469921E+03 -0.31735119979E+03 -0.46845440843E+03  0.86200030281E+03  0.89799045072E+02 0.  0.
        254    2    1    2    0    0  0.64406469921E+03  0.31735119979E+03 -0.84886151359E+03  0.14282851392E+04  0.89660551463E+03 0.  0.
        -24    2    4    4    0    0  0.71995635008E+03 -0.69734293511E+02 -0.63581674928E+03  0.96642114365E+03  0.80665175266E+02 0.  0.
         24    2    4    4    0    0 -0.75891650874E+02  0.38708549330E+03 -0.21304476431E+03  0.46186399556E+03  0.11106555274E+03 0.  0.
         11    1    3    3    0    0 -0.33156173222E+01 -0.11691119893E+02 -0.16244807427E+02  0.20287172571E+02  0.00000000000E+00 0.  1.
        -11    1    3    3    0    0 -0.64074908189E+03 -0.30566007989E+03 -0.45220960100E+03  0.84171313024E+03  0.00000000000E+00 0. -1.
          4    1    6    6  502    0  0.44604705722E+01  0.65716552179E+02  0.37377324539E+01  0.65973719555E+02  0.00000000000E+00 0. -1.
          1    1    5    5  503    0  0.27356547935E+03  0.94079186766E+01 -0.21855669738E+03  0.35027647708E+03  0.00000000000E+00 0. -1.
         -2    1    5    5    0  503  0.44639087073E+03 -0.79142212187E+02 -0.41726005190E+03  0.61614466656E+03  0.00000000000E+00 0.  1.
         -3    1    6    6    0  502 -0.80352121446E+02  0.32136894112E+03 -0.21678249676E+03  0.39589027601E+03  0.00000000000E+00 0.  1.
<mgrwt>
<rscale>  0 0.18735224E+04</rscale>
<asrwt>0</asrwt>
<pdfrwt beam="1">  1        2 0.74843810E-01 0.18735224E+04</pdfrwt>
<pdfrwt beam="2">  1       -2 0.27750779E+00 0.18735224E+04</pdfrwt>
<totfact> 0.26038693E+00</totfact>
</mgrwt>
</event>
<event>
12    1  0.2404191E-008  0.2244997E+04  0.7818608E-02  0.8499929E-01
         -2   -1    0    0    0  501 -0.00000000000E+00  0.00000000000E+00  0.98946951283E+03  0.98946951283E+03  0.00000000000E+00 0.  1.
          2   -1    0    0  501    0  0.00000000000E+00 -0.00000000000E+00 -0.12734124243E+04  0.12734124243E+04  0.00000000000E+00 0. -1.
         23    2    1    2    0    0 -0.36820283877E+03  0.72638143688E+03 -0.56708503884E+03  0.99938359727E+03  0.11823202149E+03 0.  0.
        254    2    1    2    0    0  0.36820283877E+03 -0.72638143688E+03  0.28314212740E+03  0.12634983398E+04  0.92360991123E+03 0.  0.
        -24    2    4    4    0    0 -0.46468383788E+02 -0.49553060978E+03 -0.23178622775E+03  0.55532068704E+03  0.83344550898E+02 0.  0.
         24    2    4    4    0    0  0.41467122256E+03 -0.23085082710E+03  0.51492835515E+03  0.70817765279E+03  0.10545164663E+03 0.  0.
         11    1    3    3    0    0 -0.34777672883E+03  0.61412810636E+03 -0.45677469331E+03  0.84068133355E+03  0.00000000000E+00 0. -1.
        -11    1    3    3    0    0 -0.20426109944E+02  0.11225333052E+03 -0.11031034553E+03  0.15870226372E+03  0.00000000000E+00 0.  1.
          4    1    6    6  502    0  0.52455037799E+02  0.65011996953E+01  0.48986819187E+02  0.72065977007E+02  0.00000000000E+00 0. -1.
          3    1    5    5  503    0 -0.14428694589E+02 -0.13162520689E+03 -0.22521052013E+02  0.13431522661E+03  0.00000000000E+00 0. -1.
         -4    1    5    5    0  503 -0.32039689199E+02 -0.36390540289E+03 -0.20926517574E+03  0.42100546043E+03  0.00000000000E+00 0.  1.
         -3    1    6    6    0  502  0.36221618476E+03 -0.23735202679E+03  0.46594153597E+03  0.63611167578E+03  0.00000000000E+00 0.  1.
<mgrwt>
<rscale>  0 0.22449969E+04</rscale>
<asrwt>0</asrwt>
<pdfrwt beam="1">  1        2 0.19590960E+00 0.22449969E+04</pdfrwt>
<pdfrwt beam="2">  1       -2 0.15222608E+00 0.22449969E+04</pdfrwt>
<totfact> 0.44962560E+00</totfact>
</mgrwt>
</event>
<event>
12    1  0.2404191E-008  0.3571372E+04  0.7818608E-02  0.8097081E-01
         -1   -1    0    0    0  501 -0.00000000000E+00  0.00000000000E+00  0.82348378144E+03  0.82348378144E+03  0.00000000000E+00 0.  1.
          1   -1    0    0  501    0  0.00000000000E+00 -0.00000000000E+00 -0.38721774676E+04  0.38721774676E+04  0.00000000000E+00 0. -1.
         23    2    1    2    0    0  0.96407767968E+02  0.15168552699E+04 -0.51675591840E+03  0.16078024877E+04  0.88587768675E+02 0.  0.
        254    2    1    2    0    0 -0.96407767968E+02 -0.15168552699E+04 -0.25319377677E+04  0.30878587613E+04  0.90222973948E+03 0.  0.
        -24    2    4    4    0    0 -0.44908773220E+03 -0.51379561578E+03 -0.79603634550E+03  0.10514782887E+04  0.79164400555E+02 0.  0.
         24    2    4    4    0    0  0.35267996423E+03 -0.10030596541E+04 -0.17359014222E+04  0.20363804726E+04  0.54588044794E+02 0.  0.
         11    1    3    3    0    0  0.73725929041E+02  0.66100091342E+03 -0.19378937183E+03  0.69275684103E+03  0.00000000000E+00 0. -1.
        -11    1    3    3    0    0  0.22681838928E+02  0.85585435643E+03 -0.32296654657E+03  0.91504564665E+03  0.00000000000E+00 0.  1.
          4    1    6    6  502    0  0.27094960963E+03 -0.69533349399E+03 -0.12149699024E+04  0.14258521040E+04  0.00000000000E+00 0. -1.
          3    1    5    5  503    0 -0.35513055664E+03 -0.38976584119E+03 -0.56395238362E+03  0.77206049906E+03  0.00000000000E+00 0. -1.
         -4    1    5    5    0  503 -0.93957175555E+02 -0.12402977459E+03 -0.23208396188E+03  0.27941778968E+03  0.00000000000E+00 0.  1.
         -3    1    6    6    0  502  0.81730354598E+02 -0.30772616009E+03 -0.52093151986E+03  0.61052836859E+03  0.00000000000E+00 0.  1.
<mgrwt>
<rscale>  0 0.35713725E+04</rscale>
<asrwt>0</asrwt>
<pdfrwt beam="1">  1        1 0.59571960E+00 0.35713725E+04</pdfrwt>
<pdfrwt beam="2">  1       -1 0.12668981E+00 0.35713725E+04</pdfrwt>
<totfact> 0.54220003E-02</totfact>
</mgrwt>
</event>
<event>
11    1  0.2404191E-008  0.1841596E+04  0.7818608E-02  0.8684487E-01
         -2   -1    0    0    0  501 -0.00000000000E+00  0.00000000000E+00  0.93093431679E+03  0.93093431679E+03  0.00000000000E+00 0.  1.
          2   -1    0    0  501    0  0.00000000000E+00 -0.00000000000E+00 -0.91077171014E+03  0.91077171014E+03  0.00000000000E+00 0. -1.
         23    2    1    2    0    0 -0.19302839342E+03 -0.35311162553E+03 -0.55974650414E+03  0.69507344575E+03  0.88674490868E+02 0.  0.
        254    2    1    2    0    0  0.19302839342E+03  0.35311162553E+03  0.57990911079E+03  0.11466325812E+04  0.90361713059E+03 0.  0.
        -24    2    4    4    0    0 -0.21831338391E+03  0.33005876031E+03  0.59223626880E+03  0.71678459315E+03  0.80229894906E+02 0.  0.
         11    1    3    3    0    0 -0.15021674620E+03 -0.33183247050E+03 -0.49241885195E+03  0.61249831434E+03  0.00000000000E+00 0. -1.
        -11    1    3    3    0    0 -0.42811647225E+02 -0.21279155034E+02 -0.67327652190E+02  0.82575131404E+02  0.00000000000E+00 0.  1.
          2    1    4    4  502    0  0.10669981855E+02  0.22008306857E+02  0.14228079122E+02  0.28295800378E+02  0.00000000000E+00 0. -1.
          3    1    5    5  503    0  0.50810769666E+01  0.25166261254E+02  0.33403586558E+02  0.42130246184E+02  0.00000000000E+00 0. -1.
         -4    1    5    5    0  503 -0.22339446088E+03  0.30489249906E+03  0.55883268224E+03  0.67465434696E+03  0.00000000000E+00 0.  1.
         -1    1    4    4    0  502  0.40067179548E+03  0.10445583680E+01 -0.26555237135E+02  0.40155218766E+03  0.00000000000E+00 0.  1.
<mgrwt>
<rscale>  0 0.18415957E+04</rscale>
<asrwt>0</asrwt>
<pdfrwt beam="1">  1        2 0.14011872E+00 0.18415957E+04</pdfrwt>
<pdfrwt beam="2">  1       -2 0.14322066E+00 0.18415957E+04</pdfrwt>
<totfact> 0.91812977E+00</totfact>
</mgrwt>
</event>
<event>
11    1  0.2404191E-008  0.2940298E+04  0.7818608E-02  0.8260988E-01
          1   -1    0    0  501    0  0.00000000000E+00  0.00000000000E+00  0.20819985551E+04  0.20819985551E+04  0.00000000000E+00 0. -1.
         -1   -1    0    0    0  501 -0.00000000000E+00 -0.00000000000E+00 -0.10381073928E+04  0.10381073928E+04  0.00000000000E+00 0.  1.
         23    2    1    2    0    0 -0.11006000353E+04  0.44906717700E+03  0.11082476595E+04  0.16277062222E+04  0.90735350809E+02 0.  0.
        254    2    1    2    0    0  0.11006000353E+04 -0.44906717700E+03 -0.64356497214E+02  0.14923997257E+04  0.90007411658E+03 0.  0.
        -24    2    4    4    0    0  0.46659667059E+03  0.19912281629E+03  0.17631522261E+03  0.54280652816E+03  0.78673504506E+02 0.  0.
         11    1    3    3    0    0 -0.10191802665E+04  0.40180429720E+03  0.10470728115E+04  0.15154328033E+04  0.00000000000E+00 0. -1.
        -11    1    3    3    0    0 -0.81419768756E+02  0.47262879797E+02  0.61174848033E+02  0.11227341886E+03  0.00000000000E+00 0.  1.
          4    1    4    4  502    0  0.53740424200E+03 -0.46595759621E+03 -0.16741216112E+03  0.73071651991E+03  0.00000000000E+00 0. -1.
          3    1    5    5  503    0  0.91176557566E+02  0.73868483209E+02  0.47695547920E+02  0.12666721262E+03  0.00000000000E+00 0. -1.
         -4    1    5    5    0  503  0.37542011303E+03  0.12525433309E+03  0.12861967469E+03  0.41613931554E+03  0.00000000000E+00 0.  1.
         -3    1    4    4    0  502  0.96599122679E+02 -0.18223239709E+03 -0.73259558712E+02  0.21887667759E+03  0.00000000000E+00 0.  1.
<mgrwt>
<rscale>  0 0.29402980E+04</rscale>
<asrwt>0</asrwt>
<pdfrwt beam="1">  1        1 0.32030747E+00 0.29402980E+04</pdfrwt>
<pdfrwt beam="2">  1       -1 0.15970883E+00 0.29402980E+04</pdfrwt>
<totfact> 0.65856671E-01</totfact>
</mgrwt>
</event>
<event>
12    1  0.2404191E-008  0.2668936E+04  0.7818608E-02  0.8345155E-01
          1   -1    0    0  501    0  0.00000000000E+00  0.00000000000E+00  0.12406693392E+04  0.12406693392E+04  0.00000000000E+00 0. -1.
         -1   -1    0    0    0  501 -0.00000000000E+00 -0.00000000000E+00 -0.14353586278E+04  0.14353586278E+04  0.00000000000E+00 0.  1.
         23    2    1    2    0    0  0.86007961661E+03  0.15798437677E+03  0.69227663736E+03  0.11191545298E+04  0.92541388697E+02 0.  0.
        254    2    1    2    0    0 -0.86007961661E+03 -0.15798437677E+03 -0.88696592594E+03  0.15568734372E+04  0.93405049940E+03 0.  0.
        -24    2    4    4    0    0  0.18832824720E+03  0.41274896917E+02 -0.15020379711E+03  0.25839984630E+03  0.83893707090E+02 0.  0.
         24    2    4    4    0    0 -0.10484078638E+04 -0.19925927368E+03 -0.73676212882E+03  0.12984735909E+04  0.65969119389E+02 0.  0.
         13    1    3    3    0    0  0.18732975647E+03 -0.40014815774E+01  0.14636168160E+03  0.23776078599E+03  0.00000000000E+00 0.  1.
        -13    1    3    3    0    0  0.67274986014E+03  0.16198585834E+03  0.54591495577E+03  0.88139374377E+03  0.00000000000E+00 0. -1.
          4    1    6    6  502    0 -0.24544203048E+03 -0.55065084829E+02 -0.20681636481E+03  0.32564852625E+03  0.00000000000E+00 0. -1.
          3    1    5    5  503    0 -0.18988258912E+01  0.50727924678E+01  0.70911135647E+01  0.89231527374E+01  0.00000000000E+00 0. -1.
         -4    1    5    5    0  503  0.19022707309E+03  0.36202104450E+02 -0.15729491068E+03  0.24947669356E+03  0.00000000000E+00 0.  1.
         -3    1    6    6    0  502 -0.80296583333E+03 -0.14419418886E+03 -0.52994576401E+03  0.97282506464E+03  0.00000000000E+00 0.  1.
<mgrwt>
<rscale>  0 0.26689364E+04</rscale>
<asrwt>0</asrwt>
<pdfrwt beam="1">  1        1 0.19087221E+00 0.26689364E+04</pdfrwt>
<pdfrwt beam="2">  1       -1 0.22082440E+00 0.26689364E+04</pdfrwt>
<totfact> 0.94949397E-01</totfact>
</mgrwt>
</event>
<event>
11    1  0.2404191E-008  0.1426631E+04  0.7818608E-02  0.8934764E-01
         -1   -1    0    0    0  501 -0.00000000000E+00  0.00000000000E+00  0.90907805948E+03  0.90907805948E+03  0.00000000000E+00 0.  1.
          1   -1    0    0  501    0  0.00000000000E+00 -0.00000000000E+00 -0.55970866387E+03  0.55970866387E+03  0.00000000000E+00 0. -1.
         23    2    1    2    0    0 -0.22273641197E+03 -0.10393429405E+03  0.45779036748E+03  0.52744410379E+03  0.90616860277E+02 0.  0.
        254    2    1    2    0    0  0.22273641197E+03  0.10393429405E+03 -0.10842097187E+03  0.94134261955E+03  0.90219564039E+03 0.  0.
        -24    2    4    4    0    0  0.37842772939E+03  0.33733946919E+03  0.14786025978E+03  0.53476249425E+03  0.84278140639E+02 0.  0.
         11    1    3    3    0    0 -0.22516677496E+03 -0.11140408762E+03  0.42473409352E+03  0.49346732160E+03  0.00000000000E+00 0.  1.
        -11    1    3    3    0    0  0.24303629904E+01  0.74697935633E+01  0.33056273957E+02  0.33976782191E+02  0.00000000000E+00 0. -1.
          2    1    4    4  502    0 -0.85727108393E+02 -0.86717640218E+02 -0.20066356965E+03  0.23480833550E+03  0.00000000000E+00 0. -1.
          3    1    5    5  503    0  0.35431709732E+03  0.31480879133E+03  0.15901172771E+03  0.49992990519E+03  0.00000000000E+00 0. -1.
         -4    1    5    5    0  503  0.24110632068E+02  0.22530677860E+02 -0.11151467933E+02  0.34832589060E+02  0.00000000000E+00 0.  1.
         -1    1    4    4    0  502 -0.69964209021E+02 -0.14668753492E+03 -0.55617662006E+02  0.17177178980E+03  0.00000000000E+00 0.  1.
<mgrwt>
<rscale>  0 0.14266308E+04</rscale>
<asrwt>0</asrwt>
<pdfrwt beam="1">  1        1 0.86109025E-01 0.14266308E+04</pdfrwt>
<pdfrwt beam="2">  1       -1 0.13985816E+00 0.14266308E+04</pdfrwt>
<totfact> 0.15476876E+01</totfact>
</mgrwt>
</event>
<event>
12    1  0.2404191E-008  0.1212340E+04  0.7818608E-02  0.9102123E-01
          2   -1    0    0  501    0  0.00000000000E+00  0.00000000000E+00  0.52207722042E+03  0.52207722042E+03  0.00000000000E+00 0. -1.
         -2   -1    0    0    0  501 -0.00000000000E+00 -0.00000000000E+00 -0.70380803738E+03  0.70380803738E+03  0.00000000000E+00 0.  1.
         23    2    1    2    0    0  0.22244148474E+03 -0.47579895661E+02 -0.16833511663E+03  0.29732228229E+03  0.91212759259E+02 0.  0.
        254    2    1    2    0    0 -0.22244148474E+03  0.47579895661E+02 -0.13395700333E+02  0.92856297551E+03  0.90016981403E+03 0.  0.
        -24    2    4    4    0    0 -0.47026330833E+03 -0.64264421804E+02 -0.26297742100E+03  0.54849309810E+03  0.80062848077E+02 0.  0.
         24    2    4    4    0    0  0.24782182359E+03  0.11184431746E+03  0.24958172067E+03  0.38006987740E+03  0.90759400729E+02 0.  0.
         11    1    3    3    0    0  0.57352390476E+02  0.11476023092E+02 -0.67345085302E+01  0.58875711498E+02  0.00000000000E+00 0. -1.
        -11    1    3    3    0    0  0.16508909426E+03 -0.59055918753E+02 -0.16160060810E+03  0.23844657079E+03  0.00000000000E+00 0.  1.
          4    1    6    6  502    0  0.22135903198E+03  0.62416872694E+02  0.19072687851E+03  0.29878492134E+03  0.00000000000E+00 0. -1.
          1    1    5    5  503    0 -0.44413325571E+03 -0.51695967335E+02 -0.26441244591E+03  0.51946199420E+03  0.00000000000E+00 0. -1.
         -2    1    5    5    0  503 -0.26130052617E+02 -0.12568454469E+02  0.14350249043E+01  0.29031103905E+02  0.00000000000E+00 0.  1.
         -3    1    6    6    0  502  0.26462791612E+02  0.49427444770E+02  0.58854842156E+02  0.81284956060E+02  0.00000000000E+00 0.  1.
<mgrwt>
<rscale>  0 0.12123401E+04</rscale>
<asrwt>0</asrwt>
<pdfrwt beam="1">  1        2 0.80319572E-01 0.12123401E+04</pdfrwt>
<pdfrwt beam="2">  1       -2 0.10827816E+00 0.12123401E+04</pdfrwt>
<totfact> 0.39402351E+01</totfact>
</mgrwt>
</event>
<event>
11    1  0.2404191E-008  0.3165641E+04  0.7818608E-02  0.8197951E-01
         -1   -1    0    0    0  501 -0.00000000000E+00  0.00000000000E+00  0.20810695046E+04  0.20810695046E+04  0.00000000000E+00 0.  1.
          1   -1    0    0  501    0  0.00000000000E+00 -0.00000000000E+00 -0.12038620952E+04  0.12038620952E+04  0.00000000000E+00 0. -1.
         23    2    1    2    0    0  0.29232683493E+03  0.13996507669E+04  0.15114903751E+03  0.14406984587E+04  0.91042681390E+02 0.  0.
        254    2    1    2    0    0 -0.29232683493E+03 -0.13996507669E+04  0.72605837182E+03  0.18442331411E+04  0.91080067615E+03 0.  0.
        -24    2    4    4    0    0 -0.73854511251E+02 -0.81189972367E+02  0.33213457020E+03  0.36059378509E+03  0.87568285788E+02 0.  0.
         11    1    3    3    0    0  0.24877173654E+02  0.14942147577E+03 -0.11322165701E+02  0.15190076572E+03  0.00000000000E+00 0.  1.
        -11    1    3    3    0    0  0.26744966128E+03  0.12502292911E+04  0.16247120321E+03  0.12887976930E+04  0.00000000000E+00 0. -1.
          2    1    4    4  502    0 -0.66638801985E+02 -0.44828125865E+02 -0.82714493015E+02  0.11529084158E+03  0.00000000000E+00 0. -1.
          1    1    5    5  503    0 -0.31296934484E+02 -0.89987192060E+02  0.20080230356E+03  0.22225831359E+03  0.00000000000E+00 0. -1.
         -2    1    5    5    0  503 -0.42557576767E+02  0.87972196922E+01  0.13133226664E+03  0.13833547150E+03  0.00000000000E+00 0.  1.
         -3    1    4    4    0  502 -0.15183352170E+03 -0.12736326686E+04  0.47663829463E+03  0.13683485144E+04  0.00000000000E+00 0.  1.
<mgrwt>
<rscale>  0 0.31656410E+04</rscale>
<asrwt>0</asrwt>
<pdfrwt beam="1">  1        1 0.18520955E+00 0.31656410E+04</pdfrwt>
<pdfrwt beam="2">  1       -1 0.32016454E+00 0.31656410E+04</pdfrwt>
<totfact> 0.21744614E-01</totfact>
</mgrwt>
</event>
<event>
11    1  0.2404191E-008  0.2595570E+04  0.7818608E-02  0.8369708E-01
         -1   -1    0    0    0  501 -0.00000000000E+00  0.00000000000E+00  0.16060517779E+04  0.16060517779E+04  0.00000000000E+00 0.  1.
          1   -1    0    0  501    0  0.00000000000E+00 -0.00000000000E+00 -0.10486868859E+04  0.10486868859E+04  0.00000000000E+00 0. -1.
         23    2    1    2    0    0 -0.20079909883E+03  0.23303592689E+03  0.13754436798E+04  0.14123157401E+04  0.90357138024E+02 0.  0.
        254    2    1    2    0    0  0.20079909883E+03 -0.23303592689E+03 -0.81807878780E+03  0.12424229237E+04  0.88302649845E+03 0.  0.
        -24    2    4    4    0    0  0.51516789880E+03 -0.52372214887E+02 -0.61344702732E+03  0.80661108577E+03  0.78507168529E+02 0.  0.
         11    1    3    3    0    0 -0.24633249392E+02  0.13903985307E+00  0.60221561697E+02  0.65064989056E+02  0.00000000000E+00 0. -1.
        -11    1    3    3    0    0 -0.17616584944E+03  0.23289688704E+03  0.13152221181E+04  0.13472507511E+04  0.00000000000E+00 0.  1.
          2    1    4    4  502    0 -0.22598985562E+03 -0.79640434761E+02 -0.79912266651E+02  0.25258658724E+03  0.00000000000E+00 0. -1.
          3    1    5    5  503    0  0.37074717578E+03 -0.35389457453E+02 -0.49254298323E+03  0.61749856063E+03  0.00000000000E+00 0. -1.
         -4    1    5    5    0  503  0.14442072302E+03 -0.16982757434E+02 -0.12090404409E+03  0.18911252514E+03  0.00000000000E+00 0.  1.
         -1    1    4    4    0  502 -0.88378944345E+02 -0.10102327725E+03 -0.12471949383E+03  0.18322525069E+03  0.00000000000E+00 0.  1.
<mgrwt>
<rscale>  0 0.25955696E+04</rscale>
<asrwt>0</asrwt>
<pdfrwt beam="1">  1        1 0.16133644E+00 0.25955696E+04</pdfrwt>
<pdfrwt beam="2">  1       -1 0.24708489E+00 0.25955696E+04</pdfrwt>
<totfact> 0.89030799E-01</totfact>
</mgrwt>
</event>
<event>
11    1  0.2404191E-008  0.1160598E+04  0.7818608E-02  0.9148062E-01
          1   -1    0    0  501    0  0.00000000000E+00  0.00000000000E+00  0.97515748320E+03  0.97515748320E+03  0.00000000000E+00 0. -1.
         -1   -1    0    0    0  501 -0.00000000000E+00 -0.00000000000E+00 -0.34532551501E+03  0.34532551501E+03  0.00000000000E+00 0.  1.
         23    2    1    2    0    0 -0.57114989597E+02 -0.20754553052E+03  0.40049534419E+02  0.23741182359E+03  0.91777663391E+02 0.  0.
        254    2    1    2    0    0  0.57114989597E+02  0.20754553052E+03  0.58978243378E+03  0.10830711746E+04  0.88253191491E+03 0.  0.
        -24    2    4    4    0    0  0.38288438725E+03  0.19248403210E+03  0.46066291366E+02  0.43879602747E+03  0.82275718810E+02 0.  0.
         11    1    3    3    0    0  0.28841884303E+01 -0.35477677029E+01 -0.16713551473E+02  0.17327665781E+02  0.00000000000E+00 0.  1.
        -11    1    3    3    0    0 -0.59999178027E+02 -0.20399776282E+03  0.56763085893E+02  0.22008415781E+03  0.00000000000E+00 0. -1.
          2    1    4    4  502    0 -0.25783089377E+03 -0.42358031986E+01  0.49604409071E+03  0.55906569537E+03  0.00000000000E+00 0. -1.
          1    1    5    5  503    0  0.21479386475E+03  0.10228814115E+03 -0.15327163254E+02  0.23839922418E+03  0.00000000000E+00 0. -1.
         -2    1    5    5    0  503  0.16809052250E+03  0.90195890947E+02  0.61393454619E+02  0.20039680329E+03  0.00000000000E+00 0.  1.
         -1    1    4    4    0  502 -0.67938503882E+02  0.19297301623E+02  0.47672051705E+02  0.85209451785E+02  0.00000000000E+00 0.  1.
<mgrwt>
<rscale>  0 0.11605977E+04</rscale>
<asrwt>0</asrwt>
<pdfrwt beam="1">  1        1 0.15002423E+00 0.11605977E+04</pdfrwt>
<pdfrwt beam="2">  1       -1 0.53127003E-01 0.11605977E+04</pdfrwt>
<totfact> 0.56113889E+01</totfact>
</mgrwt>
</event>
<event>
12    1  0.2404191E-008  0.2348000E+04  0.7818608E-02  0.8459232E-01
         -1   -1    0    0    0  501 -0.00000000000E+00  0.00000000000E+00  0.52732289379E+03  0.52732289379E+03  0.00000000000E+00 0.  1.
          1   -1    0    0  501    0  0.00000000000E+00 -0.00000000000E+00 -0.26137219900E+04  0.26137219900E+04  0.00000000000E+00 0. -1.
         23    2    1    2    0    0 -0.11490633545E+03 -0.94476503279E+03 -0.51581578307E+03  0.10863651563E+04  0.91317565032E+02 0.  0.
        254    2    1    2    0    0  0.11490633545E+03  0.94476503279E+03 -0.15705833131E+04  0.20546797275E+04  0.92151636225E+03 0.  0.
        -24    2    4    4    0    0  0.12146203731E+02  0.10913750995E+04 -0.14551929819E+04  0.18208735980E+04  0.82139559487E+02 0.  0.
         24    2    4    4    0    0  0.10276013172E+03 -0.14661006674E+03 -0.11539033128E+03  0.23380612950E+03  0.96416913959E+02 0.  0.
         13    1    3    3    0    0 -0.21035398298E+01 -0.22667238787E+03 -0.15689857996E+03  0.27568453111E+03  0.00000000000E+00 0.  1.
        -13    1    3    3    0    0 -0.11280279562E+03 -0.71809264492E+03 -0.35891720311E+03  0.81068062521E+03  0.00000000000E+00 0. -1.
          4    1    6    6  502    0  0.22864214656E+02  0.70979820038E+00 -0.48003566365E+02  0.53175356220E+02  0.00000000000E+00 0. -1.
          3    1    5    5  503    0 -0.16387403349E+02  0.47426376925E+02 -0.64887754163E+02  0.82025781661E+02  0.00000000000E+00 0. -1.
         -4    1    5    5    0  503  0.28533607081E+02  0.10439487226E+04 -0.13903052277E+04  0.17388478163E+04  0.00000000000E+00 0.  1.
         -3    1    6    6    0  502  0.79895917062E+02 -0.14731986494E+03 -0.67386764918E+02  0.18063077328E+03  0.00000000000E+00 0.  1.
<mgrwt>
<rscale>  0 0.23479995E+04</rscale>
<asrwt>0</asrwt>
<pdfrwt beam="1">  1        1 0.40211107E+00 0.23479995E+04</pdfrwt>
<pdfrwt beam="2">  1       -1 0.81126599E-01 0.23479995E+04</pdfrwt>
<totfact> 0.15378991E+00</totfact>
</mgrwt>
</event>
<event>
12    1  0.2518249E-008  0.1588180E+04  0.7818608E-02  0.8827843E-01
          1   -1    0    0  501    0  0.00000000000E+00  0.00000000000E+00  0.79918816018E+03  0.79918816018E+03  0.00000000000E+00 0. -1.
         -1   -1    0    0    0  501 -0.00000000000E+00 -0.00000000000E+00 -0.78902428273E+03  0.78902428273E+03  0.00000000000E+00 0.  1.
         23    2    1    2    0    0  0.26199865678E+03 -0.19271036322E+03 -0.41818870969E+03  0.53777442439E+03  0.92406462780E+02 0.  0.
        254    2    1    2    0    0 -0.26199865678E+03  0.19271036322E+03  0.42835258714E+03  0.10504380185E+04  0.90230455590E+03 0.  0.
        -24    2    4    4    0    0 -0.56264028326E+03 -0.35706867231E+02  0.22559645651E+03  0.61229339977E+03  0.78551750441E+02 0.  0.
         24    2    4    4    0    0  0.30064162647E+03  0.22841723045E+03  0.20275613064E+03  0.43814461876E+03  0.91108944133E+02 0.  0.
         13    1    3    3    0    0  0.36537983260E+02 -0.45223317341E+02 -0.30469144891E+02  0.65639480821E+02  0.00000000000E+00 0. -1.
        -13    1    3    3    0    0  0.22546067352E+03 -0.14748704588E+03 -0.38771956480E+03  0.47213494357E+03  0.00000000000E+00 0.  1.
          4    1    6    6  502    0  0.27972696826E+02 -0.38880321102E+01  0.41017357326E+01  0.28537918590E+02  0.00000000000E+00 0. -1.
          3    1    5    5  503    0 -0.10671699045E+03  0.12443246099E+01  0.11791689603E+02  0.10737368550E+03  0.00000000000E+00 0. -1.
         -4    1    5    5    0  503 -0.45592329281E+03 -0.36951191841E+02  0.21380476690E+03  0.50491971427E+03  0.00000000000E+00 0.  1.
         -3    1    6    6    0  502  0.27266892965E+03  0.23230526256E+03  0.19865439490E+03  0.40960670017E+03  0.00000000000E+00 0.  1.
<mgrwt>
<rscale>  0 0.15881799E+04</rscale>
<asrwt>0</asrwt>
<pdfrwt beam="1">  1        1 0.12295202E+00 0.15881799E+04</pdfrwt>
<pdfrwt beam="2">  1       -1 0.12138835E+00 0.15881799E+04</pdfrwt>
<totfact> 0.12803892E+01</totfact>
</mgrwt>
</event>
<event>
11    1  0.2404191E-008  0.2129835E+04  0.7818608E-02  0.8548214E-01
         -2   -1    0    0    0  501 -0.00000000000E+00  0.00000000000E+00  0.53272202973E+03  0.53272202973E+03  0.00000000000E+00 0. -1.
          2   -1    0    0  501    0  0.00000000000E+00 -0.00000000000E+00 -0.21287823013E+04  0.21287823013E+04  0.00000000000E+00 0.  1.
         23    2    1    2    0    0 -0.13056334493E+02 -0.79494180031E+03 -0.22726773915E+03  0.83229877518E+03  0.94697899397E+02 0.  0.
        254    2    1    2    0    0  0.13056334493E+02  0.79494180031E+03 -0.13687925325E+04  0.18292055559E+04  0.91667717054E+03 0.  0.
        -24    2    4    4    0    0 -0.29577800388E+02  0.66205116736E+03 -0.28660827905E+03  0.72618634509E+03  0.77560993372E+02 0.  0.
         13    1    3    3    0    0  0.50254725148E+00 -0.59507304918E+03 -0.12782684229E+03  0.60864758935E+03  0.00000000000E+00 0. -1.
        -13    1    3    3    0    0 -0.13558881744E+02 -0.19986875114E+03 -0.99440896859E+02  0.22365118583E+03  0.00000000000E+00 0.  1.
          2    1    4    4  502    0 -0.57432304367E+02  0.70988242542E+02 -0.58617299556E+03  0.59324243011E+03  0.00000000000E+00 0. -1.
          3    1    5    5  503    0 -0.37814071749E+02  0.23575772381E+03 -0.13070141069E+03  0.27220298881E+03  0.00000000000E+00 0. -1.
         -4    1    5    5    0  503  0.82362713604E+01  0.42629344355E+03 -0.15590686836E+03  0.45398335628E+03  0.00000000000E+00 0.  1.
         -1    1    4    4    0  502  0.10006643925E+03  0.61902390410E+02 -0.49601125786E+03  0.50977678069E+03  0.00000000000E+00 0.  1.
<mgrwt>
<rscale>  0 0.21298349E+04</rscale>
<asrwt>0</asrwt>
<pdfrwt beam="1">  1        2 0.32750497E+00 0.21298349E+04</pdfrwt>
<pdfrwt beam="2">  1       -2 0.81957234E-01 0.21298349E+04</pdfrwt>
<totfact> 0.68122331E+00</totfact>
</mgrwt>
</event>
<event>
11    1  0.2404191E-008  0.1101185E+04  0.7818608E-02  0.9204038E-01
         -2   -1    0    0    0  501 -0.00000000000E+00  0.00000000000E+00  0.11437850631E+03  0.11437850631E+03  0.00000000000E+00 0.  1.
          2   -1    0    0  501    0  0.00000000000E+00 -0.00000000000E+00 -0.26504265956E+04  0.26504265956E+04  0.00000000000E+00 0. -1.
         23    2    1    2    0    0  0.15121049046E+03 -0.36836503046E+02 -0.10072732036E+04  0.10233061228E+04  0.91293886736E+02 0.  0.
        254    2    1    2    0    0 -0.15121049046E+03  0.36836503046E+02 -0.15287748856E+04  0.17414989791E+04  0.81941717271E+03 0.  0.
        -24    2    4    4    0    0 -0.78024087637E+01 -0.19570729516E+03 -0.34726300514E+02  0.21417304675E+03  0.79384854017E+02 0.  0.
         13    1    3    3    0    0  0.66404642255E+02  0.25578595189E+02 -0.51531857529E+03  0.52020868417E+03  0.00000000000E+00 0. -1.
        -13    1    3    3    0    0  0.84805848209E+02 -0.62415098235E+02 -0.49195462833E+03  0.50309743859E+03  0.00000000000E+00 0.  1.
          2    1    4    4  502    0 -0.16150124288E+03  0.24611712775E+03 -0.13775524415E+04  0.14086543299E+04  0.00000000000E+00 0. -1.
          1    1    5    5  503    0 -0.26494280159E+01 -0.10586875628E+03  0.21503718099E+02  0.10806305066E+03  0.00000000000E+00 0. -1.
         -2    1    5    5    0  503 -0.51529807478E+01 -0.89838538878E+02 -0.56230018613E+02  0.10610999610E+03  0.00000000000E+00 0.  1.
         -1    1    4    4    0  502  0.18093161183E+02 -0.13573329545E+02 -0.11649614363E+03  0.11867160249E+03  0.00000000000E+00 0.  1.
<mgrwt>
<rscale>  0 0.11011845E+04</rscale>
<asrwt>0</asrwt>
<pdfrwt beam="1">  1        2 0.40775790E+00 0.11011845E+04</pdfrwt>
<pdfrwt beam="2">  1       -2 0.17596695E-01 0.11011845E+04</pdfrwt>
<totfact> 0.76253555E+01</totfact>
</mgrwt>
</event>
<event>
12    1  0.2404191E-008  0.2927781E+04  0.7818608E-02  0.8264660E-01
          1   -1    0    0  501    0  0.00000000000E+00  0.00000000000E+00  0.26914586645E+04  0.26914586645E+04  0.00000000000E+00 0. -1.
         -1   -1    0    0    0  501 -0.00000000000E+00 -0.00000000000E+00 -0.79621321339E+03  0.79621321339E+03  0.00000000000E+00 0.  1.
         23    2    1    2    0    0 -0.43073643886E+03 -0.17839416189E+03  0.23340165760E+04  0.23818145166E+04  0.89714312362E+02 0.  0.
        254    2    1    2    0    0  0.43073643886E+03  0.17839416189E+03 -0.43877112489E+03  0.11058573613E+04  0.90168844212E+03 0.  0.
        -24    2    4    4    0    0  0.12424957661E+03  0.32621999671E+03 -0.61896524314E+03  0.71575579521E+03  0.85620923901E+02 0.  0.
         24    2    4    4    0    0  0.30648686225E+03 -0.14782583482E+03  0.18019411825E+03  0.39010156605E+03  0.62630962085E+02 0.  0.
         11    1    3    3    0    0 -0.20802899418E+00 -0.72223477526E+01  0.11839595125E+02  0.13870169279E+02  0.00000000000E+00 0.  1.
        -11    1    3    3    0    0 -0.43052840987E+03 -0.17117181414E+03  0.23221769809E+04  0.23679443474E+04  0.00000000000E+00 0. -1.
          4    1    6    6  502    0  0.30007536153E+03 -0.13377678261E+03  0.18007588837E+03  0.37465821189E+03  0.00000000000E+00 0. -1.
          3    1    5    5  503    0  0.39127900381E+02  0.10521117617E+03 -0.28524507541E+03  0.30653733414E+03  0.00000000000E+00 0. -1.
         -4    1    5    5    0  503  0.85121676228E+02  0.22100882054E+03 -0.33372016774E+03  0.40921846107E+03  0.00000000000E+00 0.  1.
         -3    1    6    6    0  502  0.64115007257E+01 -0.14049052211E+02  0.11822987401E+00  0.15443354165E+02  0.00000000000E+00 0.  1.
<mgrwt>
<rscale>  0 0.29277807E+04</rscale>
<asrwt>0</asrwt>
<pdfrwt beam="1">  1        1 0.41407056E+00 0.29277807E+04</pdfrwt>
<pdfrwt beam="2">  1       -1 0.12249434E+00 0.29277807E+04</pdfrwt>
<totfact> 0.50119197E-01</totfact>
</mgrwt>
</event>
<event>
12    1  0.2404191E-008  0.2451290E+04  0.7818608E-02  0.8420547E-01
         -2   -1    0    0    0  501 -0.00000000000E+00  0.00000000000E+00  0.10497261132E+04  0.10497261132E+04  0.00000000000E+00 0.  1.
          2   -1    0    0  501    0  0.00000000000E+00 -0.00000000000E+00 -0.14310458274E+04  0.14310458274E+04  0.00000000000E+00 0. -1.
         23    2    1    2    0    0 -0.31594723980E+03 -0.16895549187E+03  0.84199378465E+03  0.91948289115E+03  0.90147862743E+02 0.  0.
        254    2    1    2    0    0  0.31594723980E+03  0.16895549187E+03 -0.12233134989E+04  0.15612890494E+04  0.90153145407E+03 0.  0.
        -24    2    4    4    0    0  0.49669135677E+03  0.27098952454E+03 -0.11979681203E+04  0.13272504755E+04  0.79552378978E+02 0.  0.
         24    2    4    4    0    0 -0.18074411697E+03 -0.10203403267E+03 -0.25345378542E+02  0.23403857393E+03  0.10512985415E+03 0.  0.
         13    1    3    3    0    0 -0.29519450238E+03 -0.17978930715E+03  0.79832203704E+03  0.86993221807E+03  0.00000000000E+00 0.  1.
        -13    1    3    3    0    0 -0.20752737427E+02  0.10833815279E+02  0.43671747601E+02  0.49550673080E+02  0.00000000000E+00 0. -1.
          2    1    6    6  502    0 -0.12988267064E+03 -0.40703523767E+02 -0.57969647619E+02  0.14794176227E+03  0.00000000000E+00 0. -1.
          3    1    5    5  503    0  0.37887662218E+03  0.19704405516E+03 -0.97541051919E+03  0.10648002327E+04  0.00000000000E+00 0. -1.
         -4    1    5    5    0  503  0.11781473459E+03  0.73945469378E+02 -0.22255760112E+03  0.26245024280E+03  0.00000000000E+00 0.  1.
         -1    1    6    6    0  502 -0.50861446325E+02 -0.61330508905E+02  0.32624269077E+02  0.86096811657E+02  0.00000000000E+00 0.  1.
<mgrwt>
<rscale>  0 0.24512904E+04</rscale>
<asrwt>0</asrwt>
<pdfrwt beam="1">  1        2 0.22016090E+00 0.24512904E+04</pdfrwt>
<pdfrwt beam="2">  1       -2 0.16149633E+00 0.24512904E+04</pdfrwt>
<totfact> 0.30550875E+00</totfact>
</mgrwt>
</event>
<event>
12    1  0.2404191E-008  0.2892167E+04  0.7818608E-02  0.8275212E-01
         -2   -1    0    0    0  501 -0.00000000000E+00  0.00000000000E+00  0.86728025134E+03  0.86728025134E+03  0.00000000000E+00 0.  1.
          2   -1    0    0  501    0  0.00000000000E+00 -0.00000000000E+00 -0.24111674486E+04  0.24111674486E+04  0.00000000000E+00 0. -1.
         23    2    1    2    0    0  0.10456231628E+02  0.77079201990E+03  0.49467393983E+03  0.92076474646E+03  0.94211150347E+02 0.  0.
        254    2    1    2    0    0 -0.10456231628E+02 -0.77079201990E+03 -0.20385611371E+04  0.23576829535E+04  0.89928178492E+03 0.  0.
        -24    2    4    4    0    0 -0.12615233571E+03 -0.85830596743E+03 -0.11033340883E+04  0.14063851666E+04  0.89272509144E+02 0.  0.
         24    2    4    4    0    0  0.11569610409E+03  0.87513947528E+02 -0.93522704876E+03  0.95129778684E+03  0.96299361463E+02 0.  0.
         13    1    3    3    0    0 -0.26345013117E+02  0.89525212985E+02  0.44656371078E+02  0.10345537663E+03  0.00000000000E+00 0. -1.
        -13    1    3    3    0    0  0.36801244744E+02  0.68126680692E+03  0.45001756876E+03  0.81730936983E+03  0.00000000000E+00 0.  1.
          2    1    6    6  502    0 -0.84559208598E+01 -0.54216110478E+00 -0.21480666425E+03  0.21497371826E+03  0.00000000000E+00 0. -1.
          1    1    5    5  503    0  0.66412476518E+01 -0.11160250953E+03 -0.17456210963E+03  0.20729485382E+03  0.00000000000E+00 0. -1.
         -2    1    5    5    0  503 -0.13279358336E+03 -0.74670345790E+03 -0.92877197871E+03  0.11990903128E+04  0.00000000000E+00 0.  1.
         -1    1    6    6    0  502  0.12415202494E+03  0.88056108632E+02 -0.72042038451E+03  0.73632406859E+03  0.00000000000E+00 0.  1.
<mgrwt>
<rscale>  0 0.28921673E+04</rscale>
<asrwt>0</asrwt>
<pdfrwt beam="1">  1        2 0.37094884E+00 0.28921673E+04</pdfrwt>
<pdfrwt beam="2">  1       -2 0.13342773E+00 0.28921673E+04</pdfrwt>
<totfact> 0.13749563E+00</totfact>
</mgrwt>
</event>
<event>
12    1  0.2404191E-008  0.1243724E+04  0.7818608E-02  0.9075423E-01
         -1   -1    0    0    0  501 -0.00000000000E+00  0.00000000000E+00  0.18871417204E+04  0.18871417204E+04  0.00000000000E+00 0.  1.
          1   -1    0    0  501    0  0.00000000000E+00 -0.00000000000E+00 -0.20491958431E+03  0.20491958431E+03  0.00000000000E+00 0. -1.
         23    2    1    2    0    0  0.19752285344E+03  0.19676113650E+03  0.54659713255E+03  0.62036978049E+03  0.91433127311E+02 0.  0.
        254    2    1    2    0    0 -0.19752285344E+03 -0.19676113650E+03  0.11356250036E+04  0.14716915242E+04  0.89358915132E+03 0.  0.
        -24    2    4    4    0    0  0.33929420846E+03 -0.41847856194E+02  0.57521662033E+03  0.67366410234E+03  0.77957421151E+02 0.  0.
         24    2    4    4    0    0 -0.53681706190E+03 -0.15491328031E+03  0.56040838323E+03  0.79802742190E+03  0.10305109292E+03 0.  0.
         11    1    3    3    0    0  0.56234447921E+02  0.18310204349E+02  0.66138436313E+02  0.88723556478E+02  0.00000000000E+00 0. -1.
        -11    1    3    3    0    0  0.14128840552E+03  0.17845093215E+03  0.48045869623E+03  0.53164622401E+03  0.00000000000E+00 0.  1.
          2    1    6    6  502    0 -0.42489475542E+03 -0.91786948558E+02  0.38561629981E+03  0.58108547373E+03  0.00000000000E+00 0. -1.
          3    1    5    5  503    0  0.28118291722E+02  0.18324154872E+02  0.49683301116E+02  0.59957012859E+02  0.00000000000E+00 0. -1.
         -4    1    5    5    0  503  0.31117591674E+03 -0.60172011066E+02  0.52553331921E+03  0.61370708948E+03  0.00000000000E+00 0.  1.
         -1    1    6    6    0  502 -0.11192230648E+03 -0.63126331749E+02  0.17479208342E+03  0.21694194817E+03  0.00000000000E+00 0.  1.
<mgrwt>
<rscale>  0 0.12437239E+04</rscale>
<asrwt>0</asrwt>
<pdfrwt beam="1">  1        1 0.31526091E-01 0.12437239E+04</pdfrwt>
<pdfrwt beam="2">  1       -1 0.29032948E+00 0.12437239E+04</pdfrwt>
<totfact> 0.54516393E+00</totfact>
</mgrwt>
</event>
<event>
12    1  0.2404191E-008  0.1352689E+04  0.7818608E-02  0.8988795E-01
          2   -1    0    0  501    0  0.00000000000E+00  0.00000000000E+00  0.27273396110E+04  0.27273396110E+04  0.00000000000E+00 0. -1.
         -2   -1    0    0    0  501 -0.00000000000E+00 -0.00000000000E+00 -0.16772463340E+03  0.16772463340E+03  0.00000000000E+00 0.  1.
         23    2    1    2    0    0  0.27739033942E+03  0.15659257289E+02  0.20537078005E+03  0.35983706863E+03  0.10057308747E+03 0.  0.
        254    2    1    2    0    0 -0.27739033942E+03 -0.15659257289E+02  0.23542441976E+04  0.25352271758E+04  0.89873270678E+03 0.  0.
        -24    2    4    4    0    0 -0.36991033920E+02 -0.22161421740E+03  0.10204972110E+03  0.25907483137E+03  0.78895023466E+02 0.  0.
         24    2    4    4    0    0 -0.24039930550E+03  0.20595496011E+03  0.22521944765E+04  0.22761523444E+04  0.90995952749E+02 0.  0.
         13    1    3    3    0    0  0.16365041379E+03 -0.20912200942E+02  0.16600573199E+03  0.23404418629E+03  0.00000000000E+00 0. -1.
        -13    1    3    3    0    0  0.11373992564E+03  0.36571458231E+02  0.39365048055E+02  0.12579288235E+03  0.00000000000E+00 0.  1.
          4    1    6    6  502    0 -0.24266309640E+03  0.20216665716E+03  0.22479478664E+04  0.22700278293E+04  0.00000000000E+00 0. -1.
          1    1    5    5  503    0 -0.37429599095E+02 -0.98109992557E+02  0.10890075031E+02  0.10557054164E+03  0.00000000000E+00 0. -1.
         -2    1    5    5    0  503  0.43856517509E+00 -0.12350422485E+03  0.91159646072E+02  0.15350428973E+03  0.00000000000E+00 0.  1.
         -3    1    6    6    0  502  0.22637908984E+01  0.37883029506E+01  0.42466100609E+01  0.61245151226E+01  0.00000000000E+00 0.  1.
<mgrwt>
<rscale>  0 0.13526892E+04</rscale>
<asrwt>0</asrwt>
<pdfrwt beam="1">  1        2 0.41959068E+00 0.13526892E+04</pdfrwt>
<pdfrwt beam="2">  1       -2 0.25803792E-01 0.13526892E+04</pdfrwt>
<totfact> 0.34048680E+01</totfact>
</mgrwt>
</event>
<event>
12    1  0.2404191E-008  0.1359345E+04  0.7818608E-02  0.8983784E-01
         -1   -1    0    0    0  501 -0.00000000000E+00  0.00000000000E+00  0.47033612836E+03  0.47033612836E+03  0.00000000000E+00 0.  1.
          1   -1    0    0  501    0  0.00000000000E+00 -0.00000000000E+00 -0.98218055565E+03  0.98218055565E+03  0.00000000000E+00 0. -1.
         23    2    1    2    0    0  0.15751917645E+03  0.74611346101E+02  0.20934923479E+03  0.28807359566E+03  0.93702457262E+02 0.  0.
        254    2    1    2    0    0 -0.15751917645E+03 -0.74611346101E+02 -0.72119366207E+03  0.11644430883E+04  0.89745655263E+03 0.  0.
        -24    2    4    4    0    0 -0.36705239205E+03  0.24323862782E+03 -0.62248611881E+03  0.76657285044E+03  0.79072614410E+02 0.  0.
         24    2    4    4    0    0  0.20953321560E+03 -0.31784997392E+03 -0.98707543260E+02  0.39787023790E+03  0.60206085630E+02 0.  0.
         13    1    3    3    0    0  0.16549952833E+03  0.76086130024E+02  0.17434731819E+03  0.25214317444E+03  0.00000000000E+00 0.  1.
        -13    1    3    3    0    0 -0.79803518776E+01 -0.14747839224E+01  0.35001916595E+02  0.35930421220E+02  0.00000000000E+00 0. -1.
          2    1    6    6  502    0  0.17607398935E+03 -0.29605547001E+03 -0.79277971695E+02  0.35346271068E+03  0.00000000000E+00 0. -1.
          1    1    5    5  503    0 -0.34802767326E+02  0.54819011367E+02 -0.78344328705E+02  0.10175554266E+03  0.00000000000E+00 0. -1.
         -2    1    5    5    0  503 -0.33224962473E+03  0.18841961645E+03 -0.54414179011E+03  0.66481730779E+03  0.00000000000E+00 0.  1.
         -1    1    6    6    0  502  0.33459226252E+02 -0.21794503913E+02 -0.19429571565E+02  0.44407527216E+02  0.00000000000E+00 0.  1.
<mgrwt>
<rscale>  0 0.13593454E+04</rscale>
<asrwt>0</asrwt>
<pdfrwt beam="1">  1        1 0.15110470E+00 0.13593454E+04</pdfrwt>
<pdfrwt beam="2">  1       -1 0.72359405E-01 0.13593454E+04</pdfrwt>
<totfact> 0.29454836E+01</totfact>
</mgrwt>
</event>
<event>
12    1  0.2404191E-008  0.1553934E+04  0.7818608E-02  0.8849359E-01
         -4   -1    0    0    0  501 -0.00000000000E+00  0.00000000000E+00  0.43562968056E+03  0.43562968056E+03  0.00000000000E+00 0.  1.
          4   -1    0    0  501    0  0.00000000000E+00 -0.00000000000E+00 -0.13857585342E+04  0.13857585342E+04  0.00000000000E+00 0. -1.
         23    2    1    2    0    0 -0.25507930405E+03  0.29592139845E+03  0.67181625974E+02  0.40721721515E+03  0.93153443469E+02 0.  0.
        254    2    1    2    0    0  0.25507930405E+03 -0.29592139845E+03 -0.10173104796E+04  0.14141709996E+04  0.90129023004E+03 0.  0.
        -24    2    4    4    0    0  0.21287124577E+03 -0.50293576262E+03 -0.23832394681E+03  0.60123080133E+03  0.80135037593E+02 0.  0.
         24    2    4    4    0    0  0.42208058283E+02  0.20701436416E+03 -0.77898653275E+03  0.81294019824E+03  0.97032368535E+02 0.  0.
         13    1    3    3    0    0 -0.89458849533E+02  0.47989459480E+02 -0.28302393558E+00  0.10151824508E+03  0.00000000000E+00 0. -1.
        -13    1    3    3    0    0 -0.16562045452E+03  0.24793193897E+03  0.67464649910E+02  0.30569897008E+03  0.00000000000E+00 0.  1.
          2    1    6    6  502    0  0.45395484903E+01 -0.52211109984E+01 -0.29455653259E+01  0.75195648573E+01  0.00000000000E+00 0. -1.
          1    1    5    5  503    0 -0.31707520866E+01 -0.33011225065E+01 -0.98932613456E+01  0.10900811834E+02  0.00000000000E+00 0. -1.
         -2    1    5    5    0  503  0.21604199786E+03 -0.49963464011E+03 -0.22843068547E+03  0.59032998950E+03  0.00000000000E+00 0.  1.
         -1    1    6    6    0  502  0.37668509793E+02  0.21223547516E+03 -0.77604096743E+03  0.80542063338E+03  0.00000000000E+00 0.  1.
<mgrwt>
<rscale>  0 0.15539338E+04</rscale>
<asrwt>0</asrwt>
<pdfrwt beam="1">  1        4 0.21319362E+00 0.15539338E+04</pdfrwt>
<pdfrwt beam="2">  1       -4 0.67019951E-01 0.15539338E+04</pdfrwt>
<totfact> 0.42819067E-01</totfact>
</mgrwt>
</event>
<event>
12    1  0.2404191E-008  0.2164059E+04  0.7818608E-02  0.8533538E-01
         -1   -1    0    0    0  501 -0.00000000000E+00  0.00000000000E+00  0.66068775890E+03  0.66068775890E+03  0.00000000000E+00 0.  1.
          1   -1    0    0  501    0  0.00000000000E+00 -0.00000000000E+00 -0.17720739033E+04  0.17720739033E+04  0.00000000000E+00 0. -1.
         23    2    1    2    0    0  0.36284780766E+03 -0.10670704003E+03  0.44896411533E+03  0.59385000087E+03  0.89689033691E+02 0.  0.
        254    2    1    2    0    0 -0.36284780766E+03  0.10670704003E+03 -0.15603502598E+04  0.18389116614E+04  0.89658141919E+03 0.  0.
        -24    2    4    4    0    0 -0.23183709234E+03 -0.23202697378E+03 -0.13810990717E+04  0.14217814371E+04  0.80267396730E+02 0.  0.
         24    2    4    4    0    0 -0.13101071532E+03  0.33873401381E+03 -0.17925118806E+03  0.41713022430E+03  0.99810299875E+02 0.  0.
         11    1    3    3    0    0  0.71634249919E+02 -0.24894089600E+02  0.15244956281E+03  0.17027052200E+03  0.00000000000E+00 0. -1.
        -11    1    3    3    0    0  0.29121355774E+03 -0.81812950433E+02  0.29651455252E+03  0.42357947888E+03  0.00000000000E+00 0.  1.
          4    1    6    6  502    0 -0.12811162491E+03  0.29761556961E+03 -0.18853469160E+03  0.37487724077E+03  0.00000000000E+00 0. -1.
          1    1    5    5  503    0 -0.22213412230E+03 -0.22397587806E+03 -0.13667451287E+04  0.14026763736E+04  0.00000000000E+00 0. -1.
         -2    1    5    5    0  503 -0.97029700414E+01 -0.80510957111E+01 -0.14353942970E+02  0.19105063427E+02  0.00000000000E+00 0.  1.
         -3    1    6    6    0  502 -0.28990904098E+01  0.41118444198E+02  0.92835035452E+01  0.42252983522E+02  0.00000000000E+00 0.  1.
<mgrwt>
<rscale>  0 0.21640587E+04</rscale>
<asrwt>0</asrwt>
<pdfrwt beam="1">  1        1 0.27262675E+00 0.21640587E+04</pdfrwt>
<pdfrwt beam="2">  1       -1 0.10164427E+00 0.21640587E+04</pdfrwt>
<totfact> 0.35730536E+00</totfact>
</mgrwt>
</event>
<event>
11    1  0.2404191E-008  0.2465805E+04  0.7818608E-02  0.8415270E-01
         -2   -1    0    0    0  501 -0.00000000000E+00  0.00000000000E+00  0.12217751935E+04  0.12217751935E+04  0.00000000000E+00 0.  1.
          2   -1    0    0  501    0  0.00000000000E+00 -0.00000000000E+00 -0.12441313116E+04  0.12441313116E+04  0.00000000000E+00 0. -1.
         23    2    1    2    0    0 -0.74956735723E+03  0.49406991719E+03 -0.58313471936E+03  0.10768034461E+04  0.11620350500E+03 0.  0.
        254    2    1    2    0    0  0.74956735723E+03 -0.49406991719E+03  0.56077860129E+03  0.13891030589E+04  0.89954341892E+03 0.  0.
        -24    2    4    4    0    0  0.83680872570E+03 -0.60009579212E+03  0.59282401567E+03  0.11908783707E+04  0.79919816537E+02 0.  0.
         11    1    3    3    0    0 -0.74266778336E+03  0.50033870245E+03 -0.57345581849E+03  0.10633653320E+04  0.00000000000E+00 0. -1.
        -11    1    3    3    0    0 -0.68995738714E+01 -0.62687852671E+01 -0.96789008687E+01  0.13438114092E+02  0.00000000000E+00 0.  1.
          2    1    4    4  502    0 -0.35878865844E+02  0.13111293559E+03 -0.78705555697E+01  0.13616108305E+03  0.00000000000E+00 0. -1.
          3    1    5    5  503    0  0.65418840201E+03 -0.45627657692E+03  0.49479151642E+03  0.93859971484E+03  0.00000000000E+00 0. -1.
         -4    1    5    5    0  503  0.18262032370E+03 -0.14381921521E+03  0.98032499245E+02  0.25227865585E+03  0.00000000000E+00 0.  1.
         -1    1    4    4    0  502 -0.51362502630E+02 -0.25087060650E+02 -0.24174858812E+02  0.62063605173E+02  0.00000000000E+00 0.  1.
<mgrwt>
<rscale>  0 0.24658052E+04</rscale>
<asrwt>0</asrwt>
<pdfrwt beam="1">  1        2 0.19140482E+00 0.24658052E+04</pdfrwt>
<pdfrwt beam="2">  1       -2 0.18796541E+00 0.24658052E+04</pdfrwt>
<totfact> 0.25510075E+00</totfact>
</mgrwt>
</event>
<event>
12    1  0.2404191E-008  0.1680145E+04  0.7818608E-02  0.8772770E-01
         -2   -1    0    0    0  501 -0.00000000000E+00  0.00000000000E+00  0.25070286464E+03  0.25070286464E+03  0.00000000000E+00 0.  1.
          2   -1    0    0  501    0  0.00000000000E+00 -0.00000000000E+00 -0.28149745077E+04  0.28149745077E+04  0.00000000000E+00 0. -1.
         23    2    1    2    0    0  0.49051725642E+03 -0.20869669432E+03 -0.44270002864E+03  0.69883343593E+03  0.90682780851E+02 0.  0.
        254    2    1    2    0    0 -0.49051725642E+03  0.20869669432E+03 -0.21215716144E+04  0.23668439364E+04  0.90372706894E+03 0.  0.
        -24    2    4    4    0    0 -0.50300061924E+03  0.61795529628E+02 -0.43984584629E+03  0.67580723354E+03  0.80141986262E+02 0.  0.
         24    2    4    4    0    0  0.12483362823E+02  0.14690116470E+03 -0.16817257681E+04  0.16910367029E+04  0.98324893758E+02 0.  0.
         11    1    3    3    0    0  0.24291301273E+03 -0.90353881722E+02 -0.27168570296E+03  0.37547793130E+03  0.00000000000E+00 0. -1.
        -11    1    3    3    0    0  0.24760424369E+03 -0.11834281260E+03 -0.17101432568E+03  0.32335550463E+03  0.00000000000E+00 0.  1.
          2    1    6    6  502    0 -0.98471043731E+01 -0.12204080353E+02 -0.10830842361E+03  0.10943774333E+03  0.00000000000E+00 0. -1.
          3    1    5    5  503    0 -0.14826852514E+03  0.52572985298E+02 -0.15401559649E+03  0.22015512325E+03  0.00000000000E+00 0. -1.
         -4    1    5    5    0  503 -0.35473209410E+03  0.92225443302E+01 -0.28583024981E+03  0.45565211029E+03  0.00000000000E+00 0.  1.
         -1    1    6    6    0  502  0.22330467196E+02  0.15910524505E+03 -0.15734173445E+04  0.15815989595E+04  0.00000000000E+00 0.  1.
<mgrwt>
<rscale>  0 0.16801454E+04</rscale>
<asrwt>0</asrwt>
<pdfrwt beam="1">  1        2 0.43307301E+00 0.16801454E+04</pdfrwt>
<pdfrwt beam="2">  1       -2 0.38569671E-01 0.16801454E+04</pdfrwt>
<totfact> 0.13755119E+01</totfact>
</mgrwt>
</event>
<event>
12    1  0.2404191E-008  0.3106893E+04  0.7818608E-02  0.8213849E-01
         -1   -1    0    0    0  501 -0.00000000000E+00  0.00000000000E+00  0.12633278748E+04  0.12633278748E+04  0.00000000000E+00 0. -1.
          1   -1    0    0  501    0  0.00000000000E+00 -0.00000000000E+00 -0.19101894877E+04  0.19101894877E+04  0.00000000000E+00 0.  1.
         23    2    1    2    0    0 -0.70943702385E+02 -0.85987964465E+03  0.86171680292E+03  0.12227425030E+04  0.90096436993E+02 0.  0.
        254    2    1    2    0    0  0.70943702385E+02  0.85987964465E+03 -0.15085784158E+04  0.19507748596E+04  0.88616460322E+03 0.  0.
        -24    2    4    4    0    0 -0.15272291524E+03  0.90572944787E+03 -0.14076244500E+04  0.16826780446E+04  0.79553050940E+02 0.  0.
         24    2    4    4    0    0  0.22366661762E+03 -0.45849803223E+02 -0.10095396575E+03  0.26809681496E+03  0.97750901264E+02 0.  0.
         13    1    3    3    0    0  0.64111240204E+01 -0.17993154418E+03  0.22339541920E+03  0.28691806569E+03  0.00000000000E+00 0.  1.
        -13    1    3    3    0    0 -0.77354826405E+02 -0.67994810047E+03  0.63832138372E+03  0.93582443728E+03  0.00000000000E+00 0. -1.
          4    1    6    6  502    0  0.78059635207E+02 -0.29491644526E+02  0.10361246974E+02  0.84085784674E+02  0.00000000000E+00 0. -1.
          3    1    5    5  503    0 -0.50054899776E+02  0.49722827803E+03 -0.80287155769E+03  0.94569772740E+03  0.00000000000E+00 0. -1.
         -4    1    5    5    0  503 -0.10266801546E+03  0.40850116985E+03 -0.60475289232E+03  0.73698031720E+03  0.00000000000E+00 0.  1.
         -3    1    6    6    0  502  0.14560698241E+03 -0.16358158698E+02 -0.11131521272E+03  0.18401103028E+03  0.00000000000E+00 0.  1.
<mgrwt>
<rscale>  0 0.31068927E+04</rscale>
<asrwt>0</asrwt>
<pdfrwt beam="1">  1        1 0.29387531E+00 0.31068927E+04</pdfrwt>
<pdfrwt beam="2">  1       -1 0.19435813E+00 0.31068927E+04</pdfrwt>
<totfact> 0.47632312E-01</totfact>
</mgrwt>
</event>
<event>
12    1  0.2404191E-008  0.1056265E+04  0.7818608E-02  0.9248900E-01
          2   -1    0    0  501    0  0.00000000000E+00  0.00000000000E+00  0.70582750375E+03  0.70582750375E+03  0.00000000000E+00 0.  1.
         -2   -1    0    0    0  501 -0.00000000000E+00 -0.00000000000E+00 -0.39517300504E+03  0.39517300504E+03  0.00000000000E+00 0. -1.
         23    2    1    2    0    0  0.97667791197E+02  0.45505968398E+02  0.51127017955E+01  0.13717603509E+03  0.84742753594E+02 0.  0.
        254    2    1    2    0    0 -0.97667791197E+02 -0.45505968398E+02  0.30554179691E+03  0.96382447370E+03  0.90774007064E+03 0.  0.
        -24    2    4    4    0    0 -0.35324257709E+03  0.21801685790E+02  0.50930753112E+03  0.62535828954E+03  0.80144851784E+02 0.  0.
         24    2    4    4    0    0  0.25557478590E+03 -0.67307654188E+02 -0.20376573422E+03  0.33846618416E+03  0.56480898346E+02 0.  0.
         13    1    3    3    0    0  0.10153827208E+03  0.15603955140E+02  0.18159426331E+02  0.10432290677E+03  0.00000000000E+00 0.  1.
        -13    1    3    3    0    0 -0.38704808837E+01  0.29902013259E+02 -0.13046724535E+02  0.32853128318E+02  0.00000000000E+00 0. -1.
          2    1    6    6  502    0  0.95450014972E+02 -0.41466381835E+02 -0.51989773142E+02  0.11633186447E+03  0.00000000000E+00 0. -1.
          3    1    5    5  503    0 -0.12832736394E+03  0.11903719127E+02  0.12252594307E+03  0.17782636922E+03  0.00000000000E+00 0. -1.
         -4    1    5    5    0  503 -0.22491521315E+03  0.98979666634E+01  0.38678158805E+03  0.44753192032E+03  0.00000000000E+00 0.  1.
         -1    1    6    6    0  502  0.16012477092E+03 -0.25841272353E+02 -0.15177596107E+03  0.22213431968E+03  0.00000000000E+00 0.  1.
<mgrwt>
<rscale>  0 0.10562651E+04</rscale>
<asrwt>0</asrwt>
<pdfrwt beam="1">  1        2 0.10858885E+00 0.10562651E+04</pdfrwt>
<pdfrwt beam="2">  1       -2 0.60795847E-01 0.10562651E+04</pdfrwt>
<totfact> 0.10168996E+02</totfact>
</mgrwt>
</event>
<event>
11    1  0.2404191E-008  0.1802689E+04  0.7818608E-02  0.8704871E-01
          2   -1    0    0  501    0  0.00000000000E+00  0.00000000000E+00  0.15320151688E+04  0.15320151688E+04  0.00000000000E+00 0.  1.
         -2   -1    0    0    0  501 -0.00000000000E+00 -0.00000000000E+00 -0.53029612435E+03  0.53029612435E+03  0.00000000000E+00 0. -1.
         23    2    1    2    0    0 -0.17427852432E+03  0.13049648637E+03 -0.34960456721E+03  0.42211232827E+03  0.92483118831E+02 0.  0.
        254    2    1    2    0    0  0.17427852432E+03 -0.13049648637E+03  0.13513236116E+04  0.16401989649E+04  0.90375594271E+03 0.  0.
        -24    2    4    4    0    0 -0.27829744277E+01 -0.41765489174E+03  0.29909610769E+03  0.52060687807E+03  0.84437469856E+02 0.  0.
         13    1    3    3    0    0 -0.12149082666E+03  0.39648227368E+02 -0.22825233251E+03  0.26159344448E+03  0.00000000000E+00 0. -1.
        -13    1    3    3    0    0 -0.52787697660E+02  0.90848258999E+02 -0.12135223470E+03  0.16051888379E+03  0.00000000000E+00 0.  1.
          2    1    4    4  502    0  0.78607105013E+01  0.89342160152E+02  0.10926623755E+03  0.14136096709E+03  0.00000000000E+00 0. -1.
          1    1    5    5  503    0 -0.18193034288E+02 -0.19735918089E+02  0.10559318049E+02  0.28844274251E+02  0.00000000000E+00 0. -1.
         -2    1    5    5    0  503  0.15410059860E+02 -0.39791897365E+03  0.28853678964E+03  0.49176260382E+03  0.00000000000E+00 0.  1.
         -1    1    4    4    0  502  0.16920078825E+03  0.19781624522E+03  0.94296126640E+03  0.97823111970E+03  0.00000000000E+00 0.  1.
<mgrwt>
<rscale>  0 0.18026888E+04</rscale>
<asrwt>0</asrwt>
<pdfrwt beam="1">  1        2 0.23569464E+00 0.18026888E+04</pdfrwt>
<pdfrwt beam="2">  1       -2 0.81584020E-01 0.18026888E+04</pdfrwt>
<totfact> 0.15199293E+01</totfact>
</mgrwt>
</event>
<event>
11    1  0.2404191E-008  0.1565797E+04  0.7818608E-02  0.8841840E-01
          2   -1    0    0  501    0  0.00000000000E+00  0.00000000000E+00  0.28030000513E+03  0.28030000513E+03  0.00000000000E+00 0. -1.
         -2   -1    0    0    0  501 -0.00000000000E+00 -0.00000000000E+00 -0.21866924079E+04  0.21866924079E+04  0.00000000000E+00 0.  1.
         23    2    1    2    0    0 -0.45058189365E+03 -0.16159756905E+03 -0.34195041566E+03  0.59520214530E+03  0.90541094438E+02 0.  0.
        254    2    1    2    0    0  0.45058189365E+03  0.16159756905E+03 -0.15644419871E+04  0.18717902678E+04  0.90938564875E+03 0.  0.
        -24    2    4    4    0    0  0.19518505139E+03 -0.22219805465E+03 -0.10217956218E+03  0.32255935876E+03  0.78324307970E+02 0.  0.
         11    1    3    3    0    0 -0.27163676322E+03 -0.13646609386E+03 -0.24303932975E+03  0.38920128688E+03  0.00000000000E+00 0. -1.
        -11    1    3    3    0    0 -0.17894513043E+03 -0.25131475190E+02 -0.98911085918E+02  0.20600085841E+03  0.00000000000E+00 0.  1.
          4    1    4    4  502    0 -0.21574497477E+02  0.12752278814E+03 -0.28503646264E+03  0.31300687767E+03  0.00000000000E+00 0. -1.
          3    1    5    5  503    0  0.82767438704E+02 -0.57562154239E+02 -0.64473701864E+02  0.11966916371E+03  0.00000000000E+00 0. -1.
         -4    1    5    5    0  503  0.11241761269E+03 -0.16463590041E+03 -0.37705860319E+02  0.20289019505E+03  0.00000000000E+00 0.  1.
         -3    1    4    4    0  502  0.27697133974E+03  0.25627283556E+03 -0.11772259623E+04  0.12362240313E+04  0.00000000000E+00 0.  1.
<mgrwt>
<rscale>  0 0.15657968E+04</rscale>
<asrwt>0</asrwt>
<pdfrwt beam="1">  1        2 0.43123079E-01 0.15657968E+04</pdfrwt>
<pdfrwt beam="2">  1       -2 0.33641421E+00 0.15657968E+04</pdfrwt>
<totfact> 0.21676449E+00</totfact>
</mgrwt>
</event>
<event>
12    1  0.2404191E-008  0.1121383E+04  0.7818608E-02  0.9184598E-01
          2   -1    0    0  501    0  0.00000000000E+00  0.00000000000E+00  0.65948940015E+03  0.65948940015E+03  0.00000000000E+00 0. -1.
         -2   -1    0    0    0  501 -0.00000000000E+00 -0.00000000000E+00 -0.47669436467E+03  0.47669436467E+03  0.00000000000E+00 0.  1.
         23    2    1    2    0    0 -0.15984700862E+03  0.12714544131E+02  0.10863472457E+03  0.21605456317E+03  0.95735808797E+02 0.  0.
        254    2    1    2    0    0  0.15984700862E+03 -0.12714544131E+02  0.74160310909E+02  0.92012920165E+03  0.90300900894E+03 0.  0.
        -24    2    4    4    0    0  0.60281364618E+02 -0.37118048872E+03 -0.21425448920E+03  0.44013034156E+03  0.80005832842E+02 0.  0.
         24    2    4    4    0    0  0.99565644002E+02  0.35846594459E+03  0.28841480011E+03  0.47999886009E+03  0.93833138454E+02 0.  0.
         11    1    3    3    0    0 -0.13918626336E+03  0.33299259776E+02  0.11793109380E+03  0.18544379066E+03  0.00000000000E+00 0. -1.
        -11    1    3    3    0    0 -0.20660745255E+02 -0.20584715644E+02 -0.92963692246E+01  0.30610772506E+02  0.00000000000E+00 0.  1.
          2    1    6    6  502    0  0.59852678747E+02  0.24360161163E+03  0.24582192852E+03  0.35121575831E+03  0.00000000000E+00 0. -1.
          1    1    5    5  503    0  0.72448912674E+02 -0.26802520822E+03 -0.17943039356E+03  0.33057771147E+03  0.00000000000E+00 0. -1.
         -2    1    5    5    0  503 -0.12167548056E+02 -0.10315528051E+03 -0.34824095638E+02  0.10955263009E+03  0.00000000000E+00 0.  1.
         -1    1    6    6    0  502  0.39712965255E+02  0.11486433296E+03  0.42592871593E+02  0.12878310179E+03  0.00000000000E+00 0.  1.
<mgrwt>
<rscale>  0 0.11213829E+04</rscale>
<asrwt>0</asrwt>
<pdfrwt beam="1">  1        2 0.10145991E+00 0.11213829E+04</pdfrwt>
<pdfrwt beam="2">  1       -2 0.73337595E-01 0.11213829E+04</pdfrwt>
<totfact> 0.73525587E+01</totfact>
</mgrwt>
</event>
<event>
11    1  0.2404191E-008  0.2982758E+04  0.7818608E-02  0.8248672E-01
          2   -1    0    0  501    0  0.00000000000E+00  0.00000000000E+00  0.23156126110E+04  0.23156126110E+04  0.00000000000E+00 0. -1.
         -2   -1    0    0    0  501 -0.00000000000E+00 -0.00000000000E+00 -0.96052804861E+03  0.96052804861E+03  0.00000000000E+00 0.  1.
         23    2    1    2    0    0 -0.78005437294E+03  0.10263489651E+04  0.15997545891E+03  0.13021416195E+04  0.90020147304E+02 0.  0.
        254    2    1    2    0    0  0.78005437294E+03 -0.10263489651E+04  0.11951091035E+04  0.19739990401E+04  0.89805869426E+03 0.  0.
        -24    2    4    4    0    0  0.94392623049E+03 -0.79322852308E+03  0.82566291826E+03  0.14860892859E+04  0.80832496802E+02 0.  0.
         11    1    3    3    0    0 -0.37801199878E+03  0.44897421646E+03  0.38578197276E+02  0.58818296097E+03  0.00000000000E+00 0.  1.
        -11    1    3    3    0    0 -0.40204237416E+03  0.57737474861E+03  0.12139726163E+03  0.71395865853E+03  0.00000000000E+00 0. -1.
          2    1    4    4  502    0 -0.90321621760E+02 -0.20199837532E+02  0.91591453660E+02  0.13021145563E+03  0.00000000000E+00 0. -1.
          3    1    5    5  503    0  0.87163308143E+03 -0.70264784404E+03  0.74157193602E+03  0.13429025123E+04  0.00000000000E+00 0. -1.
         -4    1    5    5    0  503  0.72293149059E+02 -0.90580679035E+02  0.84090982247E+02  0.14318677352E+03  0.00000000000E+00 0.  1.
         -1    1    4    4    0  502 -0.73550235788E+02 -0.21292060446E+03  0.27785473159E+03  0.35769829865E+03  0.00000000000E+00 0.  1.
<mgrwt>
<rscale>  0 0.29827577E+04</rscale>
<asrwt>0</asrwt>
<pdfrwt beam="1">  1        2 0.35624809E+00 0.29827577E+04</pdfrwt>
<pdfrwt beam="2">  1       -2 0.14777355E+00 0.29827577E+04</pdfrwt>
<totfact> 0.11868479E+00</totfact>
</mgrwt>
</event>
<event>
12    1  0.2404191E-008  0.1838548E+04  0.7818608E-02  0.8686065E-01
          1   -1    0    0  501    0  0.00000000000E+00  0.00000000000E+00  0.33417240028E+04  0.33417240028E+04  0.00000000000E+00 0. -1.
         -1   -1    0    0    0  501 -0.00000000000E+00 -0.00000000000E+00 -0.25288281099E+03  0.25288281099E+03  0.00000000000E+00 0.  1.
         23    2    1    2    0    0 -0.60628152272E+03  0.17495470709E+03  0.60152166058E+03  0.87657359328E+03  0.91468693941E+02 0.  0.
        254    2    1    2    0    0  0.60628152272E+03 -0.17495470709E+03  0.24873195312E+04  0.27180332205E+04  0.89596858372E+03 0.  0.
        -24    2    4    4    0    0  0.20900448621E+03 -0.49366685047E+03  0.90921857294E+03  0.10584459084E+04  0.78990462818E+02 0.  0.
         24    2    4    4    0    0  0.39727703651E+03  0.31871214338E+03  0.15781009583E+04  0.16595873121E+04  0.66490132515E+02 0.  0.
         13    1    3    3    0    0 -0.54878335885E+03  0.15892575606E+03  0.57711751730E+03  0.81208694095E+03  0.00000000000E+00 0. -1.
        -13    1    3    3    0    0 -0.57498163874E+02  0.16028951036E+02  0.24404143277E+02  0.64486652334E+02  0.00000000000E+00 0.  1.
          4    1    6    6  502    0  0.34168938361E+03  0.30051542886E+03  0.13871120804E+04  0.14598428277E+04  0.00000000000E+00 0. -1.
          1    1    5    5  503    0  0.18553581407E+03 -0.47747084646E+03  0.87486355111E+03  0.10137988857E+04  0.00000000000E+00 0. -1.
         -2    1    5    5    0  503  0.23468672139E+02 -0.16196004014E+02  0.34355021828E+02  0.44647022776E+02  0.00000000000E+00 0.  1.
         -3    1    6    6    0  502  0.55587652897E+02  0.18196714518E+02  0.19098887786E+03  0.19974448438E+03  0.00000000000E+00 0.  1.
<mgrwt>
<rscale>  0 0.18385479E+04</rscale>
<asrwt>0</asrwt>
<pdfrwt beam="1">  1        1 0.51411135E+00 0.18385479E+04</pdfrwt>
<pdfrwt beam="2">  1       -1 0.38905050E-01 0.18385479E+04</pdfrwt>
<totfact> 0.20096314E+00</totfact>
</mgrwt>
</event>
<event>
12    1  0.2404191E-008  0.1354768E+04  0.7818608E-02  0.8987226E-01
          2   -1    0    0  501    0  0.00000000000E+00  0.00000000000E+00  0.18897419952E+04  0.18897419952E+04  0.00000000000E+00 0.  1.
         -2   -1    0    0    0  501 -0.00000000000E+00 -0.00000000000E+00 -0.24281053477E+03  0.24281053477E+03  0.00000000000E+00 0. -1.
         23    2    1    2    0    0  0.35907735277E+03  0.75063402111E+02  0.41897533596E+03  0.56489232329E+03  0.94825867580E+02 0.  0.
        254    2    1    2    0    0 -0.35907735277E+03 -0.75063402111E+02  0.12279561245E+04  0.15676602067E+04  0.90283510144E+03 0.  0.
        -24    2    4    4    0    0 -0.42095630423E+02 -0.45908850046E+03  0.58477157021E+03  0.74875785160E+03  0.78397944187E+02 0.  0.
         24    2    4    4    0    0 -0.31698172235E+03  0.38402509835E+03  0.64318455427E+03  0.81890235509E+03  0.94667881877E+02 0.  0.
         13    1    3    3    0    0  0.93234412567E+02  0.45329844844E+01  0.16979623749E+03  0.19376265353E+03  0.00000000000E+00 0.  1.
        -13    1    3    3    0    0  0.26584294021E+03  0.70530417627E+02  0.24917909847E+03  0.37112966977E+03  0.00000000000E+00 0. -1.
          4    1    6    6  502    0 -0.68291271995E+02  0.12092221261E+03  0.23786806148E+03  0.27543981921E+03  0.00000000000E+00 0. -1.
          1    1    5    5  503    0 -0.20650275571E+02 -0.22920661076E+02  0.42269663477E+02  0.52330823000E+02  0.00000000000E+00 0. -1.
         -2    1    5    5    0  503 -0.21445354851E+02 -0.43616783938E+03  0.54250190673E+03  0.69642702860E+03  0.00000000000E+00 0.  1.
         -3    1    6    6    0  502 -0.24869045036E+03  0.26310288574E+03  0.40531649278E+03  0.54346253588E+03  0.00000000000E+00 0.  1.
<mgrwt>
<rscale>  0 0.13547683E+04</rscale>
<asrwt>0</asrwt>
<pdfrwt beam="1">  1        2 0.29072953E+00 0.13547683E+04</pdfrwt>
<pdfrwt beam="2">  1       -2 0.37355468E-01 0.13547683E+04</pdfrwt>
<totfact> 0.50781683E+01</totfact>
</mgrwt>
</event>
<event>
12    1  0.2404191E-008  0.2404924E+04  0.7818608E-02  0.8437663E-01
          2   -1    0    0  501    0  0.00000000000E+00  0.00000000000E+00  0.46631225502E+04  0.46631225502E+04  0.00000000000E+00 0. -1.
         -2   -1    0    0    0  501 -0.00000000000E+00 -0.00000000000E+00 -0.31007426510E+03  0.31007426510E+03  0.00000000000E+00 0.  1.
         23    2    1    2    0    0 -0.85408094073E+03 -0.43617989635E+02  0.68248273498E+03  0.10979253520E+04  0.91107697802E+02 0.  0.
        254    2    1    2    0    0  0.85408094073E+03  0.43617989635E+02  0.36705655501E+04  0.38752714633E+04  0.90184293226E+03 0.  0.
        -24    2    4    4    0    0  0.28121971682E+02 -0.32517049416E+03  0.98479939829E+03  0.10406304223E+04  0.80963728167E+02 0.  0.
         24    2    4    4    0    0  0.82595896905E+03  0.36878848380E+03  0.26857661518E+04  0.28346410411E+04  0.60306261152E+02 0.  0.
         13    1    3    3    0    0 -0.19590576509E+03 -0.17311433661E+02  0.11075918923E+03  0.22571298707E+03  0.00000000000E+00 0. -1.
        -13    1    3    3    0    0 -0.65817517564E+03 -0.26306555974E+02  0.57172354575E+03  0.87221236490E+03  0.00000000000E+00 0.  1.
          4    1    6    6  502    0  0.27916908466E+03  0.14323596951E+03  0.85973008831E+03  0.91519820014E+03  0.00000000000E+00 0. -1.
          3    1    5    5  503    0 -0.34202685551E+01  0.19769987794E+01  0.42013565044E+02  0.42198891086E+02  0.00000000000E+00 0. -1.
         -4    1    5    5    0  503  0.31542240237E+02 -0.32714749294E+03  0.94278583325E+03  0.99843153117E+03  0.00000000000E+00 0.  1.
         -3    1    6    6    0  502  0.54678988439E+03  0.22555251429E+03  0.18260360635E+04  0.19194428410E+04  0.00000000000E+00 0.  1.
<mgrwt>
<rscale>  0 0.24049235E+04</rscale>
<asrwt>0</asrwt>
<pdfrwt beam="1">  1        2 0.71740342E+00 0.24049235E+04</pdfrwt>
<pdfrwt beam="2">  1       -2 0.47703736E-01 0.24049235E+04</pdfrwt>
<totfact> 0.31724095E-01</totfact>
</mgrwt>
</event>
<event>
12    1  0.2404191E-008  0.1452248E+04  0.7818608E-02  0.8916844E-01
         -2   -1    0    0    0  501 -0.00000000000E+00  0.00000000000E+00  0.64350386936E+03  0.64350386936E+03  0.00000000000E+00 0.  1.
          2   -1    0    0  501    0  0.00000000000E+00 -0.00000000000E+00 -0.81935178959E+03  0.81935178959E+03  0.00000000000E+00 0. -1.
         23    2    1    2    0    0 -0.22365934818E+03  0.35521191519E+03 -0.47305052522E+02  0.43317432797E+03  0.95933423267E+02 0.  0.
        254    2    1    2    0    0  0.22365934818E+03 -0.35521191519E+03 -0.12854286771E+03  0.10296813310E+04  0.93140827021E+03 0.  0.
        -24    2    4    4    0    0  0.42290103480E+03  0.10906042814E+03  0.12351448989E+03  0.46102304257E+03  0.80913251989E+02 0.  0.
         24    2    4    4    0    0 -0.19924168662E+03 -0.46427234333E+03 -0.25205735760E+03  0.56865828841E+03  0.67773733781E+02 0.  0.
         11    1    3    3    0    0 -0.20668519466E+03  0.25677141980E+03 -0.49140010061E+02  0.33326426797E+03  0.00000000000E+00 0. -1.
        -11    1    3    3    0    0 -0.16974153516E+02  0.98440495383E+02  0.18349575396E+01  0.99910059994E+02  0.00000000000E+00 0.  1.
          2    1    6    6  502    0 -0.19864756898E+02 -0.12096250672E+02 -0.12817090914E+02  0.26555708736E+02  0.00000000000E+00 0. -1.
          3    1    5    5  503    0  0.85415029369E+02  0.54290793532E+01 -0.39502496547E+01  0.85678507323E+02  0.00000000000E+00 0. -1.
         -4    1    5    5    0  503  0.33748600543E+03  0.10363134879E+03  0.12746473954E+03  0.37534453525E+03  0.00000000000E+00 0.  1.
         -1    1    6    6    0  502 -0.17937692972E+03 -0.45217609266E+03 -0.23924026669E+03  0.54210257968E+03  0.00000000000E+00 0.  1.
<mgrwt>
<rscale>  0 0.14522480E+04</rscale>
<asrwt>0</asrwt>
<pdfrwt beam="1">  1        2 0.12605412E+00 0.14522480E+04</pdfrwt>
<pdfrwt beam="2">  1       -2 0.99000596E-01 0.14522480E+04</pdfrwt>
<totfact> 0.27367886E+01</totfact>
</mgrwt>
</event>
<event>
11    1  0.2404191E-008  0.1371575E+04  0.7818608E-02  0.8974655E-01
         -2   -1    0    0    0  501 -0.00000000000E+00  0.00000000000E+00  0.47873499597E+03  0.47873499597E+03  0.00000000000E+00 0.  1.
          2   -1    0    0  501    0  0.00000000000E+00 -0.00000000000E+00 -0.98238975952E+03  0.98238975952E+03  0.00000000000E+00 0. -1.
         23    2    1    2    0    0  0.26475451448E+03  0.20571571002E+03  0.53045995229E+01  0.34762766845E+03  0.91667610470E+02 0.  0.
        254    2    1    2    0    0 -0.26475451448E+03 -0.20571571002E+03 -0.50895936307E+03  0.11134970870E+04  0.93189174441E+03 0.  0.
        -24    2    4    4    0    0 -0.38545819381E+03  0.22106051937E+03 -0.34857864343E+02  0.45259147006E+03  0.78601499133E+02 0.  0.
         13    1    3    3    0    0  0.18797659163E+03  0.17029564959E+03 -0.31148019628E+02  0.25555039893E+03  0.00000000000E+00 0. -1.
        -13    1    3    3    0    0  0.76777922856E+02  0.35420060433E+02  0.36452619150E+02  0.92077269519E+02  0.00000000000E+00 0.  1.
          2    1    4    4  502    0  0.71302374083E+02 -0.39170881632E+03 -0.39069832563E+03  0.55782166235E+03  0.00000000000E+00 0. -1.
          1    1    5    5  503    0 -0.30894004017E+03  0.20804153268E+03 -0.41120711401E+02  0.37472141738E+03  0.00000000000E+00 0. -1.
         -2    1    5    5    0  503 -0.76518153639E+02  0.13018986694E+02  0.62628470580E+01  0.77870052679E+02  0.00000000000E+00 0.  1.
         -1    1    4    4    0  502  0.49401305247E+02 -0.35067413079E+02 -0.83403173089E+02  0.10308395463E+03  0.00000000000E+00 0.  1.
<mgrwt>
<rscale>  0 0.13715748E+04</rscale>
<asrwt>0</asrwt>
<pdfrwt beam="1">  1        2 0.15113689E+00 0.13715748E+04</pdfrwt>
<pdfrwt beam="2">  1       -2 0.73651537E-01 0.13715748E+04</pdfrwt>
<totfact> 0.41931195E+01</totfact>
</mgrwt>
</event>
<event>
12    1  0.2404191E-008  0.2527682E+04  0.7818608E-02  0.8393190E-01
          2   -1    0    0  501    0  0.00000000000E+00  0.00000000000E+00  0.81109975410E+03  0.81109975410E+03  0.00000000000E+00 0. -1.
         -2   -1    0    0    0  501 -0.00000000000E+00 -0.00000000000E+00 -0.19692942206E+04  0.19692942206E+04  0.00000000000E+00 0.  1.
         23    2    1    2    0    0 -0.22584850256E+03  0.82155431709E+03  0.26048935838E+03  0.89555143306E+03  0.90546238926E+02 0.  0.
        254    2    1    2    0    0  0.22584850256E+03 -0.82155431709E+03 -0.14186838249E+04  0.18848425416E+04  0.90222423474E+03 0.  0.
        -24    2    4    4    0    0  0.29173592976E+03 -0.86608987913E+03 -0.69662489345E+03  0.11519706032E+04  0.80799114952E+02 0.  0.
         24    2    4    4    0    0 -0.65887427207E+02  0.44535562034E+02 -0.72205893141E+03  0.73287193844E+03  0.96992826424E+02 0.  0.
         11    1    3    3    0    0 -0.16455776440E+03  0.43188439503E+03  0.13096617947E+03  0.48037019960E+03  0.00000000000E+00 0. -1.
        -11    1    3    3    0    0 -0.61290738152E+02  0.38966992206E+03  0.12952317891E+03  0.41518123346E+03  0.00000000000E+00 0.  1.
          2    1    6    6  502    0 -0.46220721840E+01 -0.29197891762E+02 -0.17179462597E+03  0.17431945946E+03  0.00000000000E+00 0. -1.
          3    1    5    5  503    0  0.27724355334E+03 -0.84357556217E+03 -0.65898138284E+03  0.11057758271E+04  0.00000000000E+00 0. -1.
         -4    1    5    5    0  503  0.14492376418E+02 -0.22514316955E+02 -0.37643510603E+02  0.46194776033E+02  0.00000000000E+00 0.  1.
         -1    1    6    6    0  502 -0.61265355023E+02  0.73733453796E+02 -0.55026430544E+03  0.55855247898E+03  0.00000000000E+00 0.  1.
<mgrwt>
<rscale>  0 0.25276820E+04</rscale>
<asrwt>0</asrwt>
<pdfrwt beam="1">  1        2 0.12478458E+00 0.25276820E+04</pdfrwt>
<pdfrwt beam="2">  1       -2 0.30296834E+00 0.25276820E+04</pdfrwt>
<totfact> 0.91737985E-01</totfact>
</mgrwt>
</event>
<event>
12    1  0.2404191E-008  0.1742987E+04  0.7818608E-02  0.8737220E-01
          1   -1    0    0  501    0  0.00000000000E+00  0.00000000000E+00  0.46477157177E+03  0.46477157177E+03  0.00000000000E+00 0. -1.
         -1   -1    0    0    0  501 -0.00000000000E+00 -0.00000000000E+00 -0.16341388415E+04  0.16341388415E+04  0.00000000000E+00 0.  1.
         23    2    1    2    0    0  0.35611570605E+03 -0.49823871687E+02  0.19812586284E+03  0.42083064022E+03  0.92432439866E+02 0.  0.
        254    2    1    2    0    0 -0.35611570605E+03  0.49823871687E+02 -0.13674931326E+04  0.16780797731E+04  0.90366666576E+03 0.  0.
        -24    2    4    4    0    0 -0.57699786727E+03  0.20072647179E+03 -0.58617231769E+03  0.85036081661E+03  0.79359165131E+02 0.  0.
         24    2    4    4    0    0  0.22088216122E+03 -0.15090260010E+03 -0.78132081493E+03  0.82771895648E+03  0.55641092790E+02 0.  0.
         13    1    3    3    0    0  0.35220678073E+03 -0.35253294258E+02  0.19833135622E+03  0.40574343865E+03  0.00000000000E+00 0. -1.
        -13    1    3    3    0    0  0.39089253202E+01 -0.14570577430E+02 -0.20549337871E+00  0.15087201574E+02  0.00000000000E+00 0.  1.
          4    1    6    6  502    0  0.97840323152E+02 -0.36274344894E+02 -0.27043200439E+03  0.28986553078E+03  0.00000000000E+00 0. -1.
          1    1    5    5  503    0 -0.51842201041E+03  0.15517082388E+03 -0.50179815789E+03  0.73799780265E+03  0.00000000000E+00 0. -1.
         -2    1    5    5    0  503 -0.58575856860E+02  0.45555647914E+02 -0.84374159797E+02  0.11236301396E+03  0.00000000000E+00 0.  1.
         -3    1    6    6    0  502  0.12304183807E+03 -0.11462825521E+03 -0.51088881054E+03  0.53785342571E+03  0.00000000000E+00 0.  1.
<mgrwt>
<rscale>  0 0.17429874E+04</rscale>
<asrwt>0</asrwt>
<pdfrwt beam="1">  1        1 0.71503319E-01 0.17429874E+04</pdfrwt>
<pdfrwt beam="2">  1       -1 0.25140598E+00 0.17429874E+04</pdfrwt>
<totfact> 0.31721722E+00</totfact>
</mgrwt>
</event>
<event>
12    1  0.2404191E-008  0.1536108E+04  0.7818608E-02  0.8860790E-01
         -2   -1    0    0    0  501 -0.00000000000E+00  0.00000000000E+00  0.30615846510E+03  0.30615846510E+03  0.00000000000E+00 0.  1.
          2   -1    0    0  501    0  0.00000000000E+00 -0.00000000000E+00 -0.19268022402E+04  0.19268022402E+04  0.00000000000E+00 0. -1.
         23    2    1    2    0    0 -0.41795295156E+03  0.24039290564E+03 -0.86009210353E+03  0.99044972834E+03  0.93588562347E+02 0.  0.
        254    2    1    2    0    0  0.41795295156E+03 -0.24039290564E+03 -0.76055167153E+03  0.12425109769E+04  0.85610820806E+03 0.  0.
        -24    2    4    4    0    0  0.21078559367E+03  0.21516591869E+03 -0.64901173804E+03  0.71987346026E+03  0.79212521750E+02 0.  0.
         24    2    4    4    0    0  0.20716735789E+03 -0.45555882434E+03 -0.11153993348E+03  0.52263751666E+03  0.10127517193E+03 0.  0.
         11    1    3    3    0    0 -0.24999820873E+03  0.19004725592E+03 -0.59147938116E+03  0.66967523636E+03  0.00000000000E+00 0. -1.
        -11    1    3    3    0    0 -0.16795474283E+03  0.50345649722E+02 -0.26861272237E+03  0.32077449198E+03  0.00000000000E+00 0.  1.
          4    1    6    6  502    0  0.26720470447E+01 -0.34387661100E+02  0.15053177977E+02  0.37633087018E+02  0.00000000000E+00 0. -1.
          1    1    5    5  503    0  0.39969534639E+01 -0.45145883260E+01 -0.26863737854E+01  0.66010414981E+01  0.00000000000E+00 0. -1.
         -2    1    5    5    0  503  0.20678864020E+03  0.21968050702E+03 -0.64632536426E+03  0.71327241876E+03  0.00000000000E+00 0.  1.
         -3    1    6    6    0  502  0.20449531085E+03 -0.42117116324E+03 -0.12659311146E+03  0.48500442964E+03  0.00000000000E+00 0.  1.
<mgrwt>
<rscale>  0 0.15361078E+04</rscale>
<asrwt>0</asrwt>
<pdfrwt beam="1">  1        2 0.29643111E+00 0.15361078E+04</pdfrwt>
<pdfrwt beam="2">  1       -2 0.47101303E-01 0.15361078E+04</pdfrwt>
<totfact> 0.30211981E+01</totfact>
</mgrwt>
</event>
<event>
12    1  0.2404191E-008  0.2857831E+04  0.7818608E-02  0.8285536E-01
         -2   -1    0    0    0  501 -0.00000000000E+00  0.00000000000E+00  0.15172747953E+04  0.15172747953E+04  0.00000000000E+00 0.  1.
          2   -1    0    0  501    0  0.00000000000E+00 -0.00000000000E+00 -0.13457014732E+04  0.13457014732E+04  0.00000000000E+00 0. -1.
         23    2    1    2    0    0 -0.52897299968E+01  0.89329725854E+03  0.99974010519E+03  0.13443569844E+04  0.99032571198E+02 0.  0.
        254    2    1    2    0    0  0.52897299968E+01 -0.89329725854E+03 -0.82816678304E+03  0.15186192841E+04  0.90682762205E+03 0.  0.
        -24    2    4    4    0    0 -0.12082823675E+02 -0.14308188283E+03  0.19055747070E+03  0.25177125913E+03  0.80362910987E+02 0.  0.
         24    2    4    4    0    0  0.17372553672E+02 -0.75021537571E+03 -0.10187242537E+04  0.12668480250E+04  0.63086429705E+02 0.  0.
         11    1    3    3    0    0  0.32999567064E+01  0.46642918636E+02  0.24292691890E+02  0.52693324553E+02  0.00000000000E+00 0. -1.
        -11    1    3    3    0    0 -0.85896867033E+01  0.84665433990E+03  0.97544741330E+03  0.12916636598E+04  0.00000000000E+00 0.  1.
          4    1    6    6  502    0 -0.18286079718E+02 -0.41397860587E+03 -0.53662826963E+03  0.67799894292E+03  0.00000000000E+00 0. -1.
          1    1    5    5  503    0  0.19906680776E+02 -0.39976110651E+02  0.17836528745E+02  0.48088534184E+02  0.00000000000E+00 0. -1.
         -2    1    5    5    0  503 -0.31989504451E+02 -0.10310577218E+03  0.17272094195E+03  0.20368272495E+03  0.00000000000E+00 0.  1.
         -3    1    6    6    0  502  0.35658633390E+02 -0.33623676983E+03 -0.48209598411E+03  0.58884908204E+03  0.00000000000E+00 0.  1.
<mgrwt>
<rscale>  0 0.28578306E+04</rscale>
<asrwt>0</asrwt>
<pdfrwt beam="1">  1        2 0.20703099E+00 0.28578306E+04</pdfrwt>
<pdfrwt beam="2">  1       -2 0.23342689E+00 0.28578306E+04</pdfrwt>
<totfact> 0.10960759E+00</totfact>
</mgrwt>
</event>
<event>
12    1  0.2404191E-008  0.1548247E+04  0.7818608E-02  0.8852988E-01
         -2   -1    0    0    0  501 -0.00000000000E+00  0.00000000000E+00  0.40880145253E+03  0.40880145253E+03  0.00000000000E+00 0.  1.
          2   -1    0    0  501    0  0.00000000000E+00 -0.00000000000E+00 -0.14659121851E+04  0.14659121851E+04  0.00000000000E+00 0. -1.
         23    2    1    2    0    0 -0.23715585513E+03 -0.41505304925E+03 -0.13781338083E+03  0.50509566821E+03  0.87276416040E+02 0.  0.
        254    2    1    2    0    0  0.23715585513E+03  0.41505304925E+03 -0.91929735175E+03  0.13696179694E+04  0.89567506827E+03 0.  0.
        -24    2    4    4    0    0  0.16250673100E+03  0.49167621169E+03 -0.10504169885E+04  0.11739296550E+04  0.81123673329E+02 0.  0.
         24    2    4    4    0    0  0.74649124130E+02 -0.76623162438E+02  0.13111963676E+03  0.19568831443E+03  0.98274902716E+02 0.  0.
         11    1    3    3    0    0 -0.92075484750E+02 -0.24303357781E+03 -0.90066233689E+02  0.27505479688E+03  0.00000000000E+00 0.  1.
        -11    1    3    3    0    0 -0.14508037038E+03 -0.17201947144E+03 -0.47747147138E+02  0.23004087133E+03  0.00000000000E+00 0. -1.
          2    1    6    6  502    0  0.61080063500E+02 -0.92328219908E+02  0.13498717162E+03  0.17457608900E+03  0.00000000000E+00 0. -1.
          1    1    5    5  503    0  0.15003057092E+03  0.39329389065E+03 -0.78770042713E+03  0.89311881602E+03  0.00000000000E+00 0. -1.
         -2    1    5    5    0  503  0.12476160077E+02  0.98382321047E+02 -0.26271656138E+03  0.28081083898E+03  0.00000000000E+00 0.  1.
         -1    1    6    6    0  502  0.13569060630E+02  0.15705057469E+02 -0.38675348628E+01  0.21112225425E+02  0.00000000000E+00 0.  1.
<mgrwt>
<rscale>  0 0.15482468E+04</rscale>
<asrwt>0</asrwt>
<pdfrwt beam="1">  1        2 0.22552495E+00 0.15482468E+04</pdfrwt>
<pdfrwt beam="2">  1       -2 0.62892531E-01 0.15482468E+04</pdfrwt>
<totfact> 0.29932053E+01</totfact>
</mgrwt>
</event>
<event>
11    1  0.2404191E-008  0.1982354E+04  0.7818608E-02  0.8614916E-01
         -2   -1    0    0    0  501 -0.00000000000E+00  0.00000000000E+00  0.53501853749E+03  0.53501853749E+03  0.00000000000E+00 0.  1.
          2   -1    0    0  501    0  0.00000000000E+00 -0.00000000000E+00 -0.18362571986E+04  0.18362571986E+04  0.00000000000E+00 0. -1.
         23    2    1    2    0    0  0.17456963806E+03  0.41002887122E+03 -0.12906779859E+04  0.13684167354E+04  0.90091423988E+02 0.  0.
        254    2    1    2    0    0 -0.17456963806E+03 -0.41002887122E+03 -0.10560675201E+02  0.10028590007E+04  0.89834092282E+03 0.  0.
        -24    2    4    4    0    0 -0.77769814745E+02 -0.27614737010E+03  0.42253765802E+03  0.51668824494E+03  0.78250596896E+02 0.  0.
         13    1    3    3    0    0  0.57297850010E+02  0.14927103534E+03 -0.34083982513E+03  0.37647931152E+03  0.00000000000E+00 0.  1.
        -13    1    3    3    0    0  0.11727178805E+03  0.26075783587E+03 -0.94983816074E+03  0.99193742385E+03  0.00000000000E+00 0. -1.
          4    1    4    4  502    0 -0.96061255433E+01 -0.12447176936E+03 -0.18637202972E+03  0.22432127068E+03  0.00000000000E+00 0. -1.
          1    1    5    5  503    0 -0.48183818148E+01  0.57817233278E-01 -0.18032379519E+01  0.51450766036E+01  0.00000000000E+00 0. -1.
         -2    1    5    5    0  503 -0.72951432930E+02 -0.27620518734E+03  0.42434089598E+03  0.51154316834E+03  0.00000000000E+00 0.  1.
         -3    1    4    4    0  502 -0.87193697771E+02 -0.94097317494E+01 -0.24672630350E+03  0.26184948505E+03  0.00000000000E+00 0.  1.
<mgrwt>
<rscale>  0 0.19823538E+04</rscale>
<asrwt>0</asrwt>
<pdfrwt beam="1">  1        2 0.28250111E+00 0.19823538E+04</pdfrwt>
<pdfrwt beam="2">  1       -2 0.82310544E-01 0.19823538E+04</pdfrwt>
<totfact> 0.99341682E+00</totfact>
</mgrwt>
</event>
<event>
12    1  0.2404191E-008  0.1116802E+04  0.7818608E-02  0.9188968E-01
          2   -1    0    0  501    0  0.00000000000E+00  0.00000000000E+00  0.12626660708E+04  0.12626660708E+04  0.00000000000E+00 0. -1.
         -2   -1    0    0    0  501 -0.00000000000E+00 -0.00000000000E+00 -0.24694708750E+03  0.24694708750E+03  0.00000000000E+00 0.  1.
         23    2    1    2    0    0  0.55348334309E+02 -0.85879372010E+02  0.37361100997E+03  0.39793780770E+03  0.91272161022E+02 0.  0.
        254    2    1    2    0    0 -0.55348334309E+02  0.85879372010E+02  0.64210797333E+03  0.11116753506E+04  0.90170989297E+03 0.  0.
        -24    2    4    4    0    0  0.39556354364E+03  0.73351382202E+02  0.15187717722E+03  0.43758899307E+03  0.81033990159E+02 0.  0.
         24    2    4    4    0    0 -0.45091187795E+03  0.12527989807E+02  0.49023079610E+03  0.67408635753E+03  0.10289660712E+03 0.  0.
         11    1    3    3    0    0  0.64439557888E+02 -0.16984662029E+02  0.20530979622E+03  0.21585422810E+03  0.00000000000E+00 0.  1.
        -11    1    3    3    0    0 -0.90912235784E+01 -0.68894709981E+02  0.16830121375E+03  0.18208357960E+03  0.00000000000E+00 0. -1.
          2    1    6    6  502    0 -0.42740060232E+03  0.35637472236E+02  0.46488332542E+03  0.63250123363E+03  0.00000000000E+00 0. -1.
          1    1    5    5  503    0  0.24578700479E+03  0.21717260374E+02  0.58117193004E+02  0.25349654681E+03  0.00000000000E+00 0. -1.
         -2    1    5    5    0  503  0.14977653885E+03  0.51634121829E+02  0.93759984219E+02  0.18409244625E+03  0.00000000000E+00 0.  1.
         -1    1    6    6    0  502 -0.23511275632E+02 -0.23109482428E+02  0.25347470687E+02  0.41585123905E+02  0.00000000000E+00 0.  1.
<mgrwt>
<rscale>  0 0.11168021E+04</rscale>
<asrwt>0</asrwt>
<pdfrwt beam="1">  1        2 0.19425632E+00 0.11168021E+04</pdfrwt>
<pdfrwt beam="2">  1       -2 0.37991860E-01 0.11168021E+04</pdfrwt>
<totfact> 0.11267946E+02</totfact>
</mgrwt>
</event>
<event>
11    1  0.2404191E-008  0.1215191E+04  0.7818608E-02  0.9099663E-01
         -1   -1    0    0    0  501 -0.00000000000E+00  0.00000000000E+00  0.49815440965E+03  0.49815440965E+03  0.00000000000E+00 0.  1.
          1   -1    0    0  501    0  0.00000000000E+00 -0.00000000000E+00 -0.74108025694E+03  0.74108025694E+03  0.00000000000E+00 0. -1.
         23    2    1    2    0    0  0.43031643050E+02  0.15142935723E+00  0.12160701078E+03  0.16666625187E+03  0.10553496675E+03 0.  0.
        254    2    1    2    0    0 -0.43031643050E+02 -0.15142935723E+00 -0.36453285807E+03  0.10725684147E+04  0.10078030831E+04 0.  0.
        -24    2    4    4    0    0  0.12576608231E+03  0.21274269870E+03 -0.51534442937E+02  0.26485212341E+03  0.80089232447E+02 0.  0.
         11    1    3    3    0    0  0.11837036010E+02 -0.43013128718E+02  0.14262302969E+02  0.46836502320E+02  0.00000000000E+00 0. -1.
        -11    1    3    3    0    0  0.31194607039E+02  0.43164558075E+02  0.10734470781E+03  0.11982974955E+03  0.00000000000E+00 0.  1.
          2    1    4    4  502    0 -0.29584240769E+03 -0.17888602044E+03  0.11154351124E+03  0.36326972540E+03  0.00000000000E+00 0. -1.
          3    1    5    5  503    0  0.11292206427E+03  0.21464641279E+03 -0.36968125308E+02  0.24533878089E+03  0.00000000000E+00 0. -1.
         -4    1    5    5    0  503  0.12844018046E+02 -0.19037140858E+01 -0.14566317629E+02  0.19513342516E+02  0.00000000000E+00 0.  1.
         -1    1    4    4    0  502  0.12704468232E+03 -0.34008107620E+02 -0.42454192637E+03  0.44444656590E+03  0.00000000000E+00 0.  1.
<mgrwt>
<rscale>  0 0.12151912E+04</rscale>
<asrwt>0</asrwt>
<pdfrwt beam="1">  1        1 0.11401235E+00 0.12151912E+04</pdfrwt>
<pdfrwt beam="2">  1       -1 0.76639140E-01 0.12151912E+04</pdfrwt>
<totfact> 0.42168099E+01</totfact>
</mgrwt>
</event>
<event>
11    1  0.2404191E-008  0.1850282E+04  0.7818608E-02  0.8680008E-01
          2   -1    0    0  501    0  0.00000000000E+00  0.00000000000E+00  0.12751756874E+04  0.12751756874E+04  0.00000000000E+00 0. -1.
         -2   -1    0    0    0  501 -0.00000000000E+00 -0.00000000000E+00 -0.67119057636E+03  0.67119057636E+03  0.00000000000E+00 0.  1.
         23    2    1    2    0    0 -0.62082539313E+03  0.19013756900E+03 -0.57764400290E+02  0.65855990927E+03  0.93744142556E+02 0.  0.
        254    2    1    2    0    0  0.62082539313E+03 -0.19013756900E+03  0.66174951138E+03  0.12878063545E+04  0.89384356969E+03 0.  0.
        -24    2    4    4    0    0  0.57111285312E+03 -0.31378872257E+03  0.82154923430E+03  0.10516417631E+04  0.79837335996E+02 0.  0.
         11    1    3    3    0    0 -0.61363972809E+03  0.17350175107E+03 -0.53452566364E+02  0.63993261392E+03  0.00000000000E+00 0.  1.
        -11    1    3    3    0    0 -0.71856650376E+01  0.16635817927E+02 -0.43118339266E+01  0.18627295347E+02  0.00000000000E+00 0. -1.
          2    1    4    4  502    0  0.79595691244E+02  0.90603980424E+02 -0.14631959660E+03  0.18961534664E+03  0.00000000000E+00 0. -1.
          1    1    5    5  503    0  0.50137034859E+03 -0.27439680050E+03  0.75836220960E+03  0.94962048815E+03  0.00000000000E+00 0. -1.
         -2    1    5    5    0  503  0.69742504526E+02 -0.39391922068E+02  0.63187024698E+02  0.10202127500E+03  0.00000000000E+00 0.  1.
         -1    1    4    4    0  502 -0.29883151237E+02  0.33047173142E+02 -0.13480126325E+02  0.46549244745E+02  0.00000000000E+00 0.  1.
<mgrwt>
<rscale>  0 0.18502820E+04</rscale>
<asrwt>0</asrwt>
<pdfrwt beam="1">  1        2 0.19618088E+00 0.18502820E+04</pdfrwt>
<pdfrwt beam="2">  1       -2 0.10326009E+00 0.18502820E+04</pdfrwt>
<totfact> 0.12300479E+01</totfact>
</mgrwt>
</event>
<event>
11    1  0.2404191E-008  0.1636912E+04  0.7818608E-02  0.8798187E-01
          2   -1    0    0  501    0  0.00000000000E+00  0.00000000000E+00  0.17479954753E+04  0.17479954753E+04  0.00000000000E+00 0. -1.
         -2   -1    0    0    0  501 -0.00000000000E+00 -0.00000000000E+00 -0.38322172038E+03  0.38322172038E+03  0.00000000000E+00 0.  1.
         23    2    1    2    0    0 -0.41892759369E+03 -0.27603921891E+03  0.14282797464E+03  0.52953828085E+03  0.91175552695E+02 0.  0.
        254    2    1    2    0    0  0.41892759369E+03  0.27603921891E+03  0.12219457803E+04  0.16016789149E+04  0.90582883439E+03 0.  0.
        -24    2    4    4    0    0 -0.23435698618E+03  0.11454226320E+03  0.25244439482E+03  0.37139443467E+03  0.78501761757E+02 0.  0.
         11    1    3    3    0    0 -0.29171813645E+03 -0.17485292752E+03  0.13766165913E+03  0.36691109249E+03  0.00000000000E+00 0. -1.
        -11    1    3    3    0    0 -0.12720945724E+03 -0.10118629139E+03  0.51663155078E+01  0.16262718836E+03  0.00000000000E+00 0.  1.
          4    1    4    4  502    0  0.35068996814E+03 -0.25599243430E+02  0.26243795281E+03  0.43876241190E+03  0.00000000000E+00 0. -1.
          1    1    5    5  503    0 -0.20975754783E+03  0.72007495175E+02  0.19073095861E+03  0.29250915678E+03  0.00000000000E+00 0. -1.
         -2    1    5    5    0  503 -0.24599438355E+02  0.42534768024E+02  0.61713436216E+02  0.78885277890E+02  0.00000000000E+00 0.  1.
         -3    1    4    4    0  502  0.30259461173E+03  0.18709619914E+03  0.70706343268E+03  0.79152206831E+03  0.00000000000E+00 0.  1.
<mgrwt>
<rscale>  0 0.16369115E+04</rscale>
<asrwt>0</asrwt>
<pdfrwt beam="1">  1        2 0.26892238E+00 0.16369115E+04</pdfrwt>
<pdfrwt beam="2">  1       -2 0.58957189E-01 0.16369115E+04</pdfrwt>
<totfact> 0.23699240E+01</totfact>
</mgrwt>
</event>
<event>
12    1  0.2404191E-008  0.1892917E+04  0.7818608E-02  0.8658390E-01
         -2   -1    0    0    0  501 -0.00000000000E+00  0.00000000000E+00  0.21223964701E+04  0.21223964701E+04  0.00000000000E+00 0.  1.
          2   -1    0    0  501    0  0.00000000000E+00 -0.00000000000E+00 -0.42206218983E+03  0.42206218983E+03  0.00000000000E+00 0. -1.
         23    2    1    2    0    0  0.34584016090E+03  0.24855112966E+01 -0.19790062842E+03  0.40857177923E+03  0.90303075236E+02 0.  0.
        254    2    1    2    0    0 -0.34584016090E+03 -0.24855112966E+01  0.18982349087E+04  0.21358868807E+04  0.91602696681E+03 0.  0.
        -24    2    4    4    0    0  0.10239581733E+03 -0.36303308034E+03  0.62054640486E+03  0.73146571098E+03  0.87671688264E+02 0.  0.
         24    2    4    4    0    0 -0.44823597823E+03  0.36054756905E+03  0.12776885039E+04  0.14044211698E+04  0.94872901388E+02 0.  0.
         11    1    3    3    0    0  0.25596815248E+03  0.34755367496E+02 -0.11768906548E+03  0.28386325367E+03  0.00000000000E+00 0. -1.
        -11    1    3    3    0    0  0.89872008422E+02 -0.32269856200E+02 -0.80211562947E+02  0.12470852556E+03  0.00000000000E+00 0.  1.
          4    1    6    6  502    0 -0.11690725456E+03  0.49093955995E+02  0.23896181289E+03  0.27051852192E+03  0.00000000000E+00 0. -1.
          1    1    5    5  503    0 -0.11672922157E+02 -0.29649382425E+02  0.29869065097E+02  0.43674981850E+02  0.00000000000E+00 0. -1.
         -2    1    5    5    0  503  0.11406873949E+03 -0.33338369792E+03  0.59067733976E+03  0.68779072913E+03  0.00000000000E+00 0.  1.
         -1    1    6    6    0  502 -0.33132872367E+03  0.31145361305E+03  0.10387266910E+04  0.11339026478E+04  0.00000000000E+00 0.  1.
<mgrwt>
<rscale>  0 0.18929166E+04</rscale>
<asrwt>0</asrwt>
<pdfrwt beam="1">  1        2 0.64932646E-01 0.18929166E+04</pdfrwt>
<pdfrwt beam="2">  1       -2 0.32652253E+00 0.18929166E+04</pdfrwt>
<totfact> 0.15332797E+00</totfact>
</mgrwt>
</event>
<event>
11    1  0.2404191E-008  0.1210336E+04  0.7818608E-02  0.9103857E-01
          1   -1    0    0  501    0  0.00000000000E+00  0.00000000000E+00  0.35560783655E+03  0.35560783655E+03  0.00000000000E+00 0. -1.
         -1   -1    0    0    0  501 -0.00000000000E+00 -0.00000000000E+00 -0.10298664028E+04  0.10298664028E+04  0.00000000000E+00 0.  1.
         23    2    1    2    0    0  0.14345219956E+03 -0.32725345566E+02 -0.39710559306E+03  0.43349711712E+03  0.92614344002E+02 0.  0.
        254    2    1    2    0    0 -0.14345219956E+03  0.32725345566E+02 -0.27715297323E+03  0.95197712226E+03  0.89877538292E+03 0.  0.
        -24    2    4    4    0    0 -0.85979182233E+01 -0.10060976371E+02 -0.56929346884E+03  0.57504514205E+03  0.80041953264E+02 0.  0.
         11    1    3    3    0    0  0.14765091656E+03 -0.23250884014E+02 -0.39576201701E+03  0.42304724426E+03  0.00000000000E+00 0.  1.
        -11    1    3    3    0    0 -0.41987170051E+01 -0.94744615522E+01 -0.13435760469E+01  0.10449872860E+02  0.00000000000E+00 0. -1.
          4    1    4    4  502    0 -0.35777981943E+02  0.10177961106E+02 -0.23839822162E+02  0.44181353589E+02  0.00000000000E+00 0. -1.
          1    1    5    5  503    0 -0.15381400603E+02  0.23795930206E+02 -0.86584650057E+02  0.91102883623E+02  0.00000000000E+00 0. -1.
         -2    1    5    5    0  503  0.67834823794E+01 -0.33856906576E+02 -0.48270881878E+03  0.48394225842E+03  0.00000000000E+00 0.  1.
         -3    1    4    4    0  502 -0.99076299392E+02  0.32608360831E+02  0.31598031778E+03  0.33275062662E+03  0.00000000000E+00 0.  1.
<mgrwt>
<rscale>  0 0.12103364E+04</rscale>
<asrwt>0</asrwt>
<pdfrwt beam="1">  1        1 0.54708899E-01 0.12103364E+04</pdfrwt>
<pdfrwt beam="2">  1       -1 0.15844098E+00 0.12103364E+04</pdfrwt>
<totfact> 0.20831191E+01</totfact>
</mgrwt>
</event>
<event>
11    1  0.2404191E-008  0.2144444E+04  0.7818608E-02  0.8541914E-01
          1   -1    0    0  501    0  0.00000000000E+00  0.00000000000E+00  0.23810548420E+04  0.23810548420E+04  0.00000000000E+00 0. -1.
         -1   -1    0    0    0  501 -0.00000000000E+00 -0.00000000000E+00 -0.48283661981E+03  0.48283661981E+03  0.00000000000E+00 0.  1.
         23    2    1    2    0    0 -0.39718500160E+03  0.14653434689E+03  0.18212339514E+04  0.18725468796E+04  0.10154048574E+03 0.  0.
        254    2    1    2    0    0  0.39718500160E+03 -0.14653434689E+03  0.76984270792E+02  0.99134458222E+03  0.89308972810E+03 0.  0.
        -24    2    4    4    0    0  0.12109801610E+03 -0.27512535506E+03 -0.33098074668E+03  0.45424881696E+03  0.80218716899E+02 0.  0.
         11    1    3    3    0    0 -0.22601328166E+03  0.13257133836E+03  0.10204371244E+04  0.10535412133E+04  0.00000000000E+00 0. -1.
        -11    1    3    3    0    0 -0.17117171994E+03  0.13963008524E+02  0.80079682700E+03  0.81900566631E+03  0.00000000000E+00 0.  1.
          2    1    4    4  502    0  0.20714395778E+03  0.13662167679E+03  0.20268418925E+03  0.32039816227E+03  0.00000000000E+00 0. -1.
          1    1    5    5  503    0  0.11974594680E+03 -0.27582490872E+03 -0.30527799435E+03  0.42850102203E+03  0.00000000000E+00 0. -1.
         -2    1    5    5    0  503  0.13520693031E+01  0.69955366398E+00 -0.25702752325E+02  0.25747794931E+02  0.00000000000E+00 0.  1.
         -1    1    4    4    0  502  0.68943027726E+02 -0.80306686204E+01  0.20528082822E+03  0.21669760300E+03  0.00000000000E+00 0.  1.
<mgrwt>
<rscale>  0 0.21444444E+04</rscale>
<asrwt>0</asrwt>
<pdfrwt beam="1">  1        1 0.36631612E+00 0.21444444E+04</pdfrwt>
<pdfrwt beam="2">  1       -1 0.74282558E-01 0.21444444E+04</pdfrwt>
<totfact> 0.27361779E+00</totfact>
</mgrwt>
</event>
<event>
12    1  0.2404191E-008  0.1739195E+04  0.7818608E-02  0.8739320E-01
          2   -1    0    0  501    0  0.00000000000E+00  0.00000000000E+00  0.10367366415E+04  0.10367366415E+04  0.00000000000E+00 0. -1.
         -2   -1    0    0    0  501 -0.00000000000E+00 -0.00000000000E+00 -0.72940391674E+03  0.72940391674E+03  0.00000000000E+00 0.  1.
         23    2    1    2    0    0 -0.46722228839E+03  0.32412210823E+03  0.40071343447E+03  0.70250575617E+03  0.97935045212E+02 0.  0.
        254    2    1    2    0    0  0.46722228839E+03 -0.32412210823E+03 -0.93380709750E+02  0.10636348020E+04  0.89400627923E+03 0.  0.
        -24    2    4    4    0    0  0.40720563866E+03 -0.29890500088E+03  0.34349896026E+03  0.61672421186E+03  0.84832694713E+02 0.  0.
         24    2    4    4    0    0  0.60016649735E+02 -0.25217107352E+02 -0.43687967001E+03  0.44691059016E+03  0.68024471939E+02 0.  0.
         13    1    3    3    0    0 -0.44668663144E+03  0.32776050942E+03  0.37331077172E+03  0.66806948031E+03  0.00000000000E+00 0. -1.
        -13    1    3    3    0    0 -0.20535656951E+02 -0.36384011862E+01  0.27402662749E+02  0.34436275863E+02  0.00000000000E+00 0.  1.
          2    1    6    6  502    0  0.26569084435E+02  0.21762056166E+02 -0.21146899665E+03  0.21423967858E+03  0.00000000000E+00 0. -1.
          3    1    5    5  503    0  0.95510458186E+01 -0.28763990321E+02  0.30959886674E+02  0.43325560565E+02  0.00000000000E+00 0. -1.
         -4    1    5    5    0  503  0.39765459284E+03 -0.27014101056E+03  0.31253907359E+03  0.57339865129E+03  0.00000000000E+00 0.  1.
         -1    1    6    6    0  502  0.33447565300E+02 -0.46979163518E+02 -0.22541067336E+03  0.23267091158E+03  0.00000000000E+00 0.  1.
<mgrwt>
<rscale>  0 0.17391949E+04</rscale>
<asrwt>0</asrwt>
<pdfrwt beam="1">  1        2 0.15949794E+00 0.17391949E+04</pdfrwt>
<pdfrwt beam="2">  1       -2 0.11221599E+00 0.17391949E+04</pdfrwt>
<totfact> 0.14172463E+01</totfact>
</mgrwt>
</event>
<event>
12    1  0.2404191E-008  0.3114471E+04  0.7818608E-02  0.8211778E-01
         -2   -1    0    0    0  501 -0.00000000000E+00  0.00000000000E+00  0.13983482306E+04  0.13983482306E+04  0.00000000000E+00 0.  1.
          2   -1    0    0  501    0  0.00000000000E+00 -0.00000000000E+00 -0.17341761869E+04  0.17341761869E+04  0.00000000000E+00 0. -1.
         23    2    1    2    0    0 -0.16471730155E+03  0.87656170974E+03 -0.12801987730E+04  0.15641952255E+04  0.11093054063E+03 0.  0.
        254    2    1    2    0    0  0.16471730155E+03 -0.87656170974E+03  0.94437081667E+03  0.15683291920E+04  0.87882193564E+03 0.  0.
        -24    2    4    4    0    0  0.45721014252E+03 -0.80259837091E+03  0.62813362212E+03  0.11198821192E+04  0.79867729249E+02 0.  0.
         24    2    4    4    0    0 -0.29249284097E+03 -0.73963338835E+02  0.31623719455E+03  0.44844707280E+03  0.10038015928E+03 0.  0.
         13    1    3    3    0    0  0.48286006723E+01 -0.68099091028E-01 -0.14278180460E+02  0.15072705768E+02  0.00000000000E+00 0.  1.
        -13    1    3    3    0    0 -0.16954590222E+03  0.87662980883E+03 -0.12659205925E+04  0.15491225198E+04  0.00000000000E+00 0. -1.
          2    1    6    6  502    0 -0.18658560126E+03 -0.44127290139E+01  0.22489106402E+03  0.29224929333E+03  0.00000000000E+00 0. -1.
          1    1    5    5  503    0  0.91256750548E+02 -0.11710716776E+03  0.12577724285E+03  0.19458108356E+03  0.00000000000E+00 0. -1.
         -2    1    5    5    0  503  0.36595339197E+03 -0.68549120315E+03  0.50235637927E+03  0.92530103560E+03  0.00000000000E+00 0.  1.
         -1    1    6    6    0  502 -0.10590723970E+03 -0.69550609821E+02  0.91346130533E+02  0.15619777947E+03  0.00000000000E+00 0.  1.
<mgrwt>
<rscale>  0 0.31144709E+04</rscale>
<asrwt>0</asrwt>
<pdfrwt beam="1">  1        2 0.26679634E+00 0.31144709E+04</pdfrwt>
<pdfrwt beam="2">  1       -2 0.21513050E+00 0.31144709E+04</pdfrwt>
<totfact> 0.84501574E-01</totfact>
</mgrwt>
</event>
<event>
12    1  0.2404191E-008  0.1466442E+04  0.7818608E-02  0.8907081E-01
          2   -1    0    0  501    0  0.00000000000E+00  0.00000000000E+00  0.14912540661E+04  0.14912540661E+04  0.00000000000E+00 0. -1.
         -2   -1    0    0    0  501 -0.00000000000E+00 -0.00000000000E+00 -0.36051045447E+03  0.36051045447E+03  0.00000000000E+00 0.  1.
         23    2    1    2    0    0 -0.13459692134E+02  0.33049688367E+02 -0.21106535790E+03  0.23189877089E+03  0.89190859508E+02 0.  0.
        254    2    1    2    0    0  0.13459692134E+02 -0.33049688367E+02  0.13418089695E+04  0.16198657497E+04  0.90677466388E+03 0.  0.
        -24    2    4    4    0    0  0.10421479697E+03  0.35234014341E+03  0.10576073215E+04  0.11230033888E+04  0.87172610912E+02 0.  0.
         24    2    4    4    0    0 -0.90755104834E+02 -0.38538983177E+03  0.28420164799E+03  0.49686236089E+03  0.96642731038E+02 0.  0.
         11    1    3    3    0    0  0.21418545031E+02 -0.18652357700E+02 -0.34761593646E+02  0.44889117966E+02  0.00000000000E+00 0. -1.
        -11    1    3    3    0    0 -0.34878237165E+02  0.51702046066E+02 -0.17630376425E+03  0.18700965292E+03  0.00000000000E+00 0.  1.
          2    1    6    6  502    0 -0.11165265435E+03 -0.32380328551E+03  0.23995852587E+03  0.41820446802E+03  0.00000000000E+00 0. -1.
          3    1    5    5  503    0  0.11060697413E+03  0.31170495408E+03  0.86556310342E+03  0.92660313356E+03  0.00000000000E+00 0. -1.
         -4    1    5    5    0  503 -0.63921771579E+01  0.40635189328E+02  0.19204421811E+03  0.19640025521E+03  0.00000000000E+00 0.  1.
         -1    1    6    6    0  502  0.20897549519E+02 -0.61586546262E+02  0.44243122116E+02  0.78657892871E+02  0.00000000000E+00 0.  1.
<mgrwt>
<rscale>  0 0.14664415E+04</rscale>
<asrwt>0</asrwt>
<pdfrwt beam="1">  1        2 0.22942370E+00 0.14664415E+04</pdfrwt>
<pdfrwt beam="2">  1       -2 0.55463148E-01 0.14664415E+04</pdfrwt>
<totfact> 0.37987691E+01</totfact>
</mgrwt>
</event>
<event>
12    1  0.2404191E-008  0.1648139E+04  0.7818608E-02  0.8791508E-01
          1   -1    0    0  501    0  0.00000000000E+00  0.00000000000E+00  0.31843330178E+03  0.31843330178E+03  0.00000000000E+00 0. -1.
         -1   -1    0    0    0  501 -0.00000000000E+00 -0.00000000000E+00 -0.21325982948E+04  0.21325982948E+04  0.00000000000E+00 0.  1.
         23    2    1    2    0    0  0.15952818836E+03  0.84504133855E+02  0.17028257098E+03  0.26443195157E+03  0.91312165178E+02 0.  0.
        254    2    1    2    0    0 -0.15952818836E+03 -0.84504133855E+02 -0.19844475640E+04  0.21865996451E+04  0.90033087353E+03 0.  0.
        -24    2    4    4    0    0 -0.15798677479E+03 -0.18363153731E+03 -0.20402304299E+04  0.20560998633E+04  0.79536646585E+02 0.  0.
         24    2    4    4    0    0 -0.15414135762E+01  0.99127403452E+02  0.55782865883E+02  0.13049978177E+03  0.63951910405E+02 0.  0.
         13    1    3    3    0    0  0.14892017288E+03  0.57233490771E+02  0.17264845035E+03  0.23507525979E+03  0.00000000000E+00 0. -1.
        -13    1    3    3    0    0  0.10608015481E+02  0.27270643084E+02 -0.23658793763E+01  0.29356691773E+02  0.00000000000E+00 0.  1.
          2    1    6    6  502    0 -0.29835058784E+02  0.67741165312E+02  0.24664328758E+02  0.78021313264E+02  0.00000000000E+00 0. -1.
          3    1    5    5  503    0 -0.16316379292E+03 -0.18736856370E+03 -0.19982597225E+04  0.20136462750E+04  0.00000000000E+00 0. -1.
         -4    1    5    5    0  503  0.51770181364E+01  0.37370263967E+01 -0.41970707369E+02  0.42453588307E+02  0.00000000000E+00 0.  1.
         -1    1    6    6    0  502  0.28293645207E+02  0.31386238140E+02  0.31118537125E+02  0.52478468504E+02  0.00000000000E+00 0.  1.
<mgrwt>
<rscale>  0 0.16481387E+04</rscale>
<asrwt>0</asrwt>
<pdfrwt beam="1">  1        1 0.48989738E-01 0.16481387E+04</pdfrwt>
<pdfrwt beam="2">  1       -1 0.32809205E+00 0.16481387E+04</pdfrwt>
<totfact> 0.16839104E+00</totfact>
</mgrwt>
</event>
<event>
12    1  0.2404191E-008  0.1241861E+04  0.7818608E-02  0.9076984E-01
         -2   -1    0    0    0  501 -0.00000000000E+00  0.00000000000E+00  0.46238178740E+03  0.46238178740E+03  0.00000000000E+00 0.  1.
          2   -1    0    0  501    0  0.00000000000E+00 -0.00000000000E+00 -0.83384542758E+03  0.83384542758E+03  0.00000000000E+00 0. -1.
         23    2    1    2    0    0 -0.17886318679E+03 -0.18552990206E+03 -0.19938404276E+03  0.33807254488E+03  0.90142470278E+02 0.  0.
        254    2    1    2    0    0  0.17886318679E+03  0.18552990206E+03 -0.17207959742E+03  0.95815467009E+03  0.90666178911E+03 0.  0.
        -24    2    4    4    0    0 -0.96379539160E+02  0.47077730801E+03  0.56613391201E+02  0.49045454008E+03  0.80126715330E+02 0.  0.
         24    2    4    4    0    0  0.27524272595E+03 -0.28524740595E+03 -0.22869298862E+03  0.46770013002E+03  0.96531278772E+02 0.  0.
         13    1    3    3    0    0 -0.90699326335E+02 -0.10512439740E+03 -0.51580082160E+02  0.14811485949E+03  0.00000000000E+00 0.  1.
        -13    1    3    3    0    0 -0.88163860457E+02 -0.80405504661E+02 -0.14780396060E+03  0.18995768539E+03  0.00000000000E+00 0. -1.
          2    1    6    6  502    0  0.52875822914E+02 -0.44633658244E+02 -0.18812754238E+01  0.69221061061E+02  0.00000000000E+00 0. -1.
          1    1    5    5  503    0 -0.39094836571E+02  0.88657252991E+02  0.36500722198E+02  0.10354138050E+03  0.00000000000E+00 0. -1.
         -2    1    5    5    0  503 -0.57284702589E+02  0.38212005502E+03  0.20112669004E+02  0.38691315958E+03  0.00000000000E+00 0.  1.
         -1    1    6    6    0  502  0.22236690304E+03 -0.24061374771E+03 -0.22681171320E+03  0.39847906896E+03  0.00000000000E+00 0.  1.
<mgrwt>
<rscale>  0 0.12418614E+04</rscale>
<asrwt>0</asrwt>
<pdfrwt beam="1">  1        2 0.12828391E+00 0.12418614E+04</pdfrwt>
<pdfrwt beam="2">  1       -2 0.71135660E-01 0.12418614E+04</pdfrwt>
<totfact> 0.57554673E+01</totfact>
</mgrwt>
</event>
<event>
12    1  0.2404191E-008  0.1594898E+04  0.7818608E-02  0.8823689E-01
          2   -1    0    0  501    0  0.00000000000E+00  0.00000000000E+00  0.80762697549E+03  0.80762697549E+03  0.00000000000E+00 0. -1.
         -2   -1    0    0    0  501 -0.00000000000E+00 -0.00000000000E+00 -0.78739922102E+03  0.78739922102E+03  0.00000000000E+00 0.  1.
         23    2    1    2    0    0 -0.81705275911E+02 -0.81582721042E+01  0.53775556149E+03  0.55178678569E+03  0.92440810414E+02 0.  0.
        254    2    1    2    0    0  0.81705275911E+02  0.81582721042E+01 -0.51752780702E+03  0.10432394108E+04  0.90209263811E+03 0.  0.
        -24    2    4    4    0    0 -0.36785028198E+03  0.14842655496E+03 -0.36210491866E+03  0.54296694456E+03  0.79679725155E+02 0.  0.
         24    2    4    4    0    0  0.44955555790E+03 -0.14026828286E+03 -0.15542288836E+03  0.50027246625E+03  0.65885320470E+02 0.  0.
         13    1    3    3    0    0 -0.57795889156E+02  0.12744824829E+01  0.51250751195E+03  0.51575763583E+03  0.00000000000E+00 0. -1.
        -13    1    3    3    0    0 -0.23909386755E+02 -0.94327545871E+01  0.25248049543E+02  0.36029149863E+02  0.00000000000E+00 0.  1.
          2    1    6    6  502    0  0.29553988514E+03 -0.11410926715E+03 -0.79747207997E+02  0.32668695374E+03  0.00000000000E+00 0. -1.
          1    1    5    5  503    0 -0.15191923550E+03  0.88084875006E+02 -0.20085991243E+03  0.26680161870E+03  0.00000000000E+00 0. -1.
         -2    1    5    5    0  503 -0.21593104649E+03  0.60341679957E+02 -0.16124500622E+03  0.27616532586E+03  0.00000000000E+00 0.  1.
         -1    1    6    6    0  502  0.15401567275E+03 -0.26159015710E+02 -0.75675680365E+02  0.17358551252E+03  0.00000000000E+00 0.  1.
<mgrwt>
<rscale>  0 0.15948979E+04</rscale>
<asrwt>0</asrwt>
<pdfrwt beam="1">  1        2 0.12425030E+00 0.15948979E+04</pdfrwt>
<pdfrwt beam="2">  1       -2 0.12113834E+00 0.15948979E+04</pdfrwt>
<totfact> 0.16921765E+01</totfact>
</mgrwt>
</event>
<event>
11    1  0.2404191E-008  0.1552473E+04  0.7818608E-02  0.8850290E-01
          2   -1    0    0  501    0  0.00000000000E+00  0.00000000000E+00  0.18325935304E+04  0.18325935304E+04  0.00000000000E+00 0. -1.
         -2   -1    0    0    0  501 -0.00000000000E+00 -0.00000000000E+00 -0.32879246559E+03  0.32879246559E+03  0.00000000000E+00 0.  1.
         23    2    1    2    0    0  0.25808341602E+03 -0.11517314807E+03  0.10693139757E+04  0.11099980744E+04  0.93762694489E+02 0.  0.
        254    2    1    2    0    0 -0.25808341602E+03  0.11517314807E+03  0.43448708912E+03  0.10513879216E+04  0.91474894229E+03 0.  0.
        -24    2    4    4    0    0 -0.39071237616E+03 -0.16744238255E+03  0.55099120970E+03  0.69994032037E+03  0.75046829060E+02 0.  0.
         11    1    3    3    0    0  0.83201713234E+01 -0.16777066988E+01  0.15941405875E+03  0.15963985116E+03  0.00000000000E+00 0.  1.
        -11    1    3    3    0    0  0.24976324470E+03 -0.11349544137E+03  0.90989991699E+03  0.95035822328E+03  0.00000000000E+00 0. -1.
          4    1    4    4  502    0  0.80389228564E+02  0.22670316329E+03 -0.13050624221E+03  0.27365787321E+03  0.00000000000E+00 0. -1.
          1    1    5    5  503    0 -0.35470566807E+03 -0.15158619984E+03  0.52950960750E+03  0.65511442617E+03  0.00000000000E+00 0. -1.
         -2    1    5    5    0  503 -0.36006708091E+02 -0.15856182707E+02  0.21481602204E+02  0.44825894200E+02  0.00000000000E+00 0.  1.
         -3    1    4    4    0  502  0.52239731574E+02  0.55912367328E+02  0.14002121629E+02  0.77789728019E+02  0.00000000000E+00 0.  1.
<mgrwt>
<rscale>  0 0.15524728E+04</rscale>
<asrwt>0</asrwt>
<pdfrwt beam="1">  1        2 0.28193746E+00 0.15524728E+04</pdfrwt>
<pdfrwt beam="2">  1       -2 0.50583457E-01 0.15524728E+04</pdfrwt>
<totfact> 0.29435983E+01</totfact>
</mgrwt>
</event>
<event>
11    1  0.2404191E-008  0.2221595E+04  0.7818608E-02  0.8509493E-01
          2   -1    0    0  501    0  0.00000000000E+00  0.00000000000E+00  0.17757995104E+04  0.17757995104E+04  0.00000000000E+00 0. -1.
         -2   -1    0    0    0  501 -0.00000000000E+00 -0.00000000000E+00 -0.69482560905E+03  0.69482560905E+03  0.00000000000E+00 0.  1.
         23    2    1    2    0    0  0.30764696591E+03  0.16206700747E+03  0.14078072694E+04  0.14532540852E+04  0.95466004034E+02 0.  0.
        254    2    1    2    0    0 -0.30764696591E+03 -0.16206700747E+03 -0.32683336805E+03  0.10173710342E+04  0.89850509194E+03 0.  0.
        -24    2    4    4    0    0 -0.86026095472E+02 -0.21773521173E+03  0.26073634681E+03  0.35938669667E+03  0.79788743990E+02 0.  0.
         13    1    3    3    0    0  0.89373788291E+02  0.90534941962E+01  0.26657686209E+03  0.28130564017E+03  0.00000000000E+00 0.  1.
        -13    1    3    3    0    0  0.21827317762E+03  0.15301351328E+03  0.11412304073E+04  0.11719484450E+04  0.00000000000E+00 0. -1.
          2    1    4    4  502    0 -0.22988998784E+03  0.10013969680E+03 -0.48968459980E+03  0.55015304477E+03  0.00000000000E+00 0. -1.
          3    1    5    5  503    0 -0.28796947913E+02 -0.16652755278E+03  0.19726024881E+03  0.25975429892E+03  0.00000000000E+00 0. -1.
         -4    1    5    5    0  503 -0.57229147559E+02 -0.51207658946E+02  0.63476097999E+02  0.99632397754E+02  0.00000000000E+00 0.  1.
         -1    1    4    4    0  502  0.82691173986E+01 -0.44471492550E+02 -0.97885115062E+02  0.10783129278E+03  0.00000000000E+00 0.  1.
<mgrwt>
<rscale>  0 0.22215949E+04</rscale>
<asrwt>0</asrwt>
<pdfrwt beam="1">  1        2 0.27319992E+00 0.22215949E+04</pdfrwt>
<pdfrwt beam="2">  1       -2 0.10689625E+00 0.22215949E+04</pdfrwt>
<totfact> 0.57177958E+00</totfact>
</mgrwt>
</event>
<event>
12    1  0.2404191E-008  0.1513724E+04  0.7818608E-02  0.8875378E-01
          2   -1    0    0  501    0  0.00000000000E+00  0.00000000000E+00  0.29723933923E+04  0.29723933923E+04  0.00000000000E+00 0. -1.
         -2   -1    0    0    0  501 -0.00000000000E+00 -0.00000000000E+00 -0.19272011913E+03  0.19272011913E+03  0.00000000000E+00 0.  1.
         23    2    1    2    0    0 -0.14344014757E+03  0.31607321140E+03  0.16020659958E+04  0.16417574214E+04  0.90964965034E+02 0.  0.
        254    2    1    2    0    0  0.14344014757E+03 -0.31607321140E+03  0.11776072774E+04  0.15233560901E+04  0.90187445163E+03 0.  0.
        -24    2    4    4    0    0 -0.27221383600E+03 -0.41247372439E+03  0.80443251804E+03  0.94748323707E+03  0.79861521565E+02 0.  0.
         24    2    4    4    0    0  0.41565398356E+03  0.96400512995E+02  0.37317475938E+03  0.57587285302E+03  0.10153250146E+03 0.  0.
         11    1    3    3    0    0 -0.10300271973E+03  0.22920806499E+03  0.13242828404E+04  0.13479135501E+04  0.00000000000E+00 0. -1.
        -11    1    3    3    0    0 -0.40437427833E+02  0.86865146409E+02  0.27778315542E+03  0.29384387124E+03  0.00000000000E+00 0.  1.
          2    1    6    6  502    0  0.76045664900E+02  0.33120164301E+02  0.12697051185E+03  0.15166212221E+03  0.00000000000E+00 0. -1.
          1    1    5    5  503    0 -0.58597721840E+02 -0.56668133741E+02  0.91390710883E+02  0.12246318803E+03  0.00000000000E+00 0. -1.
         -2    1    5    5    0  503 -0.21361611416E+03 -0.35580559065E+03  0.71304180715E+03  0.82502004904E+03  0.00000000000E+00 0.  1.
         -1    1    6    6    0  502  0.33960831866E+03  0.63280348694E+02  0.24620424753E+03  0.42421073082E+03  0.00000000000E+00 0.  1.
<mgrwt>
<rscale>  0 0.15137239E+04</rscale>
<asrwt>0</asrwt>
<pdfrwt beam="1">  1        2 0.45729126E+00 0.15137239E+04</pdfrwt>
<pdfrwt beam="2">  1       -2 0.29649251E-01 0.15137239E+04</pdfrwt>
<totfact> 0.18455948E+01</totfact>
</mgrwt>
</event>
<event>
11    1  0.2404191E-008  0.2392929E+04  0.7818608E-02  0.8442156E-01
          2   -1    0    0  501    0  0.00000000000E+00  0.00000000000E+00  0.18335257587E+04  0.18335257587E+04  0.00000000000E+00 0. -1.
         -2   -1    0    0    0  501 -0.00000000000E+00 -0.00000000000E+00 -0.78075122393E+03  0.78075122393E+03  0.00000000000E+00 0.  1.
         23    2    1    2    0    0 -0.55829986893E+02 -0.10110223999E+04  0.63561150363E+03  0.11981379657E+04  0.79052645677E+02 0.  0.
        254    2    1    2    0    0  0.55829986893E+02  0.10110223999E+04  0.41716303110E+03  0.14161390169E+04  0.89785379665E+03 0.  0.
        -24    2    4    4    0    0  0.31751389673E+03  0.89358249024E+03  0.26760321802E+03  0.98853989003E+03  0.79340345457E+02 0.  0.
         13    1    3    3    0    0  0.78583903796E+01 -0.34733513070E+03  0.18730608311E+03  0.39469863958E+03  0.00000000000E+00 0. -1.
        -13    1    3    3    0    0 -0.63688377273E+02 -0.66368726918E+03  0.44830542052E+03  0.80343932611E+03  0.00000000000E+00 0.  1.
          4    1    4    4  502    0 -0.87502883939E+02  0.10466512862E+03  0.20333356222E+03  0.24485930935E+03  0.00000000000E+00 0. -1.
          1    1    5    5  503    0  0.27427012841E+01  0.18172617350E+02 -0.51710234137E+01  0.19092037996E+02  0.00000000000E+00 0. -1.
         -2    1    5    5    0  503  0.31477119544E+03  0.87540987289E+03  0.27277424143E+03  0.96944785203E+03  0.00000000000E+00 0.  1.
         -3    1    4    4    0  502 -0.17418102589E+03  0.12774781026E+02 -0.53773749140E+02  0.18273981752E+03  0.00000000000E+00 0.  1.
<mgrwt>
<rscale>  0 0.23929292E+04</rscale>
<asrwt>0</asrwt>
<pdfrwt beam="1">  1        2 0.28208089E+00 0.23929292E+04</pdfrwt>
<pdfrwt beam="2">  1       -2 0.12011557E+00 0.23929292E+04</pdfrwt>
<totfact> 0.39404669E+00</totfact>
</mgrwt>
</event>
<event>
12    1  0.2404191E-008  0.1537405E+04  0.7818608E-02  0.8859953E-01
         -2   -1    0    0    0  501 -0.00000000000E+00  0.00000000000E+00  0.45724440235E+03  0.45724440235E+03  0.00000000000E+00 0.  1.
          2   -1    0    0  501    0  0.00000000000E+00 -0.00000000000E+00 -0.12923144764E+04  0.12923144764E+04  0.00000000000E+00 0. -1.
         23    2    1    2    0    0 -0.36527941879E+03 -0.69141405589E+02 -0.65243093682E+03  0.75644023400E+03  0.91247534375E+02 0.  0.
        254    2    1    2    0    0  0.36527941879E+03  0.69141405589E+02 -0.18263913723E+03  0.99311864475E+03  0.90261730558E+03 0.  0.
        -24    2    4    4    0    0 -0.23207112071E+03 -0.19147725739E+03 -0.11571097461E+03  0.33137546403E+03  0.76812260420E+02 0.  0.
         24    2    4    4    0    0  0.59735053949E+03  0.26061866298E+03 -0.66928162613E+02  0.66174318072E+03  0.93139163368E+02 0.  0.
         13    1    3    3    0    0 -0.26828235034E+03 -0.87651797558E+02 -0.51412188655E+03  0.58649771641E+03  0.00000000000E+00 0. -1.
        -13    1    3    3    0    0 -0.96997068442E+02  0.18510391969E+02 -0.13830905028E+03  0.16994251759E+03  0.00000000000E+00 0.  1.
          4    1    6    6  502    0  0.47739594602E+03  0.16558164454E+03 -0.49535411782E+02  0.50771835431E+03  0.00000000000E+00 0. -1.
          1    1    5    5  503    0 -0.22905678764E+03 -0.17759929790E+03 -0.92646041472E+02  0.30428902638E+03  0.00000000000E+00 0. -1.
         -2    1    5    5    0  503 -0.30143330683E+01 -0.13877959493E+02 -0.23064933141E+02  0.27086437646E+02  0.00000000000E+00 0.  1.
         -3    1    6    6    0  502  0.11995459347E+03  0.95037018433E+02 -0.17392750831E+02  0.15402482641E+03  0.00000000000E+00 0.  1.
<mgrwt>
<rscale>  0 0.15374050E+04</rscale>
<asrwt>0</asrwt>
<pdfrwt beam="1">  1        2 0.19881761E+00 0.15374050E+04</pdfrwt>
<pdfrwt beam="2">  1       -2 0.70345293E-01 0.15374050E+04</pdfrwt>
<totfact> 0.29596827E+01</totfact>
</mgrwt>
</event>
<event>
11    1  0.2404191E-008  0.2041075E+04  0.7818608E-02  0.8587654E-01
         -1   -1    0    0    0  501 -0.00000000000E+00  0.00000000000E+00  0.60446237184E+03  0.60446237184E+03  0.00000000000E+00 0.  1.
          1   -1    0    0  501    0  0.00000000000E+00 -0.00000000000E+00 -0.17230129353E+04  0.17230129353E+04  0.00000000000E+00 0. -1.
         23    2    1    2    0    0  0.55623326039E+03 -0.60557981829E+03 -0.62328264379E+03  0.10357185866E+04  0.90052097689E+02 0.  0.
        254    2    1    2    0    0 -0.55623326039E+03  0.60557981829E+03 -0.49526791965E+03  0.12917567205E+04  0.86442047435E+03 0.  0.
        -24    2    4    4    0    0 -0.45757007645E+03  0.78107327688E+03 -0.34542393605E+03  0.97215462825E+03  0.79505263389E+02 0.  0.
         11    1    3    3    0    0  0.18786553082E+03 -0.22233860256E+03 -0.16974430959E+03  0.33695851747E+03  0.00000000000E+00 0.  1.
        -11    1    3    3    0    0  0.36836772958E+03 -0.38324121573E+03 -0.45353833420E+03  0.69876006913E+03  0.00000000000E+00 0. -1.
          4    1    4    4  502    0 -0.12861448445E+03 -0.61580458798E+02 -0.14249181299E+03  0.20158808320E+03  0.00000000000E+00 0. -1.
          1    1    5    5  503    0 -0.35550273641E+02  0.75489412938E+02 -0.56207303004E+02  0.10060683045E+03  0.00000000000E+00 0. -1.
         -2    1    5    5    0  503 -0.42201980281E+03  0.70558386394E+03 -0.28921663305E+03  0.87154779780E+03  0.00000000000E+00 0.  1.
         -1    1    4    4    0  502  0.29951300505E+02 -0.11391299979E+03 -0.73521706009E+01  0.11801400907E+03  0.00000000000E+00 0.  1.
<mgrwt>
<rscale>  0 0.20410747E+04</rscale>
<asrwt>0</asrwt>
<pdfrwt beam="1">  1        1 0.26507891E+00 0.20410747E+04</pdfrwt>
<pdfrwt beam="2">  1       -1 0.92994211E-01 0.20410747E+04</pdfrwt>
<totfact> 0.47721650E+00</totfact>
</mgrwt>
</event>
<event>
11    1  0.2404191E-008  0.1556080E+04  0.7818608E-02  0.8847994E-01
         -2   -1    0    0    0  501 -0.00000000000E+00  0.00000000000E+00  0.50380446619E+03  0.50380446619E+03  0.00000000000E+00 0.  1.
          2   -1    0    0  501    0  0.00000000000E+00 -0.00000000000E+00 -0.12015492610E+04  0.12015492610E+04  0.00000000000E+00 0. -1.
         23    2    1    2    0    0  0.31262277133E+03  0.15035575722E+03  0.17426323029E+03  0.40081165106E+03  0.99711861463E+02 0.  0.
        254    2    1    2    0    0 -0.31262277133E+03 -0.15035575722E+03 -0.87200802509E+03  0.13045420761E+04  0.90614136958E+03 0.  0.
        -24    2    4    4    0    0 -0.47104448413E+03 -0.11837061994E+03 -0.93821288646E+03  0.10597423790E+04  0.83162369767E+02 0.  0.
         11    1    3    3    0    0  0.25545997007E+03  0.14521126542E+03  0.17755282065E+03  0.34332362580E+03  0.00000000000E+00 0. -1.
        -11    1    3    3    0    0  0.57162801261E+02  0.51444917997E+01 -0.32895903645E+01  0.57488025263E+02  0.00000000000E+00 0.  1.
          4    1    4    4  502    0  0.16067190350E+02  0.40495475173E+02  0.72887779381E+02  0.84915643426E+02  0.00000000000E+00 0. -1.
          3    1    5    5  503    0 -0.44038153023E+02  0.12554765991E+02 -0.76359679397E+02  0.89038091334E+02  0.00000000000E+00 0. -1.
         -4    1    5    5    0  503 -0.42700633111E+03 -0.13092538593E+03 -0.86185320706E+03  0.97070428762E+03  0.00000000000E+00 0.  1.
         -3    1    4    4    0  502  0.14235452245E+03 -0.72480612454E+02 -0.66829180098E+01  0.15988405373E+03  0.00000000000E+00 0.  1.
<mgrwt>
<rscale>  0 0.15560795E+04</rscale>
<asrwt>0</asrwt>
<pdfrwt beam="1">  1        2 0.18485373E+00 0.15560795E+04</pdfrwt>
<pdfrwt beam="2">  1       -2 0.77508380E-01 0.15560795E+04</pdfrwt>
<totfact> 0.26989088E+01</totfact>
</mgrwt>
</event>
<event>
11    1  0.2404191E-008  0.1837526E+04  0.7818608E-02  0.8686594E-01
          1   -1    0    0  501    0  0.00000000000E+00  0.00000000000E+00  0.89427414766E+03  0.89427414766E+03  0.00000000000E+00 0. -1.
         -1   -1    0    0    0  501 -0.00000000000E+00 -0.00000000000E+00 -0.94392223137E+03  0.94392223137E+03  0.00000000000E+00 0.  1.
         23    2    1    2    0    0  0.28037959641E+03 -0.66773410824E+02  0.61663622188E+03  0.68657470376E+03  0.89850916673E+02 0.  0.
        254    2    1    2    0    0 -0.28037959641E+03  0.66773410824E+02 -0.66628430558E+03  0.11516216753E+04  0.89399457527E+03 0.  0.
        -24    2    4    4    0    0  0.14130334502E+03 -0.12456310150E+03 -0.65507764036E+03  0.68629652188E+03  0.79959986659E+02 0.  0.
         11    1    3    3    0    0  0.24058948174E+03 -0.24120815033E+02  0.46505980686E+03  0.52416193719E+03  0.00000000000E+00 0. -1.
        -11    1    3    3    0    0  0.39790114666E+02 -0.42652595790E+02  0.15157641502E+03  0.16241276656E+03  0.00000000000E+00 0.  1.
          4    1    4    4  502    0 -0.12413917974E+03  0.48293133705E+02  0.15520432568E+02  0.13410311904E+03  0.00000000000E+00 0. -1.
          1    1    5    5  503    0 -0.75825660493E+01 -0.22481499330E+02 -0.90668367229E+02  0.93721213906E+02  0.00000000000E+00 0. -1.
         -2    1    5    5    0  503  0.14888591107E+03 -0.10208160217E+03 -0.56440927313E+03  0.59257530797E+03  0.00000000000E+00 0.  1.
         -3    1    4    4    0  502 -0.29754376168E+03  0.14304337862E+03 -0.26727097789E+02  0.33122203435E+03  0.00000000000E+00 0.  1.
<mgrwt>
<rscale>  0 0.18375258E+04</rscale>
<asrwt>0</asrwt>
<pdfrwt beam="1">  1        1 0.13758064E+00 0.18375258E+04</pdfrwt>
<pdfrwt beam="2">  1       -1 0.14521881E+00 0.18375258E+04</pdfrwt>
<totfact> 0.65850724E+00</totfact>
</mgrwt>
</event>
<event>
11    1  0.2404191E-008  0.1347352E+04  0.7818608E-02  0.8992835E-01
          1   -1    0    0  501    0  0.00000000000E+00  0.00000000000E+00  0.11637370766E+04  0.11637370766E+04  0.00000000000E+00 0. -1.
         -1   -1    0    0    0  501 -0.00000000000E+00 -0.00000000000E+00 -0.38998444049E+03  0.38998444049E+03  0.00000000000E+00 0.  1.
         23    2    1    2    0    0 -0.95725721852E+02 -0.33497595897E+03  0.33117639093E+03  0.48919677018E+03  0.90903086489E+02 0.  0.
        254    2    1    2    0    0  0.95725721852E+02  0.33497595897E+03  0.44257624517E+03  0.10645247469E+04  0.90330886029E+03 0.  0.
        -24    2    4    4    0    0  0.33603898205E+03  0.44486548747E+03  0.40374184533E+03  0.69302750474E+03  0.80325246698E+02 0.  0.
         13    1    3    3    0    0 -0.14476303212E+02 -0.18029113597E+03  0.20672473376E+03  0.27468085593E+03  0.00000000000E+00 0. -1.
        -13    1    3    3    0    0 -0.81249418640E+02 -0.15468482300E+03  0.12445165717E+03  0.21451591425E+03  0.00000000000E+00 0.  1.
          2    1    4    4  502    0 -0.23025532391E+03  0.93432871180E+01 -0.31675242630E+02  0.23261154786E+03  0.00000000000E+00 0. -1.
          3    1    5    5  503    0  0.15363804806E+03  0.14840631534E+03  0.12856265941E+03  0.24931394193E+03  0.00000000000E+00 0. -1.
         -4    1    5    5    0  503  0.18240093398E+03  0.29645917213E+03  0.27517918592E+03  0.44371356281E+03  0.00000000000E+00 0.  1.
         -1    1    4    4    0  502 -0.10057936284E+02 -0.11923281561E+03  0.70509642466E+02  0.13888569430E+03  0.00000000000E+00 0.  1.
<mgrwt>
<rscale>  0 0.13473520E+04</rscale>
<asrwt>0</asrwt>
<pdfrwt beam="1">  1        1 0.17903647E+00 0.13473520E+04</pdfrwt>
<pdfrwt beam="2">  1       -1 0.59997606E-01 0.13473520E+04</pdfrwt>
<totfact> 0.31333829E+01</totfact>
</mgrwt>
</event>
<event>
12    1  0.2404191E-008  0.1818851E+04  0.7818608E-02  0.8696338E-01
          2   -1    0    0  501    0  0.00000000000E+00  0.00000000000E+00  0.19612691015E+04  0.19612691015E+04  0.00000000000E+00 0. -1.
         -2   -1    0    0    0  501 -0.00000000000E+00 -0.00000000000E+00 -0.42169384675E+03  0.42169384675E+03  0.00000000000E+00 0.  1.
         23    2    1    2    0    0  0.64656344089E+03  0.78792328138E+02  0.86845893122E+03  0.10892860158E+04  0.89836490385E+02 0.  0.
        254    2    1    2    0    0 -0.64656344089E+03 -0.78792328138E+02  0.67111632353E+03  0.12936769324E+04  0.89384023836E+03 0.  0.
        -24    2    4    4    0    0 -0.56292821324E+03 -0.25495408711E+03  0.82701026213E+03  0.10354711161E+04  0.79779061941E+02 0.  0.
         24    2    4    4    0    0 -0.83635227646E+02  0.17616175897E+03 -0.15589393860E+03  0.25820581636E+03  0.65874933663E+02 0.  0.
         11    1    3    3    0    0  0.44928379107E+03  0.72494124535E+02  0.66503078877E+03  0.80583948341E+03  0.00000000000E+00 0. -1.
        -11    1    3    3    0    0  0.19727964982E+03  0.62982036028E+01  0.20342814245E+03  0.28344653242E+03  0.00000000000E+00 0.  1.
          4    1    6    6  502    0 -0.77410625220E+02  0.15947050692E+03 -0.10913270626E+03  0.20816626780E+03  0.00000000000E+00 0. -1.
          1    1    5    5  503    0 -0.51851535304E+03 -0.22021060420E+03  0.71682648779E+03  0.91169682194E+03  0.00000000000E+00 0. -1.
         -2    1    5    5    0  503 -0.44412860199E+02 -0.34743482910E+02  0.11018377434E+03  0.12377429412E+03  0.00000000000E+00 0.  1.
         -3    1    6    6    0  502 -0.62246024260E+01  0.16691252045E+02 -0.46761232339E+02  0.50039548560E+02  0.00000000000E+00 0.  1.
<mgrwt>
<rscale>  0 0.18188514E+04</rscale>
<asrwt>0</asrwt>
<pdfrwt beam="1">  1        2 0.30173370E+00 0.18188514E+04</pdfrwt>
<pdfrwt beam="2">  1       -2 0.64875978E-01 0.18188514E+04</pdfrwt>
<totfact> 0.14507639E+01</totfact>
</mgrwt>
</event>
<event>
12    1  0.2404191E-008  0.1297707E+04  0.7818608E-02  0.9031385E-01
         -2   -1    0    0    0  501 -0.00000000000E+00  0.00000000000E+00  0.17549738888E+03  0.17549738888E+03  0.00000000000E+00 0.  1.
          2   -1    0    0  501    0  0.00000000000E+00 -0.00000000000E+00 -0.23989595119E+04  0.23989595119E+04  0.00000000000E+00 0. -1.
         23    2    1    2    0    0  0.31917360095E+03 -0.78098385579E+02 -0.47458015000E+03  0.58417535046E+03  0.89796302504E+02 0.  0.
        254    2    1    2    0    0 -0.31917360095E+03  0.78098385579E+02 -0.17488819730E+04  0.19902815503E+04  0.89143779852E+03 0.  0.
        -24    2    4    4    0    0  0.17989409230E+03  0.48314729648E+02 -0.38099323557E+02  0.20692379305E+03  0.81668232088E+02 0.  0.
         24    2    4    4    0    0 -0.49906769325E+03  0.29783655931E+02 -0.17107826494E+04  0.17833577573E+04  0.60265978004E+02 0.  0.
         13    1    3    3    0    0  0.10624974226E+02  0.89911976016E+01 -0.51468017238E+02  0.53316868907E+02  0.00000000000E+00 0. -1.
        -13    1    3    3    0    0  0.30854862672E+03 -0.87089583180E+02 -0.42311213276E+03  0.53085848155E+03  0.00000000000E+00 0.  1.
          2    1    6    6  502    0 -0.17764781372E+03  0.32321324691E+02 -0.54908380773E+03  0.57801076258E+03  0.00000000000E+00 0. -1.
          3    1    5    5  503    0  0.54824309431E+02  0.41984236378E+02 -0.43438864354E+02  0.81580119791E+02  0.00000000000E+00 0. -1.
         -4    1    5    5    0  503  0.12506978287E+03  0.63304932697E+01  0.53395407973E+01  0.12534367326E+03  0.00000000000E+00 0.  1.
         -1    1    6    6    0  502 -0.32141987953E+03 -0.25376687602E+01 -0.11616988417E+04  0.12053469947E+04  0.00000000000E+00 0.  1.
<mgrwt>
<rscale>  0 0.12977074E+04</rscale>
<asrwt>0</asrwt>
<pdfrwt beam="1">  1        2 0.36907069E+00 0.12977074E+04</pdfrwt>
<pdfrwt beam="2">  1       -2 0.26999599E-01 0.12977074E+04</pdfrwt>
<totfact> 0.48833097E+01</totfact>
</mgrwt>
</event>
<event>
12    1  0.2404191E-008  0.1783559E+04  0.7818608E-02  0.8715092E-01
          1   -1    0    0  501    0  0.00000000000E+00  0.00000000000E+00  0.24406565506E+04  0.24406565506E+04  0.00000000000E+00 0. -1.
         -1   -1    0    0    0  501 -0.00000000000E+00 -0.00000000000E+00 -0.32584289377E+03  0.32584289377E+03  0.00000000000E+00 0.  1.
         23    2    1    2    0    0  0.55397892118E+03  0.23493470566E+03  0.11796483027E+04  0.13274421116E+04  0.91899296735E+02 0.  0.
        254    2    1    2    0    0 -0.55397892118E+03 -0.23493470566E+03  0.93516535415E+03  0.14390573327E+04  0.91338097538E+03 0.  0.
        -24    2    4    4    0    0 -0.38487413633E+03 -0.30459815645E+03  0.10850307193E+04  0.11934378596E+04  0.78064878507E+02 0.  0.
         24    2    4    4    0    0 -0.16910478485E+03  0.69663450795E+02 -0.14986536511E+03  0.24561947311E+03  0.66482127496E+02 0.  0.
         13    1    3    3    0    0  0.16425028354E+03  0.28176493501E+02  0.29223565275E+03  0.33641306034E+03  0.00000000000E+00 0.  1.
        -13    1    3    3    0    0  0.38972863763E+03  0.20675821216E+03  0.88741264991E+03  0.99102905129E+03  0.00000000000E+00 0. -1.
          2    1    6    6  502    0 -0.97340118725E+02  0.30781543822E+02 -0.42094918132E+02  0.11042909166E+03  0.00000000000E+00 0. -1.
          3    1    5    5  503    0 -0.22983581802E+01  0.44528014527E+01  0.81441484306E+01  0.95622719455E+01  0.00000000000E+00 0. -1.
         -4    1    5    5    0  503 -0.38257577815E+03 -0.30905095790E+03  0.10768865708E+04  0.11838755877E+04  0.00000000000E+00 0.  1.
         -1    1    6    6    0  502 -0.71764666124E+02  0.38881906973E+02 -0.10777044698E+03  0.13519038145E+03  0.00000000000E+00 0.  1.
<mgrwt>
<rscale>  0 0.17835589E+04</rscale>
<asrwt>0</asrwt>
<pdfrwt beam="1">  1        1 0.37548561E+00 0.17835589E+04</pdfrwt>
<pdfrwt beam="2">  1       -1 0.50129677E-01 0.17835589E+04</pdfrwt>
<totfact> 0.56262628E+00</totfact>
</mgrwt>
</event>
<event>
11    1  0.2404191E-008  0.1792715E+04  0.7818608E-02  0.8710183E-01
         -1   -1    0    0    0  501 -0.00000000000E+00  0.00000000000E+00  0.34537467302E+03  0.34537467302E+03  0.00000000000E+00 0.  1.
          1   -1    0    0  501    0  0.00000000000E+00 -0.00000000000E+00 -0.23263338173E+04  0.23263338173E+04  0.00000000000E+00 0. -1.
         23    2    1    2    0    0 -0.22147349072E+03  0.52611516667E+03 -0.22005385635E+03  0.61852314323E+03  0.91101609895E+02 0.  0.
        254    2    1    2    0    0  0.22147349072E+03 -0.52611516667E+03 -0.17609052879E+04  0.20531853471E+04  0.88822010831E+03 0.  0.
        -24    2    4    4    0    0 -0.13464704861E+03 -0.62119966407E+03 -0.84950023070E+03  0.10637527247E+04  0.76813846171E+02 0.  0.
         11    1    3    3    0    0 -0.15882865958E+02  0.31660285666E+02  0.82884034812E+01  0.36377695800E+02  0.00000000000E+00 0. -1.
        -11    1    3    3    0    0 -0.20559062476E+03  0.49445488100E+03 -0.22834225983E+03  0.58214544743E+03  0.00000000000E+00 0.  1.
          2    1    4    4  502    0  0.28088162719E+03  0.10123034208E+03 -0.80804969120E+03  0.86144435345E+03  0.00000000000E+00 0. -1.
          1    1    5    5  503    0 -0.65232453683E+02 -0.45357623277E+03 -0.62861267378E+03  0.77790781304E+03  0.00000000000E+00 0. -1.
         -2    1    5    5    0  503 -0.69414594928E+02 -0.16762343129E+03 -0.22088755692E+03  0.28584491164E+03  0.00000000000E+00 0.  1.
         -1    1    4    4    0  502  0.75238912139E+02 -0.61458446869E+01 -0.10335536604E+03  0.12798826898E+03  0.00000000000E+00 0.  1.
<mgrwt>
<rscale>  0 0.17927150E+04</rscale>
<asrwt>0</asrwt>
<pdfrwt beam="1">  1        1 0.35789752E+00 0.17927150E+04</pdfrwt>
<pdfrwt beam="2">  1       -1 0.53134564E-01 0.17927150E+04</pdfrwt>
<totfact> 0.60253282E+00</totfact>
</mgrwt>
</event>
<event>
12    1  0.2404191E-008  0.2439835E+04  0.7818608E-02  0.8424739E-01
          1   -1    0    0  501    0  0.00000000000E+00  0.00000000000E+00  0.19862083606E+04  0.19862083606E+04  0.00000000000E+00 0.  1.
         -1   -1    0    0    0  501 -0.00000000000E+00 -0.00000000000E+00 -0.74926613607E+03  0.74926613607E+03  0.00000000000E+00 0. -1.
         23    2    1    2    0    0  0.82166106100E+03  0.64398945517E+03  0.37833536787E+03  0.11141235163E+04  0.91017808014E+02 0.  0.
        254    2    1    2    0    0 -0.82166106100E+03 -0.64398945517E+03  0.85860685665E+03  0.16213509804E+04  0.89539038960E+03 0.  0.
        -24    2    4    4    0    0 -0.92589797491E+03 -0.44917484849E+03  0.40700952204E+03  0.11095985926E+04  0.80667100689E+02 0.  0.
         24    2    4    4    0    0  0.10423691391E+03 -0.19481460668E+03  0.45159733461E+03  0.51175238782E+03  0.95563008621E+02 0.  0.
         11    1    3    3    0    0  0.25455868742E+03  0.21428864316E+03  0.16441672434E+03  0.37115038350E+03  0.00000000000E+00 0.  1.
        -11    1    3    3    0    0  0.56710237357E+03  0.42970081202E+03  0.21391864353E+03  0.74297313277E+03  0.00000000000E+00 0. -1.
          4    1    6    6  502    0  0.74568568438E+02 -0.18358982295E+03  0.42975480313E+03  0.47323871915E+03  0.00000000000E+00 0. -1.
          3    1    5    5  503    0 -0.60042780923E+03 -0.26797339889E+03  0.22452704849E+03  0.69479183365E+03  0.00000000000E+00 0. -1.
         -4    1    5    5    0  503 -0.32547016568E+03 -0.18120144960E+03  0.18248247355E+03  0.41480675891E+03  0.00000000000E+00 0.  1.
         -3    1    6    6    0  502  0.29668345475E+02 -0.11224783728E+02  0.21842531477E+02  0.38513668669E+02  0.00000000000E+00 0.  1.
<mgrwt>
<rscale>  0 0.24398350E+04</rscale>
<asrwt>0</asrwt>
<pdfrwt beam="1">  1        1 0.30557051E+00 0.24398350E+04</pdfrwt>
<pdfrwt beam="2">  1       -1 0.11527171E+00 0.24398350E+04</pdfrwt>
<totfact> 0.18556155E+00</totfact>
</mgrwt>
</event>
<event>
12    1  0.2404191E-008  0.1929020E+04  0.7818608E-02  0.8640545E-01
          1   -1    0    0  501    0  0.00000000000E+00  0.00000000000E+00  0.17879601801E+04  0.17879601801E+04  0.00000000000E+00 0. -1.
         -1   -1    0    0    0  501 -0.00000000000E+00 -0.00000000000E+00 -0.52030199530E+03  0.52030199530E+03  0.00000000000E+00 0.  1.
         23    2    1    2    0    0 -0.60014749598E+03 -0.39086270143E+03  0.76353889447E+03  0.10511160131E+04  0.94353385045E+02 0.  0.
        254    2    1    2    0    0  0.60014749598E+03  0.39086270143E+03  0.50411929029E+03  0.12571461623E+04  0.90184785093E+03 0.  0.
        -24    2    4    4    0    0  0.38568792511E+03 -0.16443065252E+03  0.49469991957E+03  0.65346631075E+03  0.80607653503E+02 0.  0.
         24    2    4    4    0    0  0.21445957087E+03  0.55529335395E+03  0.94193707211E+01  0.60367985155E+03  0.99985109558E+02 0.  0.
         11    1    3    3    0    0 -0.58562978461E+03 -0.38165771687E+03  0.71633687018E+03  0.10008812962E+04  0.00000000000E+00 0. -1.
        -11    1    3    3    0    0 -0.14517711372E+02 -0.92049845650E+01  0.47202024289E+02  0.50234716893E+02  0.00000000000E+00 0.  1.
          4    1    6    6  502    0  0.22603252664E+01  0.47355954420E+02  0.23721940281E+02  0.53013450558E+02  0.00000000000E+00 0. -1.
          3    1    5    5  503    0  0.12652011278E+03 -0.95653667640E+02  0.17410220692E+03  0.23551760343E+03  0.00000000000E+00 0. -1.
         -4    1    5    5    0  503  0.25916781233E+03 -0.68776984879E+02  0.32059771265E+03  0.41794870732E+03  0.00000000000E+00 0.  1.
         -3    1    6    6    0  502  0.21219924561E+03  0.50793739953E+03 -0.14302569560E+02  0.55066640099E+03  0.00000000000E+00 0.  1.
<mgrwt>
<rscale>  0 0.19290197E+04</rscale>
<asrwt>0</asrwt>
<pdfrwt beam="1">  1        1 0.27507079E+00 0.19290197E+04</pdfrwt>
<pdfrwt beam="2">  1       -1 0.80046462E-01 0.19290197E+04</pdfrwt>
<totfact> 0.60360694E+00</totfact>
</mgrwt>
</event>
<event>
11    1  0.2404191E-008  0.1262947E+04  0.7818608E-02  0.9059476E-01
          2   -1    0    0  501    0  0.00000000000E+00  0.00000000000E+00  0.25615715254E+04  0.25615715254E+04  0.00000000000E+00 0. -1.
         -2   -1    0    0    0  501 -0.00000000000E+00 -0.00000000000E+00 -0.15566965852E+03  0.15566965852E+03  0.00000000000E+00 0.  1.
         23    2    1    2    0    0  0.21284709289E+03  0.19548312807E+03  0.41807581152E+03  0.51569316663E+03  0.87375738158E+02 0.  0.
        254    2    1    2    0    0 -0.21284709289E+03 -0.19548312807E+03  0.19878260553E+04  0.22015480172E+04  0.90102369986E+03 0.  0.
        -24    2    4    4    0    0 -0.30094752643E+02 -0.44864991317E+03  0.16993718950E+04  0.17595649899E+04  0.77535008339E+02 0.  0.
         13    1    3    3    0    0  0.21123355975E+03  0.19860822358E+03  0.38263100794E+03  0.48007429787E+03  0.00000000000E+00 0.  1.
        -13    1    3    3    0    0  0.16135331474E+01 -0.31250955086E+01  0.35444803580E+02  0.35618868764E+02  0.00000000000E+00 0. -1.
          4    1    4    4  502    0 -0.37266546845E+01  0.28363562671E+02 -0.73818430501E+01  0.29544394550E+02  0.00000000000E+00 0. -1.
          1    1    5    5  503    0  0.11994906697E+02 -0.10161391697E+02  0.64405630399E+02  0.66296431993E+02  0.00000000000E+00 0. -1.
         -2    1    5    5    0  503 -0.42089659340E+02 -0.43848852147E+03  0.16349662646E+04  0.16932685579E+04  0.00000000000E+00 0.  1.
         -3    1    4    4    0  502 -0.17902568557E+03  0.22480322243E+03  0.29583600335E+03  0.41243863275E+03  0.00000000000E+00 0.  1.
<mgrwt>
<rscale>  0 0.12629473E+04</rscale>
<asrwt>0</asrwt>
<pdfrwt beam="1">  1        2 0.39408790E+00 0.12629473E+04</pdfrwt>
<pdfrwt beam="2">  1       -2 0.23949180E-01 0.12629473E+04</pdfrwt>
<totfact> 0.49131287E+01</totfact>
</mgrwt>
</event>
<event>
11    1  0.2404191E-008  0.1069139E+04  0.7818608E-02  0.9235804E-01
          2   -1    0    0  501    0  0.00000000000E+00  0.00000000000E+00  0.13169831011E+04  0.13169831011E+04  0.00000000000E+00 0. -1.
         -2   -1    0    0    0  501 -0.00000000000E+00 -0.00000000000E+00 -0.21698421212E+03  0.21698421212E+03  0.00000000000E+00 0.  1.
         23    2    1    2    0    0  0.86694466037E+02 -0.10291186817E+03  0.15440975144E+03  0.22369562934E+03  0.89947652526E+02 0.  0.
        254    2    1    2    0    0 -0.86694466037E+02  0.10291186817E+03  0.94558913751E+03  0.13102716838E+04  0.89697619002E+03 0.  0.
        -24    2    4    4    0    0 -0.28074569716E+02  0.30036815690E+03 -0.19648030606E+02  0.31243941929E+03  0.78886846050E+02 0.  0.
         13    1    3    3    0    0  0.10303945990E+03 -0.99855017856E+02  0.12690071701E+03  0.19155142095E+03  0.00000000000E+00 0.  1.
        -13    1    3    3    0    0 -0.16344993865E+02 -0.30568503124E+01  0.27509034423E+02  0.32144208392E+02  0.00000000000E+00 0. -1.
          4    1    4    4  502    0 -0.58451852298E+02 -0.17114153566E+03  0.95074090490E+03  0.96778836143E+03  0.00000000000E+00 0. -1.
          1    1    5    5  503    0 -0.11074129252E+02  0.17846676486E+03  0.26956174500E+02  0.18083046713E+03  0.00000000000E+00 0. -1.
         -2    1    5    5    0  503 -0.17000440464E+02  0.12190139203E+03 -0.46604205106E+02  0.13160895216E+03  0.00000000000E+00 0.  1.
         -3    1    4    4    0  502 -0.16804402304E+00 -0.26314753067E+02  0.14496263216E+02  0.30043903126E+02  0.00000000000E+00 0.  1.
<mgrwt>
<rscale>  0 0.10691390E+04</rscale>
<asrwt>0</asrwt>
<pdfrwt beam="1">  1        2 0.20261278E+00 0.10691390E+04</pdfrwt>
<pdfrwt beam="2">  1       -2 0.33382187E-01 0.10691390E+04</pdfrwt>
<totfact> 0.13461670E+02</totfact>
</mgrwt>
</event>
<event>
12    1  0.2404191E-008  0.1807341E+04  0.7818608E-02  0.8702405E-01
         -1   -1    0    0    0  501 -0.00000000000E+00  0.00000000000E+00  0.97676443545E+03  0.97676443545E+03  0.00000000000E+00 0.  1.
          1   -1    0    0  501    0  0.00000000000E+00 -0.00000000000E+00 -0.83604649456E+03  0.83604649456E+03  0.00000000000E+00 0. -1.
         23    2    1    2    0    0 -0.16522216501E+03  0.38840714237E+03 -0.47742201829E+03  0.64349613882E+03  0.89426087180E+02 0.  0.
        254    2    1    2    0    0  0.16522216501E+03 -0.38840714237E+03  0.61813995919E+03  0.11693147912E+04  0.89835494082E+03 0.  0.
        -24    2    4    4    0    0  0.37402838855E+03 -0.20680309573E+03  0.74060367812E+03  0.85970003673E+03  0.89025778626E+02 0.  0.
         24    2    4    4    0    0 -0.20880622353E+03 -0.18160404664E+03 -0.12246371894E+03  0.30961475446E+03  0.65451241244E+02 0.  0.
         13    1    3    3    0    0 -0.93652159832E+02  0.22664659488E+03 -0.20997082063E+03  0.32284230133E+03  0.00000000000E+00 0.  1.
        -13    1    3    3    0    0 -0.71570005179E+02  0.16176054749E+03 -0.26745119766E+03  0.32065383749E+03  0.00000000000E+00 0. -1.
          2    1    6    6  502    0 -0.16116186585E+03 -0.17067308002E+03 -0.92674255514E+02  0.25237068943E+03  0.00000000000E+00 0. -1.
          1    1    5    5  503    0  0.35807224743E+03 -0.21165993511E+03  0.68262599889E+03  0.79937095073E+03  0.00000000000E+00 0. -1.
         -2    1    5    5    0  503  0.15956141117E+02  0.48568393828E+01  0.57977679234E+02  0.60329085999E+02  0.00000000000E+00 0.  1.
         -1    1    6    6    0  502 -0.47644357682E+02 -0.10930966623E+02 -0.29789463421E+02  0.57244065030E+02  0.00000000000E+00 0.  1.
<mgrwt>
<rscale>  0 0.18073411E+04</rscale>
<asrwt>0</asrwt>
<pdfrwt beam="1">  1        1 0.12862254E+00 0.18073411E+04</pdfrwt>
<pdfrwt beam="2">  1       -1 0.15027145E+00 0.18073411E+04</pdfrwt>
<totfact> 0.67392872E+00</totfact>
</mgrwt>
</event>
<event>
11    1  0.2404191E-008  0.2756511E+04  0.7818608E-02  0.8316899E-01
          1   -1    0    0  501    0  0.00000000000E+00  0.00000000000E+00  0.20230353688E+04  0.20230353688E+04  0.00000000000E+00 0. -1.
         -1   -1    0    0    0  501 -0.00000000000E+00 -0.00000000000E+00 -0.93897925221E+03  0.93897925221E+03  0.00000000000E+00 0.  1.
         23    2    1    2    0    0 -0.22367993975E+03 -0.54350729614E+03  0.16469994724E+04  0.17511096514E+04  0.91350164409E+02 0.  0.
        254    2    1    2    0    0  0.22367993975E+03  0.54350729614E+03 -0.56294335588E+03  0.12109049696E+04  0.89663410993E+03 0.  0.
        -24    2    4    4    0    0 -0.58602631334E+02  0.30015256267E+03 -0.71389299629E+03  0.78082555811E+03  0.80743499860E+02 0.  0.
         13    1    3    3    0    0 -0.23238110057E+03 -0.51999126954E+03  0.15854066887E+04  0.16846086385E+04  0.00000000000E+00 0. -1.
        -13    1    3    3    0    0  0.87011608181E+01 -0.23516026592E+02  0.61592783669E+02  0.66501012822E+02  0.00000000000E+00 0.  1.
          4    1    4    4  502    0 -0.28679176042E+01 -0.16207415480E+02  0.14699348260E+01  0.16524708055E+02  0.00000000000E+00 0. -1.
          1    1    5    5  503    0 -0.88181523759E+01  0.16696487227E+02 -0.12394006680E+02  0.22586365325E+02  0.00000000000E+00 0. -1.
         -2    1    5    5    0  503 -0.49784478958E+02  0.28345607545E+03 -0.70149898961E+03  0.75823919278E+03  0.00000000000E+00 0.  1.
         -3    1    4    4    0  502  0.28515048869E+03  0.25956214894E+03  0.14947970558E+03  0.41355470345E+03  0.00000000000E+00 0.  1.
<mgrwt>
<rscale>  0 0.27565110E+04</rscale>
<asrwt>0</asrwt>
<pdfrwt beam="1">  1        1 0.31123621E+00 0.27565110E+04</pdfrwt>
<pdfrwt beam="2">  1       -1 0.14445835E+00 0.27565110E+04</pdfrwt>
<totfact> 0.96380548E-01</totfact>
</mgrwt>
</event>
<event>
11    1  0.2404191E-008  0.1647578E+04  0.7818608E-02  0.8791841E-01
         -1   -1    0    0    0  501 -0.00000000000E+00  0.00000000000E+00  0.45737599291E+03  0.45737599291E+03  0.00000000000E+00 0.  1.
          1   -1    0    0  501    0  0.00000000000E+00 -0.00000000000E+00 -0.14837429025E+04  0.14837429025E+04  0.00000000000E+00 0. -1.
         23    2    1    2    0    0  0.24849801514E+03 -0.70207816019E+02 -0.95575383623E+03  0.99356193369E+03  0.83782573644E+02 0.  0.
        254    2    1    2    0    0 -0.24849801514E+03  0.70207816019E+02 -0.70613073378E+02  0.94755696174E+03  0.90895411802E+03 0.  0.
        -24    2    4    4    0    0  0.14510088531E+03 -0.97665744079E+02 -0.30656683502E+03  0.36189028432E+03  0.79928024304E+02 0.  0.
         11    1    3    3    0    0  0.36316116838E+02 -0.15847554231E+02 -0.63759042446E+02  0.75068107815E+02  0.00000000000E+00 0.  1.
        -11    1    3    3    0    0  0.21218189830E+03 -0.54360261788E+02 -0.89199479379E+03  0.91849382588E+03  0.00000000000E+00 0. -1.
          2    1    4    4  502    0 -0.47205128634E+01  0.14607507489E+03  0.74445266261E+02  0.16401923184E+03  0.00000000000E+00 0. -1.
          3    1    5    5  503    0  0.76021361805E+02 -0.76725114535E+02 -0.11794479998E+03  0.15992800410E+03  0.00000000000E+00 0. -1.
         -4    1    5    5    0  503  0.69079523502E+02 -0.20940629544E+02 -0.18862203503E+03  0.20196228022E+03  0.00000000000E+00 0.  1.
         -1    1    4    4    0  502 -0.38887838758E+03  0.21798485210E+02  0.16150849538E+03  0.42164744558E+03  0.00000000000E+00 0.  1.
<mgrwt>
<rscale>  0 0.16475781E+04</rscale>
<asrwt>0</asrwt>
<pdfrwt beam="1">  1        1 0.22826814E+00 0.16475781E+04</pdfrwt>
<pdfrwt beam="2">  1       -1 0.70365537E-01 0.16475781E+04</pdfrwt>
<totfact> 0.13098174E+01</totfact>
</mgrwt>
</event>
<event>
12    1  0.2404191E-008  0.1536274E+04  0.7818608E-02  0.8860683E-01
         -2   -1    0    0    0  501 -0.00000000000E+00  0.00000000000E+00  0.46775842746E+03  0.46775842746E+03  0.00000000000E+00 0. -1.
          2   -1    0    0  501    0  0.00000000000E+00 -0.00000000000E+00 -0.12614081599E+04  0.12614081599E+04  0.00000000000E+00 0.  1.
         23    2    1    2    0    0  0.17069812103E+03 -0.43665972901E+03 -0.45636802544E+03  0.66002398213E+03  0.86892547905E+02 0.  0.
        254    2    1    2    0    0 -0.17069812103E+03  0.43665972901E+03 -0.33728170700E+03  0.10691426052E+04  0.89972073056E+03 0.  0.
        -24    2    4    4    0    0  0.21305283542E+03  0.56078972952E+03 -0.17764170976E+03  0.63114535474E+03  0.83133930191E+02 0.  0.
         24    2    4    4    0    0 -0.38375095645E+03 -0.12413000051E+03 -0.15963999724E+03  0.43799725050E+03  0.60692743571E+02 0.  0.
         13    1    3    3    0    0  0.13317434586E+03 -0.35702584876E+03 -0.41284159361E+03  0.56181940558E+03  0.00000000000E+00 0.  1.
        -13    1    3    3    0    0  0.37523775172E+02 -0.79633880252E+02 -0.43526431835E+02  0.98204576550E+02  0.00000000000E+00 0. -1.
          2    1    6    6  502    0 -0.70085554158E+02 -0.47538306090E+01 -0.11660992622E+02  0.71207882682E+02  0.00000000000E+00 0. -1.
          3    1    5    5  503    0  0.62388318081E+02  0.26716614844E+03 -0.60461188642E+02  0.28093701863E+03  0.00000000000E+00 0. -1.
         -4    1    5    5    0  503  0.15066451734E+03  0.29362358108E+03 -0.11718052111E+03  0.35020833611E+03  0.00000000000E+00 0.  1.
         -1    1    6    6    0  502 -0.31366540229E+03 -0.11937616990E+03 -0.14797900462E+03  0.36678936782E+03  0.00000000000E+00 0.  1.
<mgrwt>
<rscale>  0 0.15362738E+04</rscale>
<asrwt>0</asrwt>
<pdfrwt beam="1">  1        2 0.19406279E+00 0.15362738E+04</pdfrwt>
<pdfrwt beam="2">  1       -2 0.71962836E-01 0.15362738E+04</pdfrwt>
<totfact> 0.29360959E+01</totfact>
</mgrwt>
</event>
<event>
12    1  0.2404191E-008  0.1238736E+04  0.7818608E-02  0.9079610E-01
         -1   -1    0    0    0  501 -0.00000000000E+00  0.00000000000E+00  0.43114232586E+03  0.43114232586E+03  0.00000000000E+00 0.  1.
          1   -1    0    0  501    0  0.00000000000E+00 -0.00000000000E+00 -0.88976883797E+03  0.88976883797E+03  0.00000000000E+00 0. -1.
         23    2    1    2    0    0  0.16190105512E+03 -0.16625497195E+03  0.65843081445E+02  0.25778887622E+03  0.90923737161E+02 0.  0.
        254    2    1    2    0    0 -0.16190105512E+03  0.16625497195E+03 -0.52446959356E+03  0.10631222876E+04  0.89515807348E+03 0.  0.
        -24    2    4    4    0    0 -0.45463900133E+02 -0.28779719349E+03  0.60139749828E+02  0.30812943736E+03  0.80204550121E+02 0.  0.
         24    2    4    4    0    0 -0.11643715498E+03  0.45405216545E+03 -0.58460934339E+03  0.75499285026E+03  0.92331682302E+02 0.  0.
         13    1    3    3    0    0  0.15297241739E+03 -0.11450155518E+03  0.28143017841E+02  0.19314035330E+03  0.00000000000E+00 0. -1.
        -13    1    3    3    0    0  0.89286377288E+01 -0.51753416768E+02  0.37700063604E+02  0.64648522912E+02  0.00000000000E+00 0.  1.
          4    1    6    6  502    0 -0.43892519567E+02  0.18865315015E+03 -0.17184648199E+03  0.25893585636E+03  0.00000000000E+00 0. -1.
          3    1    5    5  503    0  0.79159455107E+01 -0.10284175204E+03 -0.91118732625E+01  0.10354764309E+03  0.00000000000E+00 0. -1.
         -2    1    5    5    0  503 -0.53379845644E+02 -0.18495544145E+03  0.69251623091E+02  0.20458179427E+03  0.00000000000E+00 0.  1.
         -3    1    6    6    0  502 -0.72544635417E+02  0.26539901530E+03 -0.41276286140E+03  0.49605699390E+03  0.00000000000E+00 0.  1.
<mgrwt>
<rscale>  0 0.12387365E+04</rscale>
<asrwt>0</asrwt>
<pdfrwt beam="1">  1        1 0.13688751E+00 0.12387365E+04</pdfrwt>
<pdfrwt beam="2">  1       -1 0.66329588E-01 0.12387365E+04</pdfrwt>
<totfact> 0.42184323E+01</totfact>
</mgrwt>
</event>
<event>
12    1  0.2404191E-008  0.1376681E+04  0.7818608E-02  0.8970873E-01
         -2   -1    0    0    0  501 -0.00000000000E+00  0.00000000000E+00  0.47116717677E+03  0.47116717677E+03  0.00000000000E+00 0.  1.
          2   -1    0    0  501    0  0.00000000000E+00 -0.00000000000E+00 -0.10056149400E+04  0.10056149400E+04  0.00000000000E+00 0. -1.
         23    2    1    2    0    0 -0.39660419587E+03 -0.38559231792E+02 -0.22994242172E+03  0.46902535078E+03  0.91266422250E+02 0.  0.
        254    2    1    2    0    0  0.39660419587E+03  0.38559231792E+02 -0.30450534150E+03  0.10077567660E+04  0.87411011539E+03 0.  0.
        -24    2    4    4    0    0  0.38337774674E+03 -0.45208506528E+02  0.23482708937E+03  0.45808644843E+03  0.75346709128E+02 0.  0.
         24    2    4    4    0    0  0.13226449124E+02  0.83767738319E+02 -0.53933243087E+03  0.54967031753E+03  0.63765304484E+02 0.  0.
         13    1    3    3    0    0 -0.33690995753E+03 -0.59339512768E+02 -0.17038415755E+03  0.38217830708E+03  0.00000000000E+00 0. -1.
        -13    1    3    3    0    0 -0.59694238336E+02  0.20780280976E+02 -0.59558264171E+02  0.86847043697E+02  0.00000000000E+00 0.  1.
          2    1    6    6  502    0 -0.42481888171E+01  0.69068694024E+02 -0.24886295898E+03  0.25830467273E+03  0.00000000000E+00 0. -1.
          1    1    5    5  503    0  0.28408298624E+02  0.35856279242E+01  0.42998655746E+02  0.51660164095E+02  0.00000000000E+00 0. -1.
         -2    1    5    5    0  503  0.35496944812E+03 -0.48794134452E+02  0.19182843362E+03  0.40642628434E+03  0.00000000000E+00 0.  1.
         -1    1    6    6    0  502  0.17474637941E+02  0.14699044295E+02 -0.29046947189E+03  0.29136564481E+03  0.00000000000E+00 0.  1.
<mgrwt>
<rscale>  0 0.13766812E+04</rscale>
<asrwt>0</asrwt>
<pdfrwt beam="1">  1        2 0.15470999E+00 0.13766812E+04</pdfrwt>
<pdfrwt beam="2">  1       -2 0.72487260E-01 0.13766812E+04</pdfrwt>
<totfact> 0.41942244E+01</totfact>
</mgrwt>
</event>
<event>
11    1  0.2404191E-008  0.1589705E+04  0.7818608E-02  0.8826898E-01
         -1   -1    0    0    0  501 -0.00000000000E+00  0.00000000000E+00  0.10289215015E+04  0.10289215015E+04  0.00000000000E+00 0.  1.
          1   -1    0    0  501    0  0.00000000000E+00 -0.00000000000E+00 -0.61403150167E+03  0.61403150167E+03  0.00000000000E+00 0. -1.
         23    2    1    2    0    0  0.43031737781E+03 -0.24588686750E+03 -0.57770449735E+02  0.51007584739E+03  0.10586098418E+03 0.  0.
        254    2    1    2    0    0 -0.43031737781E+03  0.24588686750E+03  0.47266044957E+03  0.11328771558E+04  0.90242415320E+03 0.  0.
        -24    2    4    4    0    0 -0.33882030413E+03  0.56565303534E+03  0.34624026129E+03  0.74915807181E+03  0.81196940423E+02 0.  0.
         11    1    3    3    0    0  0.41274825975E+03 -0.24570721361E+03 -0.74172412520E+02  0.48603982093E+03  0.00000000000E+00 0. -1.
        -11    1    3    3    0    0  0.17569118056E+02 -0.17965389035E+00  0.16401962785E+02  0.24036026460E+02  0.00000000000E+00 0.  1.
          2    1    4    4  502    0 -0.52363953909E+01  0.86140923915E+01 -0.13201667344E+02  0.16610431815E+02  0.00000000000E+00 0. -1.
          3    1    5    5  503    0 -0.86813479941E+01  0.42442065336E+02  0.39513397540E+02  0.58634488981E+02  0.00000000000E+00 0. -1.
         -4    1    5    5    0  503 -0.33013895613E+03  0.52321097001E+03  0.30672686375E+03  0.69052358283E+03  0.00000000000E+00 0.  1.
         -1    1    4    4    0  502 -0.86260678293E+02 -0.32838026023E+03  0.13962185563E+03  0.36710865217E+03  0.00000000000E+00 0.  1.
<mgrwt>
<rscale>  0 0.15897046E+04</rscale>
<asrwt>0</asrwt>
<pdfrwt beam="1">  1        1 0.94466385E-01 0.15897046E+04</pdfrwt>
<pdfrwt beam="2">  1       -1 0.15829562E+00 0.15897046E+04</pdfrwt>
<totfact> 0.95758807E+00</totfact>
</mgrwt>
</event>
<event>
12    1  0.2404191E-008  0.1544906E+04  0.7818608E-02  0.8855128E-01
         -1   -1    0    0    0  501 -0.00000000000E+00  0.00000000000E+00  0.45390549778E+03  0.45390549778E+03  0.00000000000E+00 0.  1.
          1   -1    0    0  501    0  0.00000000000E+00 -0.00000000000E+00 -0.13145550860E+04  0.13145550860E+04  0.00000000000E+00 0. -1.
         23    2    1    2    0    0  0.84708806604E+02 -0.10677545913E+03 -0.84644801898E+03  0.86221702472E+03  0.91473320181E+02 0.  0.
        254    2    1    2    0    0 -0.84708806604E+02  0.10677545913E+03 -0.14201569248E+02  0.90624355907E+03  0.89582315397E+03 0.  0.
        -24    2    4    4    0    0  0.26225231904E+03 -0.24309954023E+03  0.12996440026E+03  0.38913742634E+03  0.81630422936E+02 0.  0.
         24    2    4    4    0    0 -0.34696112564E+03  0.34987499936E+03 -0.14416596951E+03  0.51710613272E+03  0.61809286144E+02 0.  0.
         11    1    3    3    0    0  0.88202991109E+01 -0.42970740316E+02 -0.99803860825E+02  0.10901877286E+03  0.00000000000E+00 0.  1.
        -11    1    3    3    0    0  0.75888507493E+02 -0.63804718814E+02 -0.74664415815E+03  0.75319825187E+03  0.00000000000E+00 0. -1.
          2    1    6    6  502    0 -0.25777509416E+03  0.29457786791E+03 -0.10726317176E+03  0.40586883035E+03  0.00000000000E+00 0. -1.
          3    1    5    5  503    0  0.22975968011E+03 -0.19861333327E+03  0.13778007986E+03  0.33349680232E+03  0.00000000000E+00 0. -1.
         -4    1    5    5    0  503  0.32492638927E+02 -0.44486206957E+02 -0.78156795919E+01  0.55640624020E+02  0.00000000000E+00 0.  1.
         -1    1    6    6    0  502 -0.89186031483E+02  0.55297131442E+02 -0.36902797751E+02  0.11123730237E+03  0.00000000000E+00 0.  1.
<mgrwt>
<rscale>  0 0.15449062E+04</rscale>
<asrwt>0</asrwt>
<pdfrwt beam="1">  1        1 0.20223924E+00 0.15449062E+04</pdfrwt>
<pdfrwt beam="2">  1       -1 0.69831615E-01 0.15449062E+04</pdfrwt>
<totfact> 0.17649882E+01</totfact>
</mgrwt>
</event>
<event>
11    1  0.2404191E-008  0.1614458E+04  0.7818608E-02  0.8811715E-01
         -2   -1    0    0    0  501 -0.00000000000E+00  0.00000000000E+00  0.11657856017E+04  0.11657856017E+04  0.00000000000E+00 0.  1.
          2   -1    0    0  501    0  0.00000000000E+00 -0.00000000000E+00 -0.55895251765E+03  0.55895251765E+03  0.00000000000E+00 0. -1.
         23    2    1    2    0    0  0.35884784587E+02 -0.39697067465E+03 -0.20089223525E+03  0.45543753213E+03  0.90510889950E+02 0.  0.
        254    2    1    2    0    0 -0.35884784587E+02  0.39697067465E+03  0.80772531926E+03  0.12693005872E+04  0.89433235150E+03 0.  0.
        -24    2    4    4    0    0 -0.76147011798E+02  0.32253136725E+03  0.85522228387E+03  0.92062511483E+03  0.79502182103E+02 0.  0.
         13    1    3    3    0    0  0.44872550848E+02 -0.10442997616E+03 -0.34580205987E+02  0.11880638193E+03  0.00000000000E+00 0.  1.
        -13    1    3    3    0    0 -0.89877662608E+01 -0.29254069849E+03 -0.16631202926E+03  0.33663115021E+03  0.00000000000E+00 0. -1.
          2    1    4    4  502    0  0.70515333212E+02 -0.12460561190E+03 -0.72283952058E+01  0.14335696855E+03  0.00000000000E+00 0. -1.
          1    1    5    5  503    0 -0.68703988916E+02  0.18442267716E+03  0.58228517101E+03  0.61464459838E+03  0.00000000000E+00 0. -1.
         -2    1    5    5    0  503 -0.74430228820E+01  0.13810869008E+03  0.27293711286E+03  0.30598051645E+03  0.00000000000E+00 0.  1.
         -1    1    4    4    0  502 -0.30253106001E+02  0.19904491930E+03 -0.40268569407E+02  0.20531850380E+03  0.00000000000E+00 0.  1.
<mgrwt>
<rscale>  0 0.16144582E+04</rscale>
<asrwt>0</asrwt>
<pdfrwt beam="1">  1        2 0.85992695E-01 0.16144582E+04</pdfrwt>
<pdfrwt beam="2">  1       -2 0.17935163E+00 0.16144582E+04</pdfrwt>
<totfact> 0.94680443E+00</totfact>
</mgrwt>
</event>
<event>
12    1  0.2404191E-008  0.1306604E+04  0.7818608E-02  0.9024345E-01
         -2   -1    0    0    0  501 -0.00000000000E+00  0.00000000000E+00  0.31784227696E+03  0.31784227696E+03  0.00000000000E+00 0. -1.
          2   -1    0    0  501    0  0.00000000000E+00 -0.00000000000E+00 -0.13428150977E+04  0.13428150977E+04  0.00000000000E+00 0.  1.
         23    2    1    2    0    0 -0.22687320616E+03 -0.23850760510E+03 -0.19969112653E+03  0.39559113765E+03  0.90876139948E+02 0.  0.
        254    2    1    2    0    0  0.22687320616E+03  0.23850760510E+03 -0.82528169422E+03  0.12650662370E+04  0.90052505788E+03 0.  0.
        -24    2    4    4    0    0  0.33391830919E+03  0.49769541313E+03 -0.33237479199E+03  0.68976496874E+03  0.78106006810E+02 0.  0.
         24    2    4    4    0    0 -0.10704510303E+03 -0.25918780803E+03 -0.49290690223E+03  0.57530126828E+03  0.96836775569E+02 0.  0.
         11    1    3    3    0    0 -0.39719737556E+02 -0.50969250834E+02 -0.13566834491E+01  0.64632520236E+02  0.00000000000E+00 0. -1.
        -11    1    3    3    0    0 -0.18715346860E+03 -0.18753835427E+03 -0.19833444308E+03  0.33095861742E+03  0.00000000000E+00 0.  1.
          4    1    6    6  502    0  0.14676391066E+02 -0.62534958637E+02 -0.12925311838E+03  0.14433428601E+03  0.00000000000E+00 0. -1.
          3    1    5    5  503    0  0.85410667857E+02  0.12324490997E+03 -0.12316113890E+03  0.19404369650E+03  0.00000000000E+00 0. -1.
         -4    1    5    5    0  503  0.24850764133E+03  0.37445050316E+03 -0.20921365309E+03  0.49572127224E+03  0.00000000000E+00 0.  1.
         -3    1    6    6    0  502 -0.12172149409E+03 -0.19665284939E+03 -0.36365378385E+03  0.43096698227E+03  0.00000000000E+00 0.  1.
<mgrwt>
<rscale>  0 0.13066039E+04</rscale>
<asrwt>0</asrwt>
<pdfrwt beam="1">  1        2 0.20658694E+00 0.13066039E+04</pdfrwt>
<pdfrwt beam="2">  1       -2 0.48898812E-01 0.13066039E+04</pdfrwt>
<totfact> 0.60547390E+01</totfact>
</mgrwt>
</event>
<event>
12    1  0.2404191E-008  0.2311506E+04  0.7818608E-02  0.8473398E-01
          2   -1    0    0  501    0  0.00000000000E+00  0.00000000000E+00  0.16434980691E+04  0.16434980691E+04  0.00000000000E+00 0. -1.
         -2   -1    0    0    0  501 -0.00000000000E+00 -0.00000000000E+00 -0.81275746938E+03  0.81275746938E+03  0.00000000000E+00 0.  1.
         23    2    1    2    0    0 -0.21843298808E+03 -0.86981859068E+03 -0.66502465141E+02  0.90401697915E+03  0.92340509826E+02 0.  0.
        254    2    1    2    0    0  0.21843298808E+03  0.86981859068E+03  0.89724306483E+03  0.15522385593E+04  0.89448425175E+03 0.  0.
        -24    2    4    4    0    0  0.35139859963E+03 -0.22937268440E+02  0.27392130397E+03  0.45324549086E+03  0.79946858035E+02 0.  0.
         24    2    4    4    0    0 -0.13296561155E+03  0.89275585912E+03  0.62332176085E+03  0.10989930684E+04  0.67549012428E+02 0.  0.
         11    1    3    3    0    0 -0.22616871025E+03 -0.82453340176E+03 -0.55575165392E+02  0.85679414979E+03  0.00000000000E+00 0.  1.
        -11    1    3    3    0    0  0.77357221674E+01 -0.45285188919E+02 -0.10927299748E+02  0.47222829359E+02  0.00000000000E+00 0. -1.
          4    1    6    6  502    0 -0.90186794456E+02  0.40591244268E+03  0.26667578317E+03  0.49397828125E+03  0.00000000000E+00 0. -1.
          3    1    5    5  503    0  0.20286635297E+03  0.40229414911E+01  0.20095696735E+03  0.28557773715E+03  0.00000000000E+00 0. -1.
         -4    1    5    5    0  503  0.14853224666E+03 -0.26960209931E+02  0.72964336622E+02  0.16766775372E+03  0.00000000000E+00 0.  1.
         -3    1    6    6    0  502 -0.42778817094E+02  0.48684341643E+03  0.35664597768E+03  0.60501478718E+03  0.00000000000E+00 0.  1.
<mgrwt>
<rscale>  0 0.23115063E+04</rscale>
<asrwt>0</asrwt>
<pdfrwt beam="1">  1        2 0.25284586E+00 0.23115063E+04</pdfrwt>
<pdfrwt beam="2">  1       -2 0.12503961E+00 0.23115063E+04</pdfrwt>
<totfact> 0.45764805E+00</totfact>
</mgrwt>
</event>
<event>
11    1  0.2404191E-008  0.1372194E+04  0.7818608E-02  0.8974196E-01
         -1   -1    0    0    0  501 -0.00000000000E+00  0.00000000000E+00  0.24708278238E+03  0.24708278238E+03  0.00000000000E+00 0.  1.
          1   -1    0    0  501    0  0.00000000000E+00 -0.00000000000E+00 -0.19051463299E+04  0.19051463299E+04  0.00000000000E+00 0. -1.
         23    2    1    2    0    0  0.18664714193E+02 -0.34379157880E+03 -0.78793530445E+03  0.86493661428E+03  0.93446677413E+02 0.  0.
        254    2    1    2    0    0 -0.18664714193E+02  0.34379157880E+03 -0.87012824306E+03  0.12872924980E+04  0.88400101515E+03 0.  0.
        -24    2    4    4    0    0 -0.40145388335E+03 -0.13396712299E+02 -0.37328204927E+03  0.55451495279E+03  0.82478192293E+02 0.  0.
         13    1    3    3    0    0 -0.20088995495E+01 -0.32386374852E+03 -0.67907154106E+03  0.75234960036E+03  0.00000000000E+00 0.  1.
        -13    1    3    3    0    0  0.20673613743E+02 -0.19927830278E+02 -0.10886376339E+03  0.11258701392E+03  0.00000000000E+00 0. -1.
          2    1    4    4  502    0  0.25254327577E+03  0.30807569722E+03 -0.38786165461E+03  0.55599047157E+03  0.00000000000E+00 0. -1.
          3    1    5    5  503    0 -0.38291933954E+03 -0.28806275444E+02 -0.33671874053E+03  0.51072158004E+03  0.00000000000E+00 0. -1.
         -4    1    5    5    0  503 -0.18534543811E+02  0.15409563144E+02 -0.36563308738E+02  0.43793372746E+02  0.00000000000E+00 0.  1.
         -1    1    4    4    0  502  0.13024589338E+03  0.49112593875E+02 -0.10898453919E+03  0.17678707363E+03  0.00000000000E+00 0.  1.
<mgrwt>
<rscale>  0 0.13721937E+04</rscale>
<asrwt>0</asrwt>
<pdfrwt beam="1">  1        1 0.29309943E+00 0.13721937E+04</pdfrwt>
<pdfrwt beam="2">  1       -1 0.38012736E-01 0.13721937E+04</pdfrwt>
<totfact> 0.22590937E+01</totfact>
</mgrwt>
</event>
<event>
11    1  0.2404191E-008  0.2801954E+04  0.7818608E-02  0.8302662E-01
          2   -1    0    0  501    0  0.00000000000E+00  0.00000000000E+00  0.38535858498E+04  0.38535858498E+04  0.00000000000E+00 0. -1.
         -2   -1    0    0    0  501 -0.00000000000E+00 -0.00000000000E+00 -0.50932730504E+03  0.50932730504E+03  0.00000000000E+00 0.  1.
         23    2    1    2    0    0  0.61336577634E+03  0.41026566143E+03 -0.79200212493E+02  0.74756206649E+03  0.89670959954E+02 0.  0.
        254    2    1    2    0    0 -0.61336577634E+03 -0.41026566143E+03  0.34234587573E+04  0.36153510884E+04  0.89786309694E+03 0.  0.
        -24    2    4    4    0    0 -0.29213373331E+03  0.16319802719E+03  0.45859742377E+03  0.57375633941E+03  0.83120549231E+02 0.  0.
         13    1    3    3    0    0  0.76813500598E+02  0.68860035076E+02 -0.39157539297E+02  0.11034188320E+03  0.00000000000E+00 0. -1.
        -13    1    3    3    0    0  0.53655227574E+03  0.34140562636E+03 -0.40042673196E+02  0.63722018329E+03  0.00000000000E+00 0.  1.
          2    1    4    4  502    0 -0.23071089298E+03 -0.52507947240E+03  0.26045599643E+04  0.26669586754E+04  0.00000000000E+00 0. -1.
          1    1    5    5  503    0 -0.21929721399E+03  0.11252900406E+03  0.27156161388E+03  0.36674208233E+03  0.00000000000E+00 0. -1.
         -4    1    5    5    0  503 -0.72836519318E+02  0.50669023133E+02  0.18703580989E+03  0.20701425708E+03  0.00000000000E+00 0.  1.
         -1    1    4    4    0  502 -0.90521150053E+02 -0.48384216221E+02  0.36030136920E+03  0.37463607359E+03  0.00000000000E+00 0.  1.
<mgrwt>
<rscale>  0 0.28019540E+04</rscale>
<asrwt>0</asrwt>
<pdfrwt beam="1">  1        2 0.59285934E+00 0.28019540E+04</pdfrwt>
<pdfrwt beam="2">  1       -2 0.78358050E-01 0.28019540E+04</pdfrwt>
<totfact> 0.56312022E-01</totfact>
</mgrwt>
</event>
<event>
12    1  0.2404191E-008  0.1230536E+04  0.7818608E-02  0.9086541E-01
         -1   -1    0    0    0  501 -0.00000000000E+00  0.00000000000E+00  0.40483018557E+03  0.40483018557E+03  0.00000000000E+00 0.  1.
          1   -1    0    0  501    0  0.00000000000E+00 -0.00000000000E+00 -0.93509475501E+03  0.93509475501E+03  0.00000000000E+00 0. -1.
         23    2    1    2    0    0  0.21265645941E+03  0.47766733193E+01 -0.30768846728E+03  0.38588942375E+03  0.94830734102E+02 0.  0.
        254    2    1    2    0    0 -0.21265645941E+03 -0.47766733193E+01 -0.22257610216E+03  0.95403551683E+03  0.90299394227E+03 0.  0.
        -24    2    4    4    0    0 -0.47144914244E+03  0.18983083439E+03 -0.31742476956E+03  0.60459344605E+03  0.80465589438E+02 0.  0.
         24    2    4    4    0    0  0.25879268303E+03 -0.19460750771E+03  0.94848667406E+02  0.34944207078E+03  0.90927203172E+02 0.  0.
         13    1    3    3    0    0  0.40186419074E+02  0.25782597339E+02 -0.24537500249E+02  0.53682208617E+02  0.00000000000E+00 0.  1.
        -13    1    3    3    0    0  0.17247004033E+03 -0.21005924020E+02 -0.28315096703E+03  0.33220721513E+03  0.00000000000E+00 0. -1.
          2    1    6    6  502    0  0.59953198020E+02 -0.98090174989E+02  0.25076003260E+02  0.11766424402E+03  0.00000000000E+00 0. -1.
          1    1    5    5  503    0 -0.18781650550E+03  0.78978492304E+02 -0.81795858826E+02  0.21955228194E+03  0.00000000000E+00 0. -1.
         -2    1    5    5    0  503 -0.28363263693E+03  0.11085234209E+03 -0.23562891074E+03  0.38504116410E+03  0.00000000000E+00 0.  1.
         -1    1    6    6    0  502  0.19883948501E+03 -0.96517332720E+02  0.69772664147E+02  0.23177782676E+03  0.00000000000E+00 0.  1.
<mgrwt>
<rscale>  0 0.12305358E+04</rscale>
<asrwt>0</asrwt>
<pdfrwt beam="1">  1        1 0.14386073E+00 0.12305358E+04</pdfrwt>
<pdfrwt beam="2">  1       -1 0.62281568E-01 0.12305358E+04</pdfrwt>
<totfact> 0.44001395E+01</totfact>
</mgrwt>
</event>
<event>
11    1  0.2404191E-008  0.1636547E+04  0.7818608E-02  0.8798405E-01
          2   -1    0    0  501    0  0.00000000000E+00  0.00000000000E+00  0.77353716728E+03  0.77353716728E+03  0.00000000000E+00 0. -1.
         -2   -1    0    0    0  501 -0.00000000000E+00 -0.00000000000E+00 -0.86559667215E+03  0.86559667215E+03  0.00000000000E+00 0.  1.
         23    2    1    2    0    0 -0.43950303015E+03  0.21733620226E+03  0.24210321389E+03  0.55451446695E+03  0.92056447686E+02 0.  0.
        254    2    1    2    0    0  0.43950303015E+03 -0.21733620226E+03 -0.33416271877E+03  0.10846193725E+04  0.90792980027E+03 0.  0.
        -24    2    4    4    0    0  0.42554542124E+03  0.22778889988E+03 -0.40053212621E+03  0.63229274967E+03  0.79946536614E+02 0.  0.
         13    1    3    3    0    0 -0.28973311791E+03  0.18099676708E+03  0.19501950748E+03  0.39336715370E+03  0.00000000000E+00 0. -1.
        -13    1    3    3    0    0 -0.14976991224E+03  0.36339435175E+02  0.47083706416E+02  0.16114731326E+03  0.00000000000E+00 0.  1.
          2    1    4    4  502    0  0.14111347549E+02 -0.41774097137E+03  0.72612106470E+02  0.42423951642E+03  0.00000000000E+00 0. -1.
          1    1    5    5  503    0  0.31928038510E+03  0.13472698065E+03 -0.30617217671E+03  0.46242050713E+03  0.00000000000E+00 0. -1.
         -2    1    5    5    0  503  0.10626503615E+03  0.93061919228E+02 -0.94359949491E+02  0.16987224254E+03  0.00000000000E+00 0.  1.
         -1    1    4    4    0  502 -0.15373864181E+00 -0.27384130770E+02 -0.62426990302E+01  0.28087106379E+02  0.00000000000E+00 0.  1.
<mgrwt>
<rscale>  0 0.16365466E+04</rscale>
<asrwt>0</asrwt>
<pdfrwt beam="1">  1        2 0.11900572E+00 0.16365466E+04</pdfrwt>
<pdfrwt beam="2">  1       -2 0.13316872E+00 0.16365466E+04</pdfrwt>
<totfact> 0.14065428E+01</totfact>
</mgrwt>
</event>
<event>
12    1  0.2404191E-008  0.1312060E+04  0.7818608E-02  0.9020056E-01
          1   -1    0    0  501    0  0.00000000000E+00  0.00000000000E+00  0.63664626723E+03  0.63664626723E+03  0.00000000000E+00 0. -1.
         -1   -1    0    0    0  501 -0.00000000000E+00 -0.00000000000E+00 -0.67600390183E+03  0.67600390183E+03  0.00000000000E+00 0.  1.
         23    2    1    2    0    0  0.30341081803E+03  0.13575644758E+03  0.12266085310E+03  0.36557964102E+03  0.90082470497E+02 0.  0.
        254    2    1    2    0    0 -0.30341081803E+03 -0.13575644758E+03 -0.16201848770E+03  0.94707052804E+03  0.87189715974E+03 0.  0.
        -24    2    4    4    0    0 -0.59167747884E+03 -0.14795335119E+03 -0.18759659627E+03  0.64309288947E+03  0.80022174792E+02 0.  0.
         24    2    4    4    0    0  0.28826666081E+03  0.12196903611E+02  0.25578108570E+02  0.30397763857E+03  0.92204842171E+02 0.  0.
         13    1    3    3    0    0  0.25929152381E+03  0.14672601955E+03  0.96703569451E+02  0.31322866963E+03  0.00000000000E+00 0. -1.
        -13    1    3    3    0    0  0.44119294219E+02 -0.10969571969E+02  0.25957283648E+02  0.52350971395E+02  0.00000000000E+00 0.  1.
          4    1    6    6  502    0  0.20458031426E+03  0.14512413307E+02 -0.24297195875E+02  0.20652861508E+03  0.00000000000E+00 0. -1.
          3    1    5    5  503    0 -0.57560726709E+03 -0.12829486011E+03 -0.17978372438E+03  0.61652695368E+03  0.00000000000E+00 0. -1.
         -2    1    5    5    0  503 -0.16070211746E+02 -0.19658491082E+02 -0.78128718873E+01  0.26565935788E+02  0.00000000000E+00 0.  1.
         -3    1    6    6    0  502  0.83686346553E+02 -0.23155096962E+01  0.49875304445E+02  0.97449023484E+02  0.00000000000E+00 0.  1.
<mgrwt>
<rscale>  0 0.13120600E+04</rscale>
<asrwt>0</asrwt>
<pdfrwt beam="1">  1        1 0.97945579E-01 0.13120600E+04</pdfrwt>
<pdfrwt beam="2">  1       -1 0.10400060E+00 0.13120600E+04</pdfrwt>
<totfact> 0.26851895E+01</totfact>
</mgrwt>
</event>
<event>
12    1  0.2404191E-008  0.2647379E+04  0.7818608E-02  0.8352283E-01
          2   -1    0    0  501    0  0.00000000000E+00  0.00000000000E+00  0.18693591292E+04  0.18693591292E+04  0.00000000000E+00 0. -1.
         -2   -1    0    0    0  501 -0.00000000000E+00 -0.00000000000E+00 -0.93730176972E+03  0.93730176972E+03  0.00000000000E+00 0.  1.
         23    2    1    2    0    0  0.49981778340E+03  0.18341517601E+03 -0.70916782211E+03  0.89148457945E+03  0.91470279819E+02 0.  0.
        254    2    1    2    0    0 -0.49981778340E+03 -0.18341517601E+03  0.16412251816E+04  0.19151763195E+04  0.83115660052E+03 0.  0.
        -24    2    4    4    0    0 -0.13798687290E+03  0.23266833478E+03  0.14641827347E+03  0.31850530570E+03  0.82658259399E+02 0.  0.
         24    2    4    4    0    0 -0.36183091049E+03 -0.41608351079E+03  0.14948069081E+04  0.15966710138E+04  0.10422829713E+03 0.  0.
         11    1    3    3    0    0  0.48453794746E+02  0.30883961199E+02 -0.12566191547E+03  0.13817563564E+03  0.00000000000E+00 0. -1.
        -11    1    3    3    0    0  0.45136398865E+03  0.15253121481E+03 -0.58350590665E+03  0.75330894382E+03  0.00000000000E+00 0.  1.
          2    1    6    6  502    0 -0.97237174374E+02 -0.12505795773E+03  0.57214107977E+03  0.59366655290E+03  0.00000000000E+00 0. -1.
          3    1    5    5  503    0 -0.67473361334E+01  0.36155871178E+02 -0.60583774550E+01  0.37275695874E+02  0.00000000000E+00 0. -1.
         -4    1    5    5    0  503 -0.13123953677E+03  0.19651246361E+03  0.15247665093E+03  0.28122960982E+03  0.00000000000E+00 0.  1.
         -1    1    6    6    0  502 -0.26459373612E+03 -0.29102555306E+03  0.92266582834E+03  0.10030044609E+04  0.00000000000E+00 0.  1.
<mgrwt>
<rscale>  0 0.26473788E+04</rscale>
<asrwt>0</asrwt>
<pdfrwt beam="1">  1        2 0.28759371E+00 0.26473788E+04</pdfrwt>
<pdfrwt beam="2">  1       -2 0.14420027E+00 0.26473788E+04</pdfrwt>
<totfact> 0.23135511E+00</totfact>
</mgrwt>
</event>
<event>
12    1  0.2404191E-008  0.1415641E+04  0.7818608E-02  0.8942574E-01
         -2   -1    0    0    0  501 -0.00000000000E+00  0.00000000000E+00  0.42423899820E+03  0.42423899820E+03  0.00000000000E+00 0.  1.
          2   -1    0    0  501    0  0.00000000000E+00 -0.00000000000E+00 -0.11809609022E+04  0.11809609022E+04  0.00000000000E+00 0. -1.
         23    2    1    2    0    0 -0.60250269343E+02 -0.89502916577E+02  0.22935089727E+03  0.26950864888E+03  0.91609009987E+02 0.  0.
        254    2    1    2    0    0  0.60250269343E+02  0.89502916577E+02 -0.98607280128E+03  0.13356912515E+04  0.89447788288E+03 0.  0.
        -24    2    4    4    0    0  0.50687271880E+02  0.40216463313E+03 -0.15357079145E+03  0.44082929326E+03  0.80255131547E+02 0.  0.
         24    2    4    4    0    0  0.95629974625E+01 -0.31266171655E+03 -0.83250200984E+03  0.89486195827E+03  0.99345498474E+02 0.  0.
         11    1    3    3    0    0 -0.13503460015E+02 -0.87792594334E+02  0.18418368531E+03  0.20448352742E+03  0.00000000000E+00 0.  1.
        -11    1    3    3    0    0 -0.46746809328E+02 -0.17103222424E+01  0.45167211963E+02  0.65025121461E+02  0.00000000000E+00 0. -1.
          2    1    6    6  502    0 -0.15735711798E+02 -0.18895251343E+03 -0.37436451725E+03  0.41964205787E+03  0.00000000000E+00 0. -1.
          1    1    5    5  503    0  0.37587094229E+02  0.60140919522E+02 -0.27990373852E+02  0.76244218679E+02  0.00000000000E+00 0. -1.
         -2    1    5    5    0  503  0.13100177652E+02  0.34202371360E+03 -0.12558041759E+03  0.36458507458E+03  0.00000000000E+00 0.  1.
         -1    1    6    6    0  502  0.25298709260E+02 -0.12370920312E+03 -0.45813749259E+03  0.47521990041E+03  0.00000000000E+00 0.  1.
<mgrwt>
<rscale>  0 0.14156407E+04</rscale>
<asrwt>0</asrwt>
<pdfrwt beam="1">  1        2 0.18168629E+00 0.14156407E+04</pdfrwt>
<pdfrwt beam="2">  1       -2 0.65267538E-01 0.14156407E+04</pdfrwt>
<totfact> 0.40912450E+01</totfact>
</mgrwt>
</event>
<event>
12    1  0.2404191E-008  0.2964875E+04  0.7818608E-02  0.8253833E-01
          2   -1    0    0  501    0  0.00000000000E+00  0.00000000000E+00  0.82814585214E+03  0.82814585214E+03  0.00000000000E+00 0. -1.
         -2   -1    0    0    0  501 -0.00000000000E+00 -0.00000000000E+00 -0.26536643161E+04  0.26536643161E+04  0.00000000000E+00 0.  1.
         23    2    1    2    0    0 -0.84266001726E+01 -0.98479563672E+03 -0.19043891630E+04  0.21454301905E+04  0.79241176556E+02 0.  0.
        254    2    1    2    0    0  0.84266001726E+01  0.98479563672E+03  0.78870699114E+02  0.13363799778E+04  0.89988743966E+03 0.  0.
        -24    2    4    4    0    0  0.38572434977E+03  0.77849707617E+03  0.17789703804E+03  0.89035959391E+03  0.79068822674E+02 0.  0.
         24    2    4    4    0    0 -0.37729774960E+03  0.20629856056E+03 -0.99026338929E+02  0.44602038384E+03  0.64925180519E+02 0.  0.
         11    1    3    3    0    0  0.20182265433E+02 -0.52461173588E+03 -0.10807731511E+04  0.12015387640E+04  0.00000000000E+00 0.  1.
        -11    1    3    3    0    0 -0.28608865606E+02 -0.46018390085E+03 -0.82361601197E+03  0.94389142647E+03  0.00000000000E+00 0. -1.
          4    1    6    6  502    0 -0.71955473273E+02  0.64382194484E+02 -0.38324116255E+02  0.10388163932E+03  0.00000000000E+00 0. -1.
          1    1    5    5  503    0  0.17195394352E+03  0.27340169861E+03  0.45859445815E+02  0.32622037990E+03  0.00000000000E+00 0. -1.
         -2    1    5    5    0  503  0.21377040625E+03  0.50509537756E+03  0.13203759223E+03  0.56413921401E+03  0.00000000000E+00 0.  1.
         -3    1    6    6    0  502 -0.30534227632E+03  0.14191636607E+03 -0.60702222674E+02  0.34213874453E+03  0.00000000000E+00 0.  1.
<mgrwt>
<rscale>  0 0.29648751E+04</rscale>
<asrwt>0</asrwt>
<pdfrwt beam="1">  1        2 0.12740706E+00 0.29648751E+04</pdfrwt>
<pdfrwt beam="2">  1       -2 0.40825604E+00 0.29648751E+04</pdfrwt>
<totfact> 0.18483406E-01</totfact>
</mgrwt>
</event>
<event>
11    1  0.2404191E-008  0.2889902E+04  0.7818608E-02  0.8275888E-01
          1   -1    0    0  501    0  0.00000000000E+00  0.00000000000E+00  0.18491701490E+04  0.18491701490E+04  0.00000000000E+00 0. -1.
         -1   -1    0    0    0  501 -0.00000000000E+00 -0.00000000000E+00 -0.11290919925E+04  0.11290919925E+04  0.00000000000E+00 0.  1.
         23    2    1    2    0    0 -0.15887084890E+03  0.51554389410E+03  0.15479359308E+04  0.16418850537E+04  0.93034565719E+02 0.  0.
        254    2    1    2    0    0  0.15887084890E+03 -0.51554389410E+03 -0.82785777433E+03  0.13363770878E+04  0.89973872477E+03 0.  0.
        -24    2    4    4    0    0  0.29950371018E+03 -0.53065187891E+03 -0.14855079349E+03  0.63292737455E+03  0.85063706723E+02 0.  0.
         11    1    3    3    0    0 -0.12402847688E+03  0.42595484555E+03  0.13641655869E+04  0.14344923639E+04  0.00000000000E+00 0. -1.
        -11    1    3    3    0    0 -0.34842372018E+02  0.89589048551E+02  0.18377034389E+03  0.20739268984E+03  0.00000000000E+00 0.  1.
          2    1    4    4  502    0 -0.97206497676E+02  0.13978876418E+01 -0.20415168269E+03  0.22611715288E+03  0.00000000000E+00 0. -1.
          3    1    5    5  503    0  0.23604425610E+03 -0.33987231621E+03 -0.11052784840E+03  0.42830653444E+03  0.00000000000E+00 0. -1.
         -4    1    5    5    0  503  0.63459454074E+02 -0.19077956270E+03 -0.38022945092E+02  0.20462084011E+03  0.00000000000E+00 0.  1.
         -1    1    4    4    0  502 -0.43426363602E+02  0.13710097170E+02 -0.47515529814E+03  0.47733256035E+03  0.00000000000E+00 0.  1.
<mgrwt>
<rscale>  0 0.28899019E+04</rscale>
<asrwt>0</asrwt>
<pdfrwt beam="1">  1        1 0.28448771E+00 0.28899019E+04</pdfrwt>
<pdfrwt beam="2">  1       -1 0.17370646E+00 0.28899019E+04</pdfrwt>
<totfact> 0.74913137E-01</totfact>
</mgrwt>
</event>
<event>
11    1  0.2404191E-008  0.1760632E+04  0.7818608E-02  0.8727519E-01
         -1   -1    0    0    0  501 -0.00000000000E+00  0.00000000000E+00  0.90667379299E+03  0.90667379299E+03  0.00000000000E+00 0.  1.
          1   -1    0    0  501    0  0.00000000000E+00 -0.00000000000E+00 -0.85472479956E+03  0.85472479956E+03  0.00000000000E+00 0. -1.
         23    2    1    2    0    0  0.38627648629E+03 -0.25357371767E+03  0.47014282720E+03  0.66543385980E+03  0.90877883139E+02 0.  0.
        254    2    1    2    0    0 -0.38627648629E+03  0.25357371767E+03 -0.41819383377E+03  0.10959647327E+04  0.90152285532E+03 0.  0.
        -24    2    4    4    0    0  0.17119241852E+03  0.65880456970E+02  0.12762611338E+03  0.23895696657E+03  0.84645899408E+02 0.  0.
         11    1    3    3    0    0  0.36606656217E+03 -0.25088536499E+03  0.46795896164E+03  0.64492928611E+03  0.00000000000E+00 0.  1.
        -11    1    3    3    0    0  0.20209924124E+02 -0.26883526788E+01  0.21838655553E+01  0.20504573684E+02  0.00000000000E+00 0. -1.
          2    1    4    4  502    0  0.10506475051E+02  0.54206787319E+02 -0.12793914236E+03  0.13934556311E+03  0.00000000000E+00 0. -1.
          1    1    5    5  503    0  0.33928603795E+02  0.32018835853E+02 -0.26240279945E+01  0.46725170174E+02  0.00000000000E+00 0. -1.
         -2    1    5    5    0  503  0.13726381472E+03  0.33861621116E+02  0.13025014138E+03  0.19223179640E+03  0.00000000000E+00 0.  1.
         -1    1    4    4    0  502 -0.56797537986E+03  0.13348647339E+03 -0.41788080478E+03  0.71766220307E+03  0.00000000000E+00 0.  1.
<mgrwt>
<rscale>  0 0.17606324E+04</rscale>
<asrwt>0</asrwt>
<pdfrwt beam="1">  1        1 0.13149612E+00 0.17606324E+04</pdfrwt>
<pdfrwt beam="2">  1       -1 0.13948828E+00 0.17606324E+04</pdfrwt>
<totfact> 0.79522588E+00</totfact>
</mgrwt>
</event>
<event>
11    1  0.2404191E-008  0.1286177E+04  0.7818608E-02  0.9040599E-01
          2   -1    0    0  501    0  0.00000000000E+00  0.00000000000E+00  0.28973852482E+04  0.28973852482E+04  0.00000000000E+00 0. -1.
         -2   -1    0    0    0  501 -0.00000000000E+00 -0.00000000000E+00 -0.14273664807E+03  0.14273664807E+03  0.00000000000E+00 0.  1.
         23    2    1    2    0    0 -0.28003493225E+03 -0.13910339288E+03  0.87553503944E+03  0.93419210217E+03  0.91563973714E+02 0.  0.
        254    2    1    2    0    0  0.28003493225E+03  0.13910339288E+03  0.18791135607E+04  0.21059297941E+04  0.89783250472E+03 0.  0.
        -24    2    4    4    0    0  0.14410248071E+03  0.27638971193E+03  0.18327388501E+04  0.18608470247E+04  0.81628174513E+02 0.  0.
         13    1    3    3    0    0  0.55064531046E+01 -0.77537011107E+00  0.44481772227E+01  0.71209904653E+01  0.00000000000E+00 0.  1.
        -13    1    3    3    0    0 -0.28554138536E+03 -0.13832802277E+03  0.87108686222E+03  0.92707111171E+03  0.00000000000E+00 0. -1.
          4    1    4    4  502    0  0.15960421265E+03 -0.13473201415E+03  0.20424707609E+02  0.20986516865E+03  0.00000000000E+00 0. -1.
          1    1    5    5  503    0  0.14939443902E+03  0.22696739388E+03  0.15932642272E+04  0.16162684783E+04  0.00000000000E+00 0. -1.
         -2    1    5    5    0  503 -0.52919583120E+01  0.49422318048E+02  0.23947462292E+03  0.24457854642E+03  0.00000000000E+00 0.  1.
         -3    1    4    4    0  502 -0.23671761108E+02 -0.25543049048E+01  0.25950002994E+02  0.35217600755E+02  0.00000000000E+00 0.  1.
<mgrwt>
<rscale>  0 0.12861774E+04</rscale>
<asrwt>0</asrwt>
<pdfrwt beam="1">  1        2 0.44575153E+00 0.12861774E+04</pdfrwt>
<pdfrwt beam="2">  1       -2 0.21959486E-01 0.12861774E+04</pdfrwt>
<totfact> 0.36204709E+01</totfact>
</mgrwt>
</event>
<event>
11    1  0.2404191E-008  0.1841748E+04  0.7818608E-02  0.8684408E-01
          1   -1    0    0  501    0  0.00000000000E+00  0.00000000000E+00  0.24941817456E+04  0.24941817456E+04  0.00000000000E+00 0. -1.
         -1   -1    0    0    0  501 -0.00000000000E+00 -0.00000000000E+00 -0.33999497531E+03  0.33999497531E+03  0.00000000000E+00 0.  1.
         23    2    1    2    0    0 -0.18727937253E+03  0.56322068394E+03  0.13652811847E+04  0.14936786582E+04  0.12162285403E+03 0.  0.
        254    2    1    2    0    0  0.18727937253E+03 -0.56322068394E+03  0.78890558563E+03  0.13404980627E+04  0.90679211006E+03 0.  0.
        -24    2    4    4    0    0  0.45529171946E+03 -0.16754916600E+03  0.11470141752E+03  0.50502181950E+03  0.80792017885E+02 0.  0.
         13    1    3    3    0    0 -0.16278538619E+03  0.41143528276E+03  0.11195170461E+04  0.12037842375E+04  0.00000000000E+00 0. -1.
        -13    1    3    3    0    0 -0.24493986340E+02  0.15178540118E+03  0.24576413853E+03  0.28989442072E+03  0.00000000000E+00 0.  1.
          2    1    4    4  502    0 -0.14356474768E+03 -0.28255353627E+03  0.36419910755E+03  0.48279221988E+03  0.00000000000E+00 0. -1.
          1    1    5    5  503    0  0.13567910620E+03 -0.87225647810E+02  0.22843282893E+02  0.16290779315E+03  0.00000000000E+00 0. -1.
         -2    1    5    5    0  503  0.31961261326E+03 -0.80323518188E+02  0.91858134624E+02  0.34211402635E+03  0.00000000000E+00 0.  1.
         -1    1    4    4    0  502 -0.12444759925E+03 -0.11311798168E+03  0.31000506056E+03  0.35268402333E+03  0.00000000000E+00 0.  1.
<mgrwt>
<rscale>  0 0.18417484E+04</rscale>
<asrwt>0</asrwt>
<pdfrwt beam="1">  1        1 0.38372026E+00 0.18417484E+04</pdfrwt>
<pdfrwt beam="2">  1       -1 0.52306921E-01 0.18417484E+04</pdfrwt>
<totfact> 0.47378457E+00</totfact>
</mgrwt>
</event>
<event>
11    1  0.2404191E-008  0.3531049E+04  0.7818608E-02  0.8106471E-01
          2   -1    0    0  501    0  0.00000000000E+00  0.00000000000E+00  0.17602166320E+04  0.17602166320E+04  0.00000000000E+00 0. -1.
         -2   -1    0    0    0  501 -0.00000000000E+00 -0.00000000000E+00 -0.17708486217E+04  0.17708486217E+04  0.00000000000E+00 0.  1.
         23    2    1    2    0    0  0.89195478022E+03 -0.11278777016E+04  0.80203005306E+03  0.16490613950E+04  0.91977381217E+02 0.  0.
        254    2    1    2    0    0 -0.89195478022E+03  0.11278777016E+04 -0.81266204278E+03  0.18820038587E+04  0.90212387656E+03 0.  0.
        -24    2    4    4    0    0 -0.65150794249E+03  0.11828514939E+04 -0.45100319825E+03  0.14259370703E+04  0.79324572628E+02 0.  0.
         11    1    3    3    0    0  0.80441874553E+03 -0.96887364032E+03  0.69481564815E+03  0.14382539532E+04  0.00000000000E+00 0. -1.
        -11    1    3    3    0    0  0.87536034688E+02 -0.15900406132E+03  0.10721440491E+03  0.21080744177E+03  0.00000000000E+00 0.  1.
          4    1    4    4  502    0 -0.15917389685E+03 -0.88056263788E+02 -0.29201827758E+03  0.34404201702E+03  0.00000000000E+00 0. -1.
          3    1    5    5  503    0 -0.62406719102E+03  0.11223954709E+04 -0.44556211063E+03  0.13593222747E+04  0.00000000000E+00 0. -1.
         -4    1    5    5    0  503 -0.27440751467E+02  0.60456023054E+02 -0.54410876157E+01  0.66614795647E+02  0.00000000000E+00 0.  1.
         -3    1    4    4    0  502 -0.81272940888E+02  0.33082471485E+02 -0.69640566947E+02  0.11202477139E+03  0.00000000000E+00 0.  1.
<mgrwt>
<rscale>  0 0.35310492E+04</rscale>
<asrwt>0</asrwt>
<pdfrwt beam="1">  1        2 0.27080256E+00 0.35310492E+04</pdfrwt>
<pdfrwt beam="2">  1       -2 0.27243825E+00 0.35310492E+04</pdfrwt>
<totfact> 0.34851897E-01</totfact>
</mgrwt>
</event>
<event>
11    1  0.2404191E-008  0.1234994E+04  0.7818608E-02  0.9082766E-01
          2   -1    0    0  501    0  0.00000000000E+00  0.00000000000E+00  0.72368448927E+03  0.72368448927E+03  0.00000000000E+00 0. -1.
         -2   -1    0    0    0  501 -0.00000000000E+00 -0.00000000000E+00 -0.52689042334E+03  0.52689042334E+03  0.00000000000E+00 0.  1.
         23    2    1    2    0    0  0.72028285319E+02  0.19319504436E+03 -0.37069945601E+02  0.22856088160E+03  0.91397465397E+02 0.  0.
        254    2    1    2    0    0 -0.72028285319E+02 -0.19319504436E+03  0.23386401154E+03  0.10220140310E+04  0.97329743893E+03 0.  0.
        -24    2    4    4    0    0 -0.19714767878E+03  0.20786336417E+03 -0.53622819917E+02  0.30184546340E+03  0.78491346949E+02 0.  0.
         11    1    3    3    0    0  0.27631980286E+02  0.81235337662E+02  0.29760723698E+02  0.90820741544E+02  0.00000000000E+00 0. -1.
        -11    1    3    3    0    0  0.44396305033E+02  0.11195970670E+03 -0.66830669299E+02  0.13774014006E+03  0.00000000000E+00 0.  1.
          4    1    4    4  502    0  0.21202669618E+03  0.23974168059E+02  0.29444161989E+02  0.21539971983E+03  0.00000000000E+00 0. -1.
          3    1    5    5  503    0  0.25328708964E+01  0.15140874517E+02  0.83790682080E+01  0.17489148068E+02  0.00000000000E+00 0. -1.
         -4    1    5    5    0  503 -0.19968054967E+03  0.19272248965E+03 -0.62001888125E+02  0.28435631533E+03  0.00000000000E+00 0.  1.
         -3    1    4    4    0  502 -0.86907302720E+02 -0.42503257659E+03  0.25804266946E+03  0.50476884778E+03  0.00000000000E+00 0.  1.
<mgrwt>
<rscale>  0 0.12349938E+04</rscale>
<asrwt>0</asrwt>
<pdfrwt beam="1">  1        2 0.11133608E+00 0.12349938E+04</pdfrwt>
<pdfrwt beam="2">  1       -2 0.81060065E-01 0.12349938E+04</pdfrwt>
<totfact> 0.51902907E+01</totfact>
</mgrwt>
</event>
<event>
12    1  0.2404191E-008  0.1335984E+04  0.7818608E-02  0.9001507E-01
         -1   -1    0    0    0  501 -0.00000000000E+00  0.00000000000E+00  0.11241529524E+04  0.11241529524E+04  0.00000000000E+00 0.  1.
          1   -1    0    0  501    0  0.00000000000E+00 -0.00000000000E+00 -0.39693268370E+03  0.39693268370E+03  0.00000000000E+00 0. -1.
         23    2    1    2    0    0  0.52082273509E+02 -0.28982406157E+03  0.43636417661E+03  0.53462804216E+03  0.93289329295E+02 0.  0.
        254    2    1    2    0    0 -0.52082273509E+02  0.28982406157E+03  0.29085609206E+03  0.98645759390E+03  0.89542770138E+03 0.  0.
        -24    2    4    4    0    0  0.13904094793E+03 -0.14161390064E+03  0.43355376613E+03  0.48354279695E+03  0.80360975012E+02 0.  0.
         24    2    4    4    0    0 -0.19112322144E+03  0.43143796221E+03 -0.14269767406E+03  0.50291479695E+03  0.99467913403E+02 0.  0.
         13    1    3    3    0    0  0.33014891660E+02 -0.66100805029E+02  0.55138207589E+02  0.92192849142E+02  0.00000000000E+00 0. -1.
        -13    1    3    3    0    0  0.19067381849E+02 -0.22372325654E+03  0.38122596902E+03  0.44243519302E+03  0.00000000000E+00 0.  1.
          4    1    6    6  502    0 -0.10627744207E+03  0.34319749584E+03 -0.11686007178E+03  0.37780377476E+03  0.00000000000E+00 0. -1.
          3    1    5    5  503    0  0.14047578396E+03 -0.14352440239E+03  0.43605739559E+03  0.48008202654E+03  0.00000000000E+00 0. -1.
         -4    1    5    5    0  503 -0.14348360223E+01  0.19105017523E+01 -0.25036294619E+01  0.34607704112E+01  0.00000000000E+00 0.  1.
         -3    1    6    6    0  502 -0.84845779370E+02  0.88240466368E+02 -0.25837602287E+02  0.12511102219E+03  0.00000000000E+00 0.  1.
<mgrwt>
<rscale>  0 0.13359836E+04</rscale>
<asrwt>0</asrwt>
<pdfrwt beam="1">  1        1 0.61066568E-01 0.13359836E+04</pdfrwt>
<pdfrwt beam="2">  1       -1 0.17294661E+00 0.13359836E+04</pdfrwt>
<totfact> 0.13904914E+01</totfact>
</mgrwt>
</event>
<event>
11    1  0.2404191E-008  0.2257219E+04  0.7818608E-02  0.8494983E-01
         -1   -1    0    0    0  501 -0.00000000000E+00  0.00000000000E+00  0.98188847513E+03  0.98188847513E+03  0.00000000000E+00 0.  1.
          1   -1    0    0  501    0  0.00000000000E+00 -0.00000000000E+00 -0.12972540962E+04  0.12972540962E+04  0.00000000000E+00 0. -1.
         23    2    1    2    0    0  0.76595985866E+03  0.11952482944E+03  0.39403526932E+03  0.87428767437E+03  0.90191208841E+02 0.  0.
        254    2    1    2    0    0 -0.76595985866E+03 -0.11952482944E+03 -0.70940089035E+03  0.14048548969E+04  0.93240922788E+03 0.  0.
        -24    2    4    4    0    0 -0.47302526866E+03 -0.38007076805E+03 -0.76387971620E+03  0.97875685145E+03  0.79032018389E+02 0.  0.
         11    1    3    3    0    0  0.29221450507E+03  0.15122719612E+01  0.15032822153E+03  0.32861859066E+03  0.00000000000E+00 0. -1.
        -11    1    3    3    0    0  0.47374535360E+03  0.11801255748E+03  0.24370704779E+03  0.54566908371E+03  0.00000000000E+00 0.  1.
          4    1    4    4  502    0 -0.30553281996E+03  0.21551777314E+03  0.61162182061E+02  0.37886544726E+03  0.00000000000E+00 0. -1.
          1    1    5    5  503    0 -0.71144272791E+02 -0.70231042666E+02 -0.17368332115E+03  0.20039910915E+03  0.00000000000E+00 0. -1.
         -2    1    5    5    0  503 -0.40188099587E+03 -0.30983972538E+03 -0.59019639506E+03  0.77835774230E+03  0.00000000000E+00 0.  1.
         -3    1    4    4    0  502  0.12598229953E+02  0.45028165467E+02 -0.66833562115E+01  0.47232598208E+02  0.00000000000E+00 0.  1.
<mgrwt>
<rscale>  0 0.22572185E+04</rscale>
<asrwt>0</asrwt>
<pdfrwt beam="1">  1        1 0.19957755E+00 0.22572185E+04</pdfrwt>
<pdfrwt beam="2">  1       -1 0.15105977E+00 0.22572185E+04</pdfrwt>
<totfact> 0.28221774E+00</totfact>
</mgrwt>
</event>
<event>
12    1  0.2404191E-008  0.1457743E+04  0.7818608E-02  0.8913050E-01
         -1   -1    0    0    0  501 -0.00000000000E+00  0.00000000000E+00  0.21978154515E+03  0.21978154515E+03  0.00000000000E+00 0.  1.
          1   -1    0    0  501    0  0.00000000000E+00 -0.00000000000E+00 -0.24171891421E+04  0.24171891421E+04  0.00000000000E+00 0. -1.
         23    2    1    2    0    0  0.10511626033E+03 -0.30654306095E+03 -0.12425747860E+04  0.12870789264E+04  0.86959689876E+02 0.  0.
        254    2    1    2    0    0 -0.10511626033E+03  0.30654306095E+03 -0.95483281097E+03  0.13498917608E+04  0.89748760030E+03 0.  0.
        -24    2    4    4    0    0 -0.22415435524E+03  0.45790382057E+03 -0.10134679374E+04  0.11373101733E+04  0.80225222595E+02 0.  0.
         24    2    4    4    0    0  0.11903809491E+03 -0.15136075962E+03  0.58635126390E+02  0.21258158756E+03  0.68357192230E+02 0.  0.
         13    1    3    3    0    0  0.14080985089E+02 -0.65594883204E+02 -0.14625697404E+03  0.16091011559E+03  0.00000000000E+00 0.  1.
        -13    1    3    3    0    0  0.91035275237E+02 -0.24094817775E+03 -0.10963178119E+04  0.11261688108E+04  0.00000000000E+00 0. -1.
          4    1    6    6  502    0 -0.18741204902E+01 -0.17982019780E+02 -0.90916267026E+01  0.20236675594E+02  0.00000000000E+00 0. -1.
          1    1    5    5  503    0 -0.35219502438E+00  0.10712854705E+02 -0.57069183227E+02  0.58067038597E+02  0.00000000000E+00 0. -1.
         -2    1    5    5    0  503 -0.22380216021E+03  0.44719096587E+03 -0.95639875413E+03  0.10792431347E+04  0.00000000000E+00 0.  1.
         -3    1    6    6    0  502  0.12091221540E+03 -0.13337873984E+03  0.67726753093E+02  0.19234491196E+03  0.00000000000E+00 0.  1.
<mgrwt>
<rscale>  0 0.14577429E+04</rscale>
<asrwt>0</asrwt>
<pdfrwt beam="1">  1        1 0.37187527E+00 0.14577429E+04</pdfrwt>
<pdfrwt beam="2">  1       -1 0.33812544E-01 0.14577429E+04</pdfrwt>
<totfact> 0.12417244E+01</totfact>
</mgrwt>
</event>
<event>
12    1  0.2404191E-008  0.2853817E+04  0.7818608E-02  0.8286752E-01
         -2   -1    0    0    0  501 -0.00000000000E+00  0.00000000000E+00  0.11031623989E+04  0.11031623989E+04  0.00000000000E+00 0.  1.
          2   -1    0    0  501    0  0.00000000000E+00 -0.00000000000E+00 -0.18456646401E+04  0.18456646401E+04  0.00000000000E+00 0. -1.
         23    2    1    2    0    0  0.51280306722E+03 -0.16143673626E+03 -0.15388942331E+04  0.16326987589E+04  0.92092187553E+02 0.  0.
        254    2    1    2    0    0 -0.51280306722E+03  0.16143673626E+03  0.79639199185E+03  0.13161282801E+04  0.89940237905E+03 0.  0.
        -24    2    4    4    0    0 -0.73221997906E+03 -0.45774647293E+02  0.55659425081E+03  0.92450589601E+03  0.81685835130E+02 0.  0.
         24    2    4    4    0    0  0.21941691184E+03  0.20721138355E+03  0.23979774104E+03  0.39162238408E+03  0.69172223004E+02 0.  0.
         13    1    3    3    0    0  0.30351333870E+03 -0.10324270984E+03 -0.77968317594E+03  0.84302150550E+03  0.00000000000E+00 0.  1.
        -13    1    3    3    0    0  0.20928972852E+03 -0.58194026419E+02 -0.75921105720E+03  0.78967725341E+03  0.00000000000E+00 0. -1.
          4    1    6    6  502    0  0.58419138916E+02  0.55900443617E+02  0.28015534381E+02  0.85571756759E+02  0.00000000000E+00 0. -1.
          3    1    5    5  503    0 -0.73342832996E+03 -0.48615622554E+02  0.55347289275E+03  0.92011566498E+03  0.00000000000E+00 0. -1.
         -4    1    5    5    0  503  0.12083509007E+01  0.28409752607E+01  0.31213580639E+01  0.43902310297E+01  0.00000000000E+00 0.  1.
         -3    1    6    6    0  502  0.16099777292E+03  0.15131093993E+03  0.21178220666E+03  0.30605062733E+03  0.00000000000E+00 0.  1.
<mgrwt>
<rscale>  0 0.28538170E+04</rscale>
<asrwt>0</asrwt>
<pdfrwt beam="1">  1        2 0.28394841E+00 0.28538170E+04</pdfrwt>
<pdfrwt beam="2">  1       -2 0.16971729E+00 0.28538170E+04</pdfrwt>
<totfact> 0.15101083E+00</totfact>
</mgrwt>
</event>
<event>
12    1  0.2404191E-008  0.1644155E+04  0.7818608E-02  0.8793872E-01
         -2   -1    0    0    0  501 -0.00000000000E+00  0.00000000000E+00  0.56319595069E+03  0.56319595069E+03  0.00000000000E+00 0.  1.
          2   -1    0    0  501    0  0.00000000000E+00 -0.00000000000E+00 -0.11999578891E+04  0.11999578891E+04  0.00000000000E+00 0. -1.
         23    2    1    2    0    0 -0.55082123920E+03  0.10498407966E+02 -0.36103866934E+03  0.66506089533E+03  0.91884817115E+02 0.  0.
        254    2    1    2    0    0  0.55082123920E+03 -0.10498407966E+02 -0.27572326911E+03  0.10980929445E+04  0.90899424614E+03 0.  0.
        -24    2    4    4    0    0 -0.59931459361E+02 -0.11134523044E+03  0.24248644823E+03  0.28504349337E+03  0.80377704476E+02 0.  0.
         24    2    4    4    0    0  0.61075269856E+03  0.10084682247E+03 -0.51820971734E+03  0.81304945113E+03  0.96535788331E+02 0.  0.
         11    1    3    3    0    0 -0.45460461271E+03  0.71043456410E+01 -0.33669179746E+03  0.56575364966E+03  0.00000000000E+00 0.  1.
        -11    1    3    3    0    0 -0.96216626493E+02  0.33940623246E+01 -0.24346871870E+02  0.99307245670E+02  0.00000000000E+00 0. -1.
          2    1    6    6  502    0  0.15348508910E+03  0.53140676775E+02 -0.17899189785E+03  0.24170168307E+03  0.00000000000E+00 0. -1.
          1    1    5    5  503    0 -0.58726575152E+02 -0.12105605355E+03  0.23968054335E+03  0.27486386010E+03  0.00000000000E+00 0. -1.
         -2    1    5    5    0  503 -0.12048842088E+01  0.97108231076E+01  0.28059048820E+01  0.10179633274E+02  0.00000000000E+00 0.  1.
         -1    1    6    6    0  502  0.45726760946E+03  0.47706145698E+02 -0.33921781949E+03  0.57134776805E+03  0.00000000000E+00 0.  1.
<mgrwt>
<rscale>  0 0.16441550E+04</rscale>
<asrwt>0</asrwt>
<pdfrwt beam="1">  1        2 0.18460890E+00 0.16441550E+04</pdfrwt>
<pdfrwt beam="2">  1       -2 0.86645533E-01 0.16441550E+04</pdfrwt>
<totfact> 0.20880281E+01</totfact>
</mgrwt>
</event>
<event>
12    1  0.2404191E-008  0.1811592E+04  0.7818608E-02  0.8700159E-01
          2   -1    0    0  501    0  0.00000000000E+00  0.00000000000E+00  0.10935287132E+04  0.10935287132E+04  0.00000000000E+00 0. -1.
         -2   -1    0    0    0  501 -0.00000000000E+00 -0.00000000000E+00 -0.75029267215E+03  0.75029267215E+03  0.00000000000E+00 0.  1.
         23    2    1    2    0    0 -0.58147431545E+03  0.92345601886E+02 -0.22101204431E+03  0.63537278036E+03  0.90620950007E+02 0.  0.
        254    2    1    2    0    0  0.58147431545E+03 -0.92345601886E+02  0.56424808535E+03  0.12084486050E+04  0.89181390398E+03 0.  0.
        -24    2    4    4    0    0  0.79074949732E+03 -0.16761371716E+03  0.34784907718E+03  0.88365059867E+03  0.80375831883E+02 0.  0.
         24    2    4    4    0    0 -0.20927518186E+03  0.75268115275E+02  0.21639900818E+03  0.32479800631E+03  0.95936558410E+02 0.  0.
         11    1    3    3    0    0 -0.45056147081E+03  0.60140588544E+02 -0.20813674060E+03  0.49994342896E+03  0.00000000000E+00 0.  1.
        -11    1    3    3    0    0 -0.13091284464E+03  0.32205013342E+02 -0.12875303701E+02  0.13542935141E+03  0.00000000000E+00 0. -1.
          2    1    6    6  502    0 -0.16453466971E+03  0.35668538546E+02  0.10508053541E+03  0.19845861306E+03  0.00000000000E+00 0. -1.
          1    1    5    5  503    0  0.41435231800E+03 -0.93509066384E+02  0.22593400167E+03  0.48112156680E+03  0.00000000000E+00 0. -1.
         -2    1    5    5    0  503  0.37639717932E+03 -0.74104650777E+02  0.12191507551E+03  0.40252903187E+03  0.00000000000E+00 0.  1.
         -1    1    6    6    0  502 -0.44740512157E+02  0.39599576729E+02  0.11131847277E+03  0.12633939324E+03  0.00000000000E+00 0.  1.
<mgrwt>
<rscale>  0 0.18115922E+04</rscale>
<asrwt>0</asrwt>
<pdfrwt beam="1">  1        2 0.16823519E+00 0.18115922E+04</pdfrwt>
<pdfrwt beam="2">  1       -2 0.11542964E+00 0.18115922E+04</pdfrwt>
<totfact> 0.12119381E+01</totfact>
</mgrwt>
</event>
<event>
12    1  0.2404191E-008  0.1756828E+04  0.7818608E-02  0.8729601E-01
         -2   -1    0    0    0  501 -0.00000000000E+00  0.00000000000E+00  0.37270096317E+03  0.37270096317E+03  0.00000000000E+00 0.  1.
          2   -1    0    0  501    0  0.00000000000E+00 -0.00000000000E+00 -0.20703230572E+04  0.20703230572E+04  0.00000000000E+00 0. -1.
         23    2    1    2    0    0  0.34907974882E+03 -0.59815924401E+02 -0.13910126338E+04  0.14387749882E+04  0.98603769328E+02 0.  0.
        254    2    1    2    0    0 -0.34907974882E+03  0.59815924401E+02 -0.30660946024E+03  0.10042490322E+04  0.88829732733E+03 0.  0.
        -24    2    4    4    0    0 -0.35770512532E+03 -0.33195329535E+03 -0.33522026455E+03  0.59732369662E+03  0.79227683321E+02 0.  0.
         24    2    4    4    0    0  0.86253765017E+01  0.39176921975E+03  0.28610804310E+02  0.40692533559E+03  0.10588735505E+03 0.  0.
         11    1    3    3    0    0  0.31275925822E+02  0.20229980289E+02 -0.96998175283E+02  0.10390419456E+03  0.00000000000E+00 0.  1.
        -11    1    3    3    0    0  0.31780382300E+03 -0.80045904691E+02 -0.12940144585E+04  0.13348707936E+04  0.00000000000E+00 0. -1.
          4    1    6    6  502    0 -0.48645377448E+02  0.16895419207E+03  0.15327321074E+02  0.17648461275E+03  0.00000000000E+00 0. -1.
          3    1    5    5  503    0 -0.18971277148E+03 -0.12972265777E+03 -0.13200726172E+03  0.26503739500E+03  0.00000000000E+00 0. -1.
         -4    1    5    5    0  503 -0.16799235384E+03 -0.20223063758E+03 -0.20321300283E+03  0.33228630162E+03  0.00000000000E+00 0.  1.
         -3    1    6    6    0  502  0.57270753949E+02  0.22281502768E+03  0.13283483236E+02  0.23044072285E+03  0.00000000000E+00 0.  1.
<mgrwt>
<rscale>  0 0.17568283E+04</rscale>
<asrwt>0</asrwt>
<pdfrwt beam="1">  1        2 0.31851125E+00 0.17568283E+04</pdfrwt>
<pdfrwt beam="2">  1       -2 0.57338608E-01 0.17568283E+04</pdfrwt>
<totfact> 0.16482441E+01</totfact>
</mgrwt>
</event>
<event>
12    1  0.2404191E-008  0.1108021E+04  0.7818608E-02  0.9197409E-01
          1   -1    0    0  501    0  0.00000000000E+00  0.00000000000E+00  0.23128618900E+04  0.23128618900E+04  0.00000000000E+00 0. -1.
         -1   -1    0    0    0  501 -0.00000000000E+00 -0.00000000000E+00 -0.13270477027E+03  0.13270477027E+03  0.00000000000E+00 0.  1.
         23    2    1    2    0    0 -0.25832497952E+02 -0.17579377892E+02  0.67660903549E+03  0.68388052350E+03  0.94426855442E+02 0.  0.
        254    2    1    2    0    0  0.25832497952E+02  0.17579377892E+02  0.15035480842E+04  0.17616861367E+04  0.91755373160E+03 0.  0.
        -24    2    4    4    0    0 -0.40511644422E+03  0.16685188712E+03  0.62518733983E+03  0.76747011424E+03  0.78691046199E+02 0.  0.
         24    2    4    4    0    0  0.43094894218E+03 -0.14927250923E+03  0.87836074436E+03  0.99421602248E+03  0.94597195247E+02 0.  0.
         11    1    3    3    0    0 -0.17248359267E+02  0.33789817611E+02  0.43871114291E+03  0.44034841272E+03  0.00000000000E+00 0. -1.
        -11    1    3    3    0    0 -0.85841386852E+01 -0.51369195503E+02  0.23789789258E+03  0.24353211078E+03  0.00000000000E+00 0.  1.
          4    1    6    6  502    0  0.15448239306E+03 -0.93638162015E+02  0.28816248704E+03  0.34010371078E+03  0.00000000000E+00 0. -1.
          1    1    5    5  503    0 -0.35929365696E+03  0.14599739114E+03  0.58998742900E+03  0.70603989726E+03  0.00000000000E+00 0. -1.
         -4    1    5    5    0  503 -0.45822787262E+02  0.20854495987E+02  0.35199910831E+02  0.61430216977E+02  0.00000000000E+00 0.  1.
         -3    1    6    6    0  502  0.27646654912E+03 -0.55634347217E+02  0.59019825733E+03  0.65411231170E+03  0.00000000000E+00 0.  1.
<mgrwt>
<rscale>  0 0.11080213E+04</rscale>
<asrwt>0</asrwt>
<pdfrwt beam="1">  1        1 0.35582488E+00 0.11080213E+04</pdfrwt>
<pdfrwt beam="2">  1       -1 0.20416120E-01 0.11080213E+04</pdfrwt>
<totfact> 0.36113154E+01</totfact>
</mgrwt>
</event>
<event>
11    1  0.2404191E-008  0.3905251E+04  0.7818608E-02  0.8023938E-01
          2   -1    0    0  501    0  0.00000000000E+00  0.00000000000E+00  0.24536498938E+04  0.24536498938E+04  0.00000000000E+00 0. -1.
         -2   -1    0    0    0  501 -0.00000000000E+00 -0.00000000000E+00 -0.15539080845E+04  0.15539080845E+04  0.00000000000E+00 0.  1.
         23    2    1    2    0    0 -0.13919582724E+03 -0.22411249281E+03 -0.14517768296E+04  0.14784346346E+04  0.92255719624E+02 0.  0.
        254    2    1    2    0    0  0.13919582724E+03  0.22411249281E+03  0.23515186390E+04  0.25291233438E+04  0.89287350220E+03 0.  0.
        -24    2    4    4    0    0 -0.29511574735E+03  0.34709168665E+03  0.95557812540E+03  0.10615617554E+04  0.78853430868E+02 0.  0.
         11    1    3    3    0    0 -0.10484290621E+02 -0.54494959974E+02 -0.50338762683E+03  0.50643728521E+03  0.00000000000E+00 0.  1.
        -11    1    3    3    0    0 -0.12871153662E+03 -0.16961753284E+03 -0.94838920282E+03  0.97199734934E+03  0.00000000000E+00 0. -1.
          2    1    4    4  502    0  0.40925991380E+03 -0.10662716853E+03  0.12996438155E+04  0.13667249457E+04  0.00000000000E+00 0. -1.
          1    1    5    5  503    0 -0.15831466310E+03  0.21065472203E+03  0.63128574499E+03  0.68407648424E+03  0.00000000000E+00 0. -1.
         -2    1    5    5    0  503 -0.13680108425E+03  0.13643696462E+03  0.32429238041E+03  0.37748527118E+03  0.00000000000E+00 0.  1.
         -3    1    4    4    0  502  0.25051660785E+02 -0.16352025303E+02  0.96296698098E+02  0.10083664267E+03  0.00000000000E+00 0.  1.
<mgrwt>
<rscale>  0 0.39052510E+04</rscale>
<asrwt>0</asrwt>
<pdfrwt beam="1">  1        2 0.37748460E+00 0.39052510E+04</pdfrwt>
<pdfrwt beam="2">  1       -2 0.23906278E+00 0.39052510E+04</pdfrwt>
<totfact> 0.22098026E-01</totfact>
</mgrwt>
</event>
<event>
11    1  0.2404191E-008  0.2306521E+04  0.7818608E-02  0.8475355E-01
          2   -1    0    0  501    0  0.00000000000E+00  0.00000000000E+00  0.23159791988E+04  0.23159791988E+04  0.00000000000E+00 0. -1.
         -2   -1    0    0    0  501 -0.00000000000E+00 -0.00000000000E+00 -0.57427515189E+03  0.57427515189E+03  0.00000000000E+00 0.  1.
         23    2    1    2    0    0 -0.19171398059E+03 -0.95521603175E+03  0.80376636211E+03  0.12659267195E+04  0.85663157820E+02 0.  0.
        254    2    1    2    0    0  0.19171398059E+03  0.95521603175E+03  0.93793768475E+03  0.16243276312E+04  0.89973398023E+03 0.  0.
        -24    2    4    4    0    0  0.44449306882E+03  0.75019831464E+03  0.41340337813E+03  0.96850498528E+03  0.82024105913E+02 0.  0.
         11    1    3    3    0    0 -0.13231806109E+02 -0.47236129810E+02  0.67268651797E+02  0.83255054903E+02  0.00000000000E+00 0. -1.
        -11    1    3    3    0    0 -0.17848217448E+03 -0.90797990194E+03  0.73649771032E+03  0.11826716646E+04  0.00000000000E+00 0.  1.
          2    1    4    4  502    0  0.33317563581E+02 -0.95242904075E+01  0.32053601598E+02  0.47203871940E+02  0.00000000000E+00 0. -1.
          1    1    5    5  503    0  0.43458649666E+02  0.98181670084E+02  0.25511660318E+02  0.11035913820E+03  0.00000000000E+00 0. -1.
         -2    1    5    5    0  503  0.40103441915E+03  0.65201664455E+03  0.38789171782E+03  0.85814584708E+03  0.00000000000E+00 0.  1.
         -1    1    4    4    0  502 -0.28609665181E+03  0.21454200752E+03  0.49248070502E+03  0.60861877393E+03  0.00000000000E+00 0.  1.
<mgrwt>
<rscale>  0 0.23065206E+04</rscale>
<asrwt>0</asrwt>
<pdfrwt beam="1">  1        2 0.35630449E+00 0.23065206E+04</pdfrwt>
<pdfrwt beam="2">  1       -2 0.88350025E-01 0.23065206E+04</pdfrwt>
<totfact> 0.44362724E+00</totfact>
</mgrwt>
</event>
<event>
12    1  0.2404191E-008  0.1077270E+04  0.7818608E-02  0.9227633E-01
         -1   -1    0    0    0  501 -0.00000000000E+00  0.00000000000E+00  0.17990163460E+03  0.17990163460E+03  0.00000000000E+00 0.  1.
          1   -1    0    0  501    0  0.00000000000E+00 -0.00000000000E+00 -0.16127030313E+04  0.16127030313E+04  0.00000000000E+00 0. -1.
         23    2    1    2    0    0  0.46073419697E+02 -0.14328230547E+03 -0.17733009543E+03  0.24977891108E+03  0.91054723176E+02 0.  0.
        254    2    1    2    0    0 -0.46073419697E+02  0.14328230547E+03 -0.12554713013E+04  0.15428257549E+04  0.88399691311E+03 0.  0.
        -24    2    4    4    0    0  0.66801576879E+02  0.49523967132E+03 -0.79265140628E+03  0.94072936476E+03  0.83370876937E+02 0.  0.
         24    2    4    4    0    0 -0.11287499658E+03 -0.35195736586E+03 -0.46281989504E+03  0.60209639011E+03  0.10818066141E+03 0.  0.
         11    1    3    3    0    0  0.47284810290E+01 -0.49147258990E+00 -0.60556126923E+02  0.60742444683E+02  0.00000000000E+00 0. -1.
        -11    1    3    3    0    0  0.41344938668E+02 -0.14279083288E+03 -0.11677396851E+03  0.18903646640E+03  0.00000000000E+00 0.  1.
          4    1    6    6  502    0 -0.30085881825E+02 -0.22713611269E+03 -0.22558399443E+03  0.32153399901E+03  0.00000000000E+00 0. -1.
          1    1    5    5  503    0  0.86008716232E+01  0.30234868803E+03 -0.52226045662E+03  0.60352687488E+03  0.00000000000E+00 0. -1.
         -2    1    5    5    0  503  0.58200705256E+02  0.19289098329E+03 -0.27039094965E+03  0.33720248988E+03  0.00000000000E+00 0.  1.
         -3    1    6    6    0  502 -0.82789114751E+02 -0.12482125317E+03 -0.23723590061E+03  0.28056239110E+03  0.00000000000E+00 0.  1.
<mgrwt>
<rscale>  0 0.10772705E+04</rscale>
<asrwt>0</asrwt>
<pdfrwt beam="1">  1        1 0.24810816E+00 0.10772705E+04</pdfrwt>
<pdfrwt beam="2">  1       -1 0.27677175E-01 0.10772705E+04</pdfrwt>
<totfact> 0.64138344E+01</totfact>
</mgrwt>
</event>
<event>
11    1  0.2404191E-008  0.1552042E+04  0.7818608E-02  0.8850564E-01
         -2   -1    0    0    0  501 -0.00000000000E+00  0.00000000000E+00  0.16328467717E+03  0.16328467717E+03  0.00000000000E+00 0. -1.
          2   -1    0    0  501    0  0.00000000000E+00 -0.00000000000E+00 -0.36880903023E+04  0.36880903023E+04  0.00000000000E+00 0.  1.
         23    2    1    2    0    0  0.30229192401E+03 -0.24624385623E+03 -0.36507831474E+03  0.54179872845E+03  0.90814328232E+02 0.  0.
        254    2    1    2    0    0 -0.30229192401E+03  0.24624385623E+03 -0.31597273104E+04  0.33095762510E+04  0.90410278246E+03 0.  0.
        -24    2    4    4    0    0 -0.39927422790E+03 -0.18232018783E+03 -0.13891196329E+04  0.14589881140E+04  0.79576392726E+02 0.  0.
         13    1    3    3    0    0  0.13903703957E+03 -0.12935180582E+03 -0.23675904022E+03  0.30350952402E+03  0.00000000000E+00 0.  1.
        -13    1    3    3    0    0  0.16325488443E+03 -0.11689205040E+03 -0.12831927452E+03  0.23828920444E+03  0.00000000000E+00 0. -1.
          2    1    4    4  502    0  0.16154250904E+03  0.34510591457E+03 -0.95544439293E+03  0.10286243544E+04  0.00000000000E+00 0. -1.
          3    1    5    5  503    0 -0.29817485913E+03 -0.14550249696E+03 -0.11473447683E+04  0.11943530636E+04  0.00000000000E+00 0. -1.
         -4    1    5    5    0  503 -0.10109936876E+03 -0.36817690863E+02 -0.24177486457E+03  0.26463505033E+03  0.00000000000E+00 0.  1.
         -1    1    4    4    0  502 -0.64560205144E+02  0.83458129477E+02 -0.81516328457E+03  0.82196378264E+03  0.00000000000E+00 0.  1.
<mgrwt>
<rscale>  0 0.15520421E+04</rscale>
<asrwt>0</asrwt>
<pdfrwt beam="1">  1        2 0.56739844E+00 0.15520421E+04</pdfrwt>
<pdfrwt beam="2">  1       -2 0.25120723E-01 0.15520421E+04</pdfrwt>
<totfact> 0.82833525E+00</totfact>
</mgrwt>
</event>
<event>
11    1  0.2404191E-008  0.2319108E+04  0.7818608E-02  0.8470425E-01
          2   -1    0    0  501    0  0.00000000000E+00  0.00000000000E+00  0.79365897008E+03  0.79365897008E+03  0.00000000000E+00 0. -1.
         -2   -1    0    0    0  501 -0.00000000000E+00 -0.00000000000E+00 -0.16941348721E+04  0.16941348721E+04  0.00000000000E+00 0.  1.
         23    2    1    2    0    0  0.66318251476E+03 -0.16859110732E+03 -0.10892739400E+04  0.12895355813E+04  0.90278955253E+02 0.  0.
        254    2    1    2    0    0 -0.66318251476E+03  0.16859110732E+03  0.18879803793E+03  0.11982582609E+04  0.96537254536E+03 0.  0.
        -24    2    4    4    0    0  0.11721375006E+02 -0.27696519567E+03  0.23387133050E+03  0.37147203150E+03  0.80302930891E+02 0.  0.
         13    1    3    3    0    0  0.23380496523E+03 -0.50484679072E+02 -0.30448574146E+03  0.38720153840E+03  0.00000000000E+00 0. -1.
        -13    1    3    3    0    0  0.42937754953E+03 -0.11810642825E+03 -0.78478819851E+03  0.90233404289E+03  0.00000000000E+00 0.  1.
          2    1    4    4  502    0 -0.70464977721E+01  0.15088627298E+02  0.24012557085E+02  0.29221955827E+02  0.00000000000E+00 0. -1.
          1    1    5    5  503    0  0.18978664318E+01 -0.15599677794E+02 -0.57673034491E+01  0.16739582831E+02  0.00000000000E+00 0. -1.
         -2    1    5    5    0  503  0.98235085738E+01 -0.26136551788E+03  0.23963863395E+03  0.35473244867E+03  0.00000000000E+00 0.  1.
         -1    1    4    4    0  502 -0.66785739199E+03  0.43046767570E+03 -0.69085849653E+02  0.79756427357E+03  0.00000000000E+00 0.  1.
<mgrwt>
<rscale>  0 0.23191079E+04</rscale>
<asrwt>0</asrwt>
<pdfrwt beam="1">  1        2 0.12210138E+00 0.23191079E+04</pdfrwt>
<pdfrwt beam="2">  1       -2 0.26063613E+00 0.23191079E+04</pdfrwt>
<totfact> 0.17423312E+00</totfact>
</mgrwt>
</event>
<event>
11    1  0.2404191E-008  0.1649202E+04  0.7818608E-02  0.8790878E-01
         -1   -1    0    0    0  501 -0.00000000000E+00  0.00000000000E+00  0.49084080733E+03  0.49084080733E+03  0.00000000000E+00 0.  1.
          1   -1    0    0  501    0  0.00000000000E+00 -0.00000000000E+00 -0.13853110623E+04  0.13853110623E+04  0.00000000000E+00 0. -1.
         23    2    1    2    0    0 -0.85252766460E+02  0.43611159982E+03 -0.72006320998E+03  0.85125664294E+03  0.93195944638E+02 0.  0.
        254    2    1    2    0    0  0.85252766460E+02 -0.43611159982E+03 -0.17440704500E+03  0.10248952267E+04  0.90693497379E+03 0.  0.
        -24    2    4    4    0    0 -0.36217282528E+03 -0.14604219854E+03  0.14650902430E+02  0.39840303235E+03  0.77542556791E+02 0.  0.
         13    1    3    3    0    0 -0.10527591074E+03  0.34295713010E+03 -0.56940908438E+03  0.67300023465E+03  0.00000000000E+00 0. -1.
        -13    1    3    3    0    0  0.20023144276E+02  0.93154469716E+02 -0.15065412560E+03  0.17825640829E+03  0.00000000000E+00 0.  1.
          2    1    4    4  502    0  0.82997011018E+02 -0.17522114899E+03 -0.14449475074E+03  0.24180506173E+03  0.00000000000E+00 0. -1.
          1    1    5    5  503    0 -0.23329038587E+02  0.94862408538E+01  0.32832095477E+01  0.25397091799E+02  0.00000000000E+00 0. -1.
         -2    1    5    5    0  503 -0.33884378670E+03 -0.15552843939E+03  0.11367692883E+02  0.37300594055E+03  0.00000000000E+00 0.  1.
         -1    1    4    4    0  502  0.36442858072E+03 -0.11484825229E+03 -0.44563196696E+02  0.38468713262E+03  0.00000000000E+00 0.  1.
<mgrwt>
<rscale>  0 0.16492025E+04</rscale>
<asrwt>0</asrwt>
<pdfrwt beam="1">  1        1 0.21312478E+00 0.16492025E+04</pdfrwt>
<pdfrwt beam="2">  1       -1 0.75513971E-01 0.16492025E+04</pdfrwt>
<totfact> 0.13252047E+01</totfact>
</mgrwt>
</event>
<event>
11    1  0.2404191E-008  0.1216381E+04  0.7818608E-02  0.9098638E-01
         -2   -1    0    0    0  501 -0.00000000000E+00  0.00000000000E+00  0.23929876879E+03  0.23929876879E+03  0.00000000000E+00 0.  1.
          2   -1    0    0  501    0  0.00000000000E+00 -0.00000000000E+00 -0.15457483842E+04  0.15457483842E+04  0.00000000000E+00 0. -1.
         23    2    1    2    0    0 -0.12201486045E+03 -0.22669130761E+03 -0.20985066196E+03  0.34470421613E+03  0.92234056469E+02 0.  0.
        254    2    1    2    0    0  0.12201486045E+03  0.22669130761E+03 -0.10965989535E+04  0.14403429369E+04  0.89765357234E+03 0.  0.
        -24    2    4    4    0    0 -0.92204136982E+02 -0.22907231110E+02  0.12286518040E+03  0.17167087858E+03  0.73134765231E+02 0.  0.
         13    1    3    3    0    0 -0.74541895124E+02 -0.11266919325E+03 -0.53137396955E+02  0.14517032820E+03  0.00000000000E+00 0.  1.
        -13    1    3    3    0    0 -0.47472965325E+02 -0.11402211437E+03 -0.15671326501E+03  0.19953388792E+03  0.00000000000E+00 0. -1.
          4    1    4    4  502    0  0.17589617673E+02  0.97023986546E+02 -0.41695676185E+03  0.42845768738E+03  0.00000000000E+00 0. -1.
          3    1    5    5  503    0 -0.90889413460E+02 -0.33749558967E+02  0.12718591104E+03  0.15992552697E+03  0.00000000000E+00 0. -1.
         -4    1    5    5    0  503 -0.13147235219E+01  0.10842327857E+02 -0.43207306392E+01  0.11745351615E+02  0.00000000000E+00 0.  1.
         -3    1    4    4    0  502  0.19662937976E+03  0.15257455218E+03 -0.80250737202E+03  0.84021437092E+03  0.00000000000E+00 0.  1.
<mgrwt>
<rscale>  0 0.12163810E+04</rscale>
<asrwt>0</asrwt>
<pdfrwt beam="1">  1        2 0.23780745E+00 0.12163810E+04</pdfrwt>
<pdfrwt beam="2">  1       -2 0.36815194E-01 0.12163810E+04</pdfrwt>
<totfact> 0.81913088E+01</totfact>
</mgrwt>
</event>
<event>
11    1  0.2404191E-008  0.1677505E+04  0.7818608E-02  0.8774299E-01
          2   -1    0    0  501    0  0.00000000000E+00  0.00000000000E+00  0.19722702596E+04  0.19722702596E+04  0.00000000000E+00 0. -1.
         -2   -1    0    0    0  501 -0.00000000000E+00 -0.00000000000E+00 -0.35669842508E+03  0.35669842508E+03  0.00000000000E+00 0.  1.
         23    2    1    2    0    0  0.48927533656E+03 -0.19713222312E+03  0.20468750953E+03  0.57367749916E+03  0.94643690378E+02 0.  0.
        254    2    1    2    0    0 -0.48927533656E+03  0.19713222312E+03  0.14108843250E+04  0.17552911856E+04  0.90122200323E+03 0.  0.
        -24    2    4    4    0    0 -0.68010184248E+03  0.16444529149E+03  0.13510095089E+04  0.15234767861E+04  0.78575153203E+02 0.  0.
         11    1    3    3    0    0  0.71729349105E+02 -0.41071009209E+01  0.53103683111E+02  0.89341865667E+02  0.00000000000E+00 0. -1.
        -11    1    3    3    0    0  0.41754598746E+03 -0.19302512220E+03  0.15158382641E+03  0.48433563350E+03  0.00000000000E+00 0.  1.
          2    1    4    4  502    0  0.44231201450E+02  0.25046926674E+02  0.67879604456E+02  0.84802054330E+02  0.00000000000E+00 0. -1.
          3    1    5    5  503    0 -0.12758117953E+03  0.26014883408E+02  0.19089302969E+03  0.23107115855E+03  0.00000000000E+00 0. -1.
         -4    1    5    5    0  503 -0.55252066295E+03  0.13843040808E+03  0.11601164792E+04  0.12924056276E+04  0.00000000000E+00 0.  1.
         -1    1    4    4    0  502  0.14659530447E+03  0.76400049612E+01 -0.80047883452E+01  0.14701234508E+03  0.00000000000E+00 0.  1.
<mgrwt>
<rscale>  0 0.16775049E+04</rscale>
<asrwt>0</asrwt>
<pdfrwt beam="1">  1        2 0.30342619E+00 0.16775049E+04</pdfrwt>
<pdfrwt beam="2">  1       -2 0.54876682E-01 0.16775049E+04</pdfrwt>
<totfact> 0.20613945E+01</totfact>
</mgrwt>
</event>
<event>
12    1  0.2404191E-008  0.1761353E+04  0.7818608E-02  0.8727126E-01
         -3   -1    0    0    0  501 -0.00000000000E+00  0.00000000000E+00  0.87185111697E+03  0.87185111697E+03  0.00000000000E+00 0.  1.
          3   -1    0    0  501    0  0.00000000000E+00 -0.00000000000E+00 -0.88959119338E+03  0.88959119338E+03  0.00000000000E+00 0. -1.
         23    2    1    2    0    0 -0.23146448811E+03  0.38791986287E+03  0.46278229466E+03  0.65458566155E+03  0.10127836289E+03 0.  0.
        254    2    1    2    0    0  0.23146448811E+03 -0.38791986287E+03 -0.48052237108E+03  0.11068566488E+04  0.88891634174E+03 0.  0.
        -24    2    4    4    0    0  0.31408282165E+02  0.25452839617E+03 -0.29793319955E+03  0.40126553138E+03  0.80490065449E+02 0.  0.
         24    2    4    4    0    0  0.20005620595E+03 -0.64244825904E+03 -0.18258917153E+03  0.70559111741E+03  0.10843324365E+03 0.  0.
         13    1    3    3    0    0 -0.14277287634E+03  0.28802687294E+03  0.26872526796E+03  0.41899503982E+03  0.00000000000E+00 0.  1.
        -13    1    3    3    0    0 -0.88691611775E+02  0.99892989933E+02  0.19405702670E+03  0.23559062173E+03  0.00000000000E+00 0. -1.
          4    1    6    6  502    0  0.60143506358E+01 -0.31320425494E+02  0.14153434183E+02  0.34892136161E+02  0.00000000000E+00 0. -1.
          3    1    5    5  503    0  0.10094057805E+02 -0.28600712348E+01 -0.10455848575E+02  0.14811980957E+02  0.00000000000E+00 0. -1.
         -4    1    5    5    0  503  0.21314224360E+02  0.25738846741E+03 -0.28747735097E+03  0.38645355043E+03  0.00000000000E+00 0.  1.
         -3    1    6    6    0  502  0.19404185531E+03 -0.61112783355E+03 -0.19674260571E+03  0.67069898125E+03  0.00000000000E+00 0.  1.
<mgrwt>
<rscale>  0 0.17613530E+04</rscale>
<asrwt>0</asrwt>
<pdfrwt beam="1">  1        3 0.13686018E+00 0.17613530E+04</pdfrwt>
<pdfrwt beam="2">  1       -3 0.13413094E+00 0.17613530E+04</pdfrwt>
<totfact> 0.43498620E-01</totfact>
</mgrwt>
</event>
<event>
12    1  0.2404191E-008  0.1809082E+04  0.7818608E-02  0.8701485E-01
         -1   -1    0    0    0  501 -0.00000000000E+00  0.00000000000E+00  0.86120938450E+03  0.86120938450E+03  0.00000000000E+00 0.  1.
          1   -1    0    0  501    0  0.00000000000E+00 -0.00000000000E+00 -0.95005303531E+03  0.95005303531E+03  0.00000000000E+00 0. -1.
         23    2    1    2    0    0  0.45246139972E+03  0.38069214421E+03  0.27322747974E+03  0.65741802470E+03  0.88867185251E+02 0.  0.
        254    2    1    2    0    0 -0.45246139972E+03 -0.38069214421E+03 -0.36207113055E+03  0.11538443951E+04  0.92228713406E+03 0.  0.
        -24    2    4    4    0    0 -0.45710437759E+03 -0.36700143736E+03 -0.63357793762E+03  0.86685551787E+03  0.79893797012E+02 0.  0.
         24    2    4    4    0    0  0.46429778678E+01 -0.13690706853E+02  0.27150680707E+03  0.28698887724E+03  0.91856827072E+02 0.  0.
         11    1    3    3    0    0  0.15563358115E+03  0.18302890901E+03  0.90718906751E+02  0.25680987745E+03  0.00000000000E+00 0. -1.
        -11    1    3    3    0    0  0.29682781857E+03  0.19766323520E+03  0.18250857298E+03  0.40060814725E+03  0.00000000000E+00 0.  1.
          2    1    6    6  502    0  0.24701574518E+02  0.18089398226E+01  0.25616282939E+03  0.25735740753E+03  0.00000000000E+00 0. -1.
          3    1    5    5  503    0 -0.40905864404E+03 -0.32559364368E+03 -0.59727406227E+03  0.79377358266E+03  0.00000000000E+00 0. -1.
         -4    1    5    5    0  503 -0.48045733544E+02 -0.41407793678E+02 -0.36303875345E+02  0.73081935211E+02  0.00000000000E+00 0.  1.
         -1    1    6    6    0  502 -0.20058596650E+02 -0.15499646675E+02  0.15343977675E+02  0.29631469715E+02  0.00000000000E+00 0.  1.
<mgrwt>
<rscale>  0 0.18090822E+04</rscale>
<asrwt>0</asrwt>
<pdfrwt beam="1">  1        1 0.14616201E+00 0.18090822E+04</pdfrwt>
<pdfrwt beam="2">  1       -1 0.13249375E+00 0.18090822E+04</pdfrwt>
<totfact> 0.75527703E+00</totfact>
</mgrwt>
</event>
<event>
11    1  0.2404191E-008  0.1709134E+04  0.7818608E-02  0.8756172E-01
         -2   -1    0    0    0  501 -0.00000000000E+00  0.00000000000E+00  0.26709815393E+03  0.26709815393E+03  0.00000000000E+00 0.  1.
          2   -1    0    0  501    0  0.00000000000E+00 -0.00000000000E+00 -0.27341447289E+04  0.27341447289E+04  0.00000000000E+00 0. -1.
         23    2    1    2    0    0  0.14232248541E+03  0.10906368187E+03 -0.19189047206E+04  0.19293273685E+04  0.89208696439E+02 0.  0.
        254    2    1    2    0    0 -0.14232248541E+03 -0.10906368187E+03 -0.54814185443E+03  0.10719155144E+04  0.90354457603E+03 0.  0.
        -24    2    4    4    0    0 -0.51362625653E+02 -0.15905219542E+03  0.21815108347E+03  0.28613125907E+03  0.79658533841E+02 0.  0.
         13    1    3    3    0    0  0.11819780925E+02 -0.63502808553E+01 -0.36677584913E+02  0.39054814340E+02  0.00000000000E+00 0.  1.
        -13    1    3    3    0    0  0.13050270448E+03  0.11541396273E+03 -0.18822271356E+04  0.18902725541E+04  0.00000000000E+00 0. -1.
          2    1    4    4  502    0 -0.25336237776E+02 -0.30458902201E+02 -0.47304678002E+03  0.47470298688E+03  0.00000000000E+00 0. -1.
          1    1    5    5  503    0 -0.72561497485E+02 -0.11457980218E+03  0.15314796640E+03  0.20456784106E+03  0.00000000000E+00 0. -1.
         -2    1    5    5    0  503  0.21198871832E+02 -0.44472393245E+02  0.65003117072E+02  0.81563418007E+02  0.00000000000E+00 0.  1.
         -1    1    4    4    0  502 -0.65623621978E+02  0.80447415750E+02 -0.29324615788E+03  0.31108126844E+03  0.00000000000E+00 0.  1.
<mgrwt>
<rscale>  0 0.17091343E+04</rscale>
<asrwt>0</asrwt>
<pdfrwt beam="1">  1        2 0.42063767E+00 0.17091343E+04</pdfrwt>
<pdfrwt beam="2">  1       -2 0.41092022E-01 0.17091343E+04</pdfrwt>
<totfact> 0.13552257E+01</totfact>
</mgrwt>
</event>
<event>
11    1  0.2404191E-008  0.1511419E+04  0.7818608E-02  0.8876895E-01
          1   -1    0    0  501    0  0.00000000000E+00  0.00000000000E+00  0.27515458006E+04  0.27515458006E+04  0.00000000000E+00 0. -1.
         -1   -1    0    0    0  501 -0.00000000000E+00 -0.00000000000E+00 -0.20755493316E+03  0.20755493316E+03  0.00000000000E+00 0.  1.
         23    2    1    2    0    0  0.52712826109E+02 -0.40729686544E+03  0.13345171698E+04  0.13990652628E+04  0.88193845975E+02 0.  0.
        254    2    1    2    0    0 -0.52712826109E+02  0.40729686544E+03  0.12094736976E+04  0.15600354710E+04  0.89566437170E+03 0.  0.
        -24    2    4    4    0    0  0.37246285097E+03  0.38060184325E+03  0.82369075791E+03  0.98385738962E+03  0.76958170447E+02 0.  0.
         13    1    3    3    0    0  0.23697086562E+02 -0.23365663919E+03  0.61482935222E+03  0.65815811877E+03  0.00000000000E+00 0.  1.
        -13    1    3    3    0    0  0.29015739546E+02 -0.17364022625E+03  0.71968781759E+03  0.74090714405E+03  0.00000000000E+00 0. -1.
          4    1    4    4  502    0 -0.18824686095E+03  0.92794979182E+01  0.19794215533E+03  0.27332048331E+03  0.00000000000E+00 0. -1.
          1    1    5    5  503    0  0.29211375478E+03  0.25628354222E+03  0.56339183299E+03  0.68441365944E+03  0.00000000000E+00 0. -1.
         -2    1    5    5    0  503  0.80349096197E+02  0.12431830104E+03  0.26029892492E+03  0.29944373019E+03  0.00000000000E+00 0.  1.
         -3    1    4    4    0  502 -0.23692881613E+03  0.17415524270E+02  0.18784078438E+03  0.30285759802E+03  0.00000000000E+00 0.  1.
<mgrwt>
<rscale>  0 0.15114191E+04</rscale>
<asrwt>0</asrwt>
<pdfrwt beam="1">  1        1 0.42331471E+00 0.15114191E+04</pdfrwt>
<pdfrwt beam="2">  1       -1 0.31931530E-01 0.15114191E+04</pdfrwt>
<totfact> 0.80026773E+00</totfact>
</mgrwt>
</event>
<event>
12    1  0.2404191E-008  0.1140821E+04  0.7818608E-02  0.9166293E-01
         -1   -1    0    0    0  501 -0.00000000000E+00  0.00000000000E+00  0.26206310772E+03  0.26206310772E+03  0.00000000000E+00 0.  1.
          1   -1    0    0  501    0  0.00000000000E+00 -0.00000000000E+00 -0.12415644133E+04  0.12415644133E+04  0.00000000000E+00 0. -1.
         23    2    1    2    0    0 -0.14762300178E+01  0.37948118287E+02 -0.41570903113E+03  0.42893038941E+03  0.98615624807E+02 0.  0.
        254    2    1    2    0    0  0.14762300178E+01 -0.37948118287E+02 -0.56379227450E+03  0.10746971317E+04  0.91414985483E+03 0.  0.
        -24    2    4    4    0    0 -0.42733787868E+03 -0.15007566613E+03 -0.32246466565E+03  0.56178067270E+03  0.80459278571E+02 0.  0.
         24    2    4    4    0    0  0.42881410870E+03  0.11212754784E+03 -0.24132760885E+03  0.51291645896E+03  0.91597774426E+02 0.  0.
         11    1    3    3    0    0  0.22821058980E+02 -0.77957723078E+01 -0.31273316900E+03  0.31366161670E+03  0.00000000000E+00 0. -1.
        -11    1    3    3    0    0 -0.24297288998E+02  0.45743890595E+02 -0.10297586213E+03  0.11526877271E+03  0.00000000000E+00 0.  1.
          2    1    6    6  502    0  0.37491398186E+03  0.72837388142E+02 -0.17963486692E+03  0.42205978761E+03  0.00000000000E+00 0. -1.
          3    1    5    5  503    0 -0.41649001335E+03 -0.15537455362E+03 -0.30003396869E+03  0.53630734239E+03  0.00000000000E+00 0. -1.
         -4    1    5    5    0  503 -0.10847865326E+02  0.52988874976E+01 -0.22430696956E+02  0.25473330304E+02  0.00000000000E+00 0.  1.
         -1    1    6    6    0  502  0.53900126838E+02  0.39290159697E+02 -0.61692741934E+02  0.90856671354E+02  0.00000000000E+00 0.  1.
<mgrwt>
<rscale>  0 0.11408212E+04</rscale>
<asrwt>0</asrwt>
<pdfrwt beam="1">  1        1 0.19100991E+00 0.11408212E+04</pdfrwt>
<pdfrwt beam="2">  1       -1 0.40317402E-01 0.11408212E+04</pdfrwt>
<totfact> 0.59421996E+01</totfact>
</mgrwt>
</event>
<event>
11    1  0.2404191E-008  0.1646503E+04  0.7818608E-02  0.8792478E-01
          1   -1    0    0  501    0  0.00000000000E+00  0.00000000000E+00  0.88291659993E+03  0.88291659993E+03  0.00000000000E+00 0. -1.
         -1   -1    0    0    0  501 -0.00000000000E+00 -0.00000000000E+00 -0.76761813728E+03  0.76761813728E+03  0.00000000000E+00 0.  1.
         23    2    1    2    0    0 -0.35738907120E+03 -0.31615936117E+03 -0.38932159126E+03  0.62264886180E+03  0.91851041420E+02 0.  0.
        254    2    1    2    0    0  0.35738907120E+03  0.31615936117E+03  0.50462005390E+03  0.10278858754E+04  0.75777587994E+03 0.  0.
        -24    2    4    4    0    0 -0.20091049154E+03 -0.16484308137E+02  0.20702844961E+03  0.30118608821E+03  0.84944233214E+02 0.  0.
         13    1    3    3    0    0 -0.18745497063E+03 -0.16539757503E+03 -0.26241930345E+03  0.36243566969E+03  0.00000000000E+00 0.  1.
        -13    1    3    3    0    0 -0.16993410057E+03 -0.15076178613E+03 -0.12690228780E+03  0.26021319210E+03  0.00000000000E+00 0. -1.
          4    1    4    4  502    0  0.37955257900E+03  0.18496815668E+03  0.24775060949E+03  0.48954442466E+03  0.00000000000E+00 0. -1.
          1    1    5    5  503    0 -0.10900754246E+03  0.29020590581E+02  0.81889059143E+02  0.13939389154E+03  0.00000000000E+00 0. -1.
         -4    1    5    5    0  503 -0.91902949085E+02 -0.45504898719E+02  0.12513939046E+03  0.16179219667E+03  0.00000000000E+00 0.  1.
         -3    1    4    4    0  502  0.17874698374E+03  0.14767551262E+03  0.49840994809E+02  0.23715536256E+03  0.00000000000E+00 0.  1.
<mgrwt>
<rscale>  0 0.16465027E+04</rscale>
<asrwt>0</asrwt>
<pdfrwt beam="1">  1        1 0.13583332E+00 0.16465027E+04</pdfrwt>
<pdfrwt beam="2">  1       -1 0.11809510E+00 0.16465027E+04</pdfrwt>
<totfact> 0.11569750E+01</totfact>
</mgrwt>
</event>
<event>
12    1  0.2404191E-008  0.1750772E+04  0.7818608E-02  0.8732925E-01
          2   -1    0    0  501    0  0.00000000000E+00  0.00000000000E+00  0.23438747361E+04  0.23438747361E+04  0.00000000000E+00 0. -1.
         -2   -1    0    0    0  501 -0.00000000000E+00 -0.00000000000E+00 -0.32693757336E+03  0.32693757336E+03  0.00000000000E+00 0.  1.
         23    2    1    2    0    0 -0.41747796774E+03  0.11131686956E+03  0.14730677402E+04  0.15377990872E+04  0.90654103174E+02 0.  0.
        254    2    1    2    0    0  0.41747796774E+03 -0.11131686956E+03  0.54386942256E+03  0.11330132223E+04  0.89512329545E+03 0.  0.
        -24    2    4    4    0    0 -0.12448912631E+02  0.10668559261E+02 -0.22616239773E+03  0.24042352086E+03  0.79907732136E+02 0.  0.
         24    2    4    4    0    0  0.42992688037E+03 -0.12198542882E+03  0.77003182029E+03  0.89258970141E+03  0.63638066327E+02 0.  0.
         13    1    3    3    0    0 -0.40447736706E+03  0.12233895398E+03  0.13824425807E+04  0.14455850888E+04  0.00000000000E+00 0. -1.
        -13    1    3    3    0    0 -0.13000600681E+02 -0.11022084419E+02  0.90625159516E+02  0.92213998397E+02  0.00000000000E+00 0.  1.
          4    1    6    6  502    0  0.36083133454E+03 -0.12285730237E+03  0.67334114873E+03  0.77374509453E+03  0.00000000000E+00 0. -1.
          3    1    5    5  503    0 -0.90836206767E+01  0.28453814482E+02 -0.21888665355E+03  0.22091513942E+03  0.00000000000E+00 0. -1.
         -4    1    5    5    0  503 -0.33652919544E+01 -0.17785255221E+02 -0.72757441839E+01  0.19508381446E+02  0.00000000000E+00 0.  1.
         -3    1    6    6    0  502  0.69095545831E+02  0.87187355553E+00  0.96690671562E+02  0.11884460688E+03  0.00000000000E+00 0.  1.
<mgrwt>
<rscale>  0 0.17507721E+04</rscale>
<asrwt>0</asrwt>
<pdfrwt beam="1">  1        2 0.36059610E+00 0.17507721E+04</pdfrwt>
<pdfrwt beam="2">  1       -2 0.50298090E-01 0.17507721E+04</pdfrwt>
<totfact> 0.15178698E+01</totfact>
</mgrwt>
</event>
<event>
11    1  0.2404191E-008  0.2349606E+04  0.7818608E-02  0.8458615E-01
         -4   -1    0    0    0  501 -0.00000000000E+00  0.00000000000E+00  0.66672059658E+03  0.66672059658E+03  0.00000000000E+00 0.  1.
          4   -1    0    0  501    0  0.00000000000E+00 -0.00000000000E+00 -0.20700749479E+04  0.20700749479E+04  0.00000000000E+00 0. -1.
         23    2    1    2    0    0  0.22622063309E+03  0.37999884141E+03 -0.16426845509E+04  0.17043694347E+04  0.10434434297E+03 0.  0.
        254    2    1    2    0    0 -0.22622063309E+03 -0.37999884141E+03  0.23933019955E+03  0.10324261098E+04  0.90169276002E+03 0.  0.
        -24    2    4    4    0    0  0.14904390461E+03 -0.26843265929E+03  0.28484568808E+03  0.42607690522E+03  0.78321676908E+02 0.  0.
         13    1    3    3    0    0  0.11546729351E+03  0.10779058973E+03 -0.49110293925E+03  0.51588138564E+03  0.00000000000E+00 0.  1.
        -13    1    3    3    0    0  0.11075333958E+03  0.27220825168E+03 -0.11515816116E+04  0.11884880490E+04  0.00000000000E+00 0. -1.
          2    1    4    4  502    0  0.76098885353E+02 -0.76906860065E+02  0.82324468212E+02  0.13595228407E+03  0.00000000000E+00 0. -1.
          1    1    5    5  503    0  0.52635099735E+01 -0.43719640895E+02  0.73704994090E+02  0.85857659478E+02  0.00000000000E+00 0. -1.
         -2    1    5    5    0  503  0.14378039464E+03 -0.22471301840E+03  0.21114069399E+03  0.34021924575E+03  0.00000000000E+00 0.  1.
         -1    1    4    4    0  502 -0.45136342306E+03 -0.34659322052E+02 -0.12783995674E+03  0.47039692050E+03  0.00000000000E+00 0.  1.
<mgrwt>
<rscale>  0 0.23496056E+04</rscale>
<asrwt>0</asrwt>
<pdfrwt beam="1">  1        4 0.31847306E+00 0.23496056E+04</pdfrwt>
<pdfrwt beam="2">  1       -4 0.10257240E+00 0.23496056E+04</pdfrwt>
<totfact> 0.33138778E-02</totfact>
</mgrwt>
</event>
<event>
12    1  0.2404191E-008  0.2152936E+04  0.7818608E-02  0.8538276E-01
          2   -1    0    0  501    0  0.00000000000E+00  0.00000000000E+00  0.71428021216E+03  0.71428021216E+03  0.00000000000E+00 0.  1.
         -2   -1    0    0    0  501 -0.00000000000E+00 -0.00000000000E+00 -0.16223096300E+04  0.16223096300E+04  0.00000000000E+00 0. -1.
         23    2    1    2    0    0  0.11510215194E+03  0.29391300951E+03  0.52389391891E+03  0.61870234396E+03  0.93243710836E+02 0.  0.
        254    2    1    2    0    0 -0.11510215194E+03 -0.29391300951E+03 -0.14319233368E+04  0.17178874982E+04  0.89504170382E+03 0.  0.
        -24    2    4    4    0    0  0.10791556901E+03  0.25380228022E+03 -0.20575087212E+03  0.35317344900E+03  0.79603368137E+02 0.  0.
         24    2    4    4    0    0 -0.22301772095E+03 -0.54771528973E+03 -0.12261724646E+04  0.13647140492E+04  0.96003023822E+02 0.  0.
         11    1    3    3    0    0  0.12996539220E+03  0.26641858424E+03  0.45488936595E+03  0.54294953767E+03  0.00000000000E+00 0.  1.
        -11    1    3    3    0    0 -0.14863240262E+02  0.27494425271E+02  0.69004552962E+02  0.75752806295E+02  0.00000000000E+00 0. -1.
          4    1    6    6  502    0 -0.17529665901E+03 -0.36421777731E+03 -0.91539614525E+03  0.10006665832E+04  0.00000000000E+00 0. -1.
          1    1    5    5  503    0  0.11612963477E+03  0.19769656016E+03 -0.15235006207E+03  0.27528269722E+03  0.00000000000E+00 0. -1.
         -2    1    5    5    0  503 -0.82140657615E+01  0.56105720056E+02 -0.53400810047E+02  0.77890751781E+02  0.00000000000E+00 0.  1.
         -3    1    6    6    0  502 -0.47721061946E+02 -0.18349751243E+03 -0.31077631939E+03  0.36404746602E+03  0.00000000000E+00 0.  1.
<mgrwt>
<rscale>  0 0.21529363E+04</rscale>
<asrwt>0</asrwt>
<pdfrwt beam="1">  1        2 0.10988927E+00 0.21529363E+04</pdfrwt>
<pdfrwt beam="2">  1       -2 0.24958609E+00 0.21529363E+04</pdfrwt>
<totfact> 0.23680155E+00</totfact>
</mgrwt>
</event>
<event>
11    1  0.2404191E-008  0.1438296E+04  0.7818608E-02  0.8926555E-01
          2   -1    0    0  501    0  0.00000000000E+00  0.00000000000E+00  0.14214311014E+04  0.14214311014E+04  0.00000000000E+00 0. -1.
         -2   -1    0    0    0  501 -0.00000000000E+00 -0.00000000000E+00 -0.36384040108E+03  0.36384040108E+03  0.00000000000E+00 0.  1.
         23    2    1    2    0    0  0.12176729690E+03  0.28540855206E+03  0.69595404144E+03  0.76928127071E+03  0.10562352715E+03 0.  0.
        254    2    1    2    0    0 -0.12176729690E+03 -0.28540855206E+03  0.36163665884E+03  0.10159902317E+04  0.89731252179E+03 0.  0.
        -24    2    4    4    0    0  0.30691076501E+03 -0.14710449414E+03 -0.94134589907E+02  0.36206707129E+03  0.79983080846E+02 0.  0.
         11    1    3    3    0    0  0.10883909300E+03  0.28631026079E+03  0.61240488300E+03  0.68473298031E+03  0.00000000000E+00 0.  1.
        -11    1    3    3    0    0  0.12928203896E+02 -0.90170872425E+00  0.83549158437E+02  0.84548290404E+02  0.00000000000E+00 0. -1.
          2    1    4    4  502    0 -0.23020146862E+03 -0.65441320376E+02  0.33089434900E+03  0.40837036225E+03  0.00000000000E+00 0. -1.
          3    1    5    5  503    0  0.21822329710E+03 -0.62421044513E+02 -0.59457159242E+02  0.23463364631E+03  0.00000000000E+00 0. -1.
         -4    1    5    5    0  503  0.88687467908E+02 -0.84683449629E+02 -0.34677430665E+02  0.12743342498E+03  0.00000000000E+00 0.  1.
         -1    1    4    4    0  502 -0.19847659329E+03 -0.72862737547E+02  0.12487689974E+03  0.24555279818E+03  0.00000000000E+00 0.  1.
<mgrwt>
<rscale>  0 0.14382963E+04</rscale>
<asrwt>0</asrwt>
<pdfrwt beam="1">  1        2 0.21868170E+00 0.14382963E+04</pdfrwt>
<pdfrwt beam="2">  1       -2 0.55975447E-01 0.14382963E+04</pdfrwt>
<totfact> 0.40916667E+01</totfact>
</mgrwt>
</event>
<event>
12    1  0.2404191E-008  0.2207686E+04  0.7818608E-02  0.8515236E-01
         -2   -1    0    0    0  501 -0.00000000000E+00  0.00000000000E+00  0.12775933717E+04  0.12775933717E+04  0.00000000000E+00 0.  1.
          2   -1    0    0  501    0  0.00000000000E+00 -0.00000000000E+00 -0.95372194586E+03  0.95372194586E+03  0.00000000000E+00 0. -1.
         23    2    1    2    0    0  0.68973944477E+02  0.22024938963E+03  0.10334668741E+04  0.10627991518E+04  0.90670052188E+02 0.  0.
        254    2    1    2    0    0 -0.68973944477E+02 -0.22024938963E+03 -0.70959544827E+03  0.11685161658E+04  0.89924253179E+03 0.  0.
        -24    2    4    4    0    0  0.67685145812E+02 -0.40292118287E+03  0.33456074601E+00  0.41622534607E+03  0.79477469810E+02 0.  0.
         24    2    4    4    0    0 -0.13665909029E+03  0.18267179324E+03 -0.70993000902E+03  0.75229081978E+03  0.99479489384E+02 0.  0.
         11    1    3    3    0    0  0.80521066658E+02  0.11054533571E+03  0.52678314557E+03  0.54424663149E+03  0.00000000000E+00 0.  1.
        -11    1    3    3    0    0 -0.11547122181E+02  0.10970405392E+03  0.50668372857E+03  0.51855252026E+03  0.00000000000E+00 0. -1.
          2    1    6    6  502    0 -0.72202775299E+02  0.38101702788E+02 -0.15446113047E+03  0.17470896183E+03  0.00000000000E+00 0. -1.
          3    1    5    5  503    0  0.32065239616E+01 -0.94221633278E+02  0.31326532956E+02  0.99344600460E+02  0.00000000000E+00 0. -1.
         -4    1    5    5    0  503  0.64478621851E+02 -0.30869954959E+03 -0.30991972210E+02  0.31688074561E+03  0.00000000000E+00 0.  1.
         -1    1    6    6    0  502 -0.64456314990E+02  0.14457009045E+03 -0.55546887855E+03  0.57758185795E+03  0.00000000000E+00 0.  1.
<mgrwt>
<rscale>  0 0.22076855E+04</rscale>
<asrwt>0</asrwt>
<pdfrwt beam="1">  1        2 0.14672645E+00 0.22076855E+04</pdfrwt>
<pdfrwt beam="2">  1       -2 0.19655283E+00 0.22076855E+04</pdfrwt>
<totfact> 0.34552809E+00</totfact>
</mgrwt>
</event>
<event>
11    1  0.2404191E-008  0.1889991E+04  0.7818608E-02  0.8659854E-01
          1   -1    0    0  501    0  0.00000000000E+00  0.00000000000E+00  0.25379626012E+04  0.25379626012E+04  0.00000000000E+00 0. -1.
         -1   -1    0    0    0  501 -0.00000000000E+00 -0.00000000000E+00 -0.35186362500E+03  0.35186362500E+03  0.00000000000E+00 0.  1.
         23    2    1    2    0    0 -0.18833721849E+03 -0.50868715431E+03  0.15778380624E+04  0.16710528335E+04  0.92795972854E+02 0.  0.
        254    2    1    2    0    0  0.18833721849E+03  0.50868715431E+03  0.60826091378E+03  0.12187733926E+04  0.90619739268E+03 0.  0.
        -24    2    4    4    0    0 -0.12473737292E+03  0.17771649900E+03  0.11975185416E+03  0.26128568531E+03  0.82384079501E+02 0.  0.
         13    1    3    3    0    0 -0.15739287429E+03 -0.31247832510E+03  0.94010244799E+03  0.10030991144E+04  0.00000000000E+00 0. -1.
        -13    1    3    3    0    0 -0.30944344195E+02 -0.19620882920E+03  0.63773561438E+03  0.66795371916E+03  0.00000000000E+00 0.  1.
          2    1    4    4  502    0  0.36649248741E+02  0.41320852446E+03  0.52243471739E+03  0.66710005700E+03  0.00000000000E+00 0. -1.
          3    1    5    5  503    0 -0.97800090264E+02  0.70370837716E+02  0.49892407301E+02  0.13040768675E+03  0.00000000000E+00 0. -1.
         -4    1    5    5    0  503 -0.26937282657E+02  0.10734566128E+03  0.69859446863E+02  0.13087799857E+03  0.00000000000E+00 0.  1.
         -1    1    4    4    0  502  0.27642534267E+03 -0.82237869157E+02 -0.33925657767E+02  0.29038765030E+03  0.00000000000E+00 0.  1.
<mgrwt>
<rscale>  0 0.18899912E+04</rscale>
<asrwt>0</asrwt>
<pdfrwt beam="1">  1        1 0.39045577E+00 0.18899912E+04</pdfrwt>
<pdfrwt beam="2">  1       -1 0.54132867E-01 0.18899912E+04</pdfrwt>
<totfact> 0.41170624E+00</totfact>
</mgrwt>
</event>
<event>
11    1  0.2404191E-008  0.2171096E+04  0.7818608E-02  0.8530556E-01
         -1   -1    0    0    0  501 -0.00000000000E+00  0.00000000000E+00  0.12003675292E+04  0.12003675292E+04  0.00000000000E+00 0.  1.
          1   -1    0    0  501    0  0.00000000000E+00 -0.00000000000E+00 -0.98171122375E+03  0.98171122375E+03  0.00000000000E+00 0. -1.
         23    2    1    2    0    0  0.33894259105E+03  0.75392755976E+03  0.27034449917E+03  0.87456061665E+03  0.92093857313E+02 0.  0.
        254    2    1    2    0    0 -0.33894259105E+03 -0.75392755976E+03 -0.51688193713E+02  0.13075181363E+04  0.10117525201E+04 0.  0.
        -24    2    4    4    0    0 -0.25115661939E+03 -0.69714391864E+03  0.38370422077E+03  0.83808140182E+03  0.77860235528E+02 0.  0.
         13    1    3    3    0    0  0.28106158703E+03  0.67699538842E+03  0.21685232572E+03  0.76442351011E+03  0.00000000000E+00 0.  1.
        -13    1    3    3    0    0  0.57881004028E+02  0.76932171346E+02  0.53492173453E+02  0.11013710654E+03  0.00000000000E+00 0. -1.
          2    1    4    4  502    0  0.21467576797E+02 -0.61232652262E+02 -0.13557606474E+03  0.15030357243E+03  0.00000000000E+00 0. -1.
          1    1    5    5  503    0 -0.43469733284E+02 -0.21332515981E+03  0.94067941523E+02  0.23716243198E+03  0.00000000000E+00 0. -1.
         -2    1    5    5    0  503 -0.20768688611E+03 -0.48381875883E+03  0.28963627925E+03  0.60091896984E+03  0.00000000000E+00 0.  1.
         -1    1    4    4    0  502 -0.10925354846E+03  0.44490111357E+01 -0.29981634975E+03  0.31913316206E+03  0.00000000000E+00 0.  1.
<mgrwt>
<rscale>  0 0.21710958E+04</rscale>
<asrwt>0</asrwt>
<pdfrwt beam="1">  1        1 0.15103250E+00 0.21710958E+04</pdfrwt>
<pdfrwt beam="2">  1       -1 0.18467193E+00 0.21710958E+04</pdfrwt>
<totfact> 0.27547732E+00</totfact>
</mgrwt>
</event>
<event>
12    1  0.2404191E-008  0.1133397E+04  0.7818608E-02  0.9173239E-01
          1   -1    0    0  501    0  0.00000000000E+00  0.00000000000E+00  0.63753817224E+03  0.63753817224E+03  0.00000000000E+00 0. -1.
         -1   -1    0    0    0  501 -0.00000000000E+00 -0.00000000000E+00 -0.50373003341E+03  0.50373003341E+03  0.00000000000E+00 0.  1.
         23    2    1    2    0    0  0.26760879765E+02  0.19364691808E+03  0.48556350434E+02  0.22049926315E+03  0.89704695059E+02 0.  0.
        254    2    1    2    0    0 -0.26760879765E+02 -0.19364691808E+03  0.85251788395E+02  0.92076894250E+03  0.89573003996E+03 0.  0.
        -24    2    4    4    0    0 -0.41667583394E+03 -0.22178160830E+03 -0.92470683947E+02  0.48835824281E+03  0.84481439166E+02 0.  0.
         24    2    4    4    0    0  0.38991495417E+03  0.28134690227E+02  0.17772247234E+03  0.43241069969E+03  0.50680407894E+02 0.  0.
         11    1    3    3    0    0  0.43004178985E+02  0.70765336915E+02 -0.10007435162E+02  0.83410077793E+02  0.00000000000E+00 0. -1.
        -11    1    3    3    0    0 -0.16243299221E+02  0.12288158116E+03  0.58563785597E+02  0.13708918536E+03  0.00000000000E+00 0.  1.
          4    1    6    6  502    0  0.22509123424E+02  0.13956531709E+02  0.10491999337E+02  0.28487321123E+02  0.00000000000E+00 0. -1.
          3    1    5    5  503    0 -0.20698682073E+02  0.59569990673E+01 -0.11582502021E+02  0.24455584853E+02  0.00000000000E+00 0. -1.
         -4    1    5    5    0  503 -0.39597715187E+03 -0.22773860737E+03 -0.80888181926E+02  0.46390265796E+03  0.00000000000E+00 0.  1.
         -3    1    6    6    0  502  0.36740583075E+03  0.14178158518E+02  0.16723047301E+03  0.40392337856E+03  0.00000000000E+00 0.  1.
<mgrwt>
<rscale>  0 0.11333969E+04</rscale>
<asrwt>0</asrwt>
<pdfrwt beam="1">  1        1 0.98082796E-01 0.11333969E+04</pdfrwt>
<pdfrwt beam="2">  1       -1 0.77496928E-01 0.11333969E+04</pdfrwt>
<totfact> 0.52031177E+01</totfact>
</mgrwt>
</event>
<event>
12    1  0.2404191E-008  0.2151109E+04  0.7818608E-02  0.8539058E-01
         -2   -1    0    0    0  501 -0.00000000000E+00  0.00000000000E+00  0.70374436436E+03  0.70374436436E+03  0.00000000000E+00 0. -1.
          2   -1    0    0  501    0  0.00000000000E+00 -0.00000000000E+00 -0.16438035024E+04  0.16438035024E+04  0.00000000000E+00 0.  1.
         23    2    1    2    0    0  0.41343815110E+03 -0.45140509125E+03 -0.10809567377E+04  0.12456160128E+04  0.91619437792E+02 0.  0.
        254    2    1    2    0    0 -0.41343815110E+03  0.45140509125E+03  0.14089759965E+03  0.11019318540E+04  0.90537506922E+03 0.  0.
        -24    2    4    4    0    0 -0.32988373594E+03  0.68779052449E+03  0.25846835587E+03  0.80934319734E+03  0.79695892420E+02 0.  0.
         24    2    4    4    0    0 -0.83554415161E+02 -0.23638543324E+03 -0.11757075622E+03  0.29258865662E+03  0.94476589276E+02 0.  0.
         11    1    3    3    0    0  0.12279198456E+03 -0.18655984374E+03 -0.44523947451E+03  0.49811709109E+03  0.00000000000E+00 0.  1.
        -11    1    3    3    0    0  0.29064616654E+03 -0.26484524751E+03 -0.63571726318E+03  0.74749892171E+03  0.00000000000E+00 0. -1.
          2    1    6    6  502    0 -0.12719881732E+02 -0.14917171057E+03 -0.36672676522E+02  0.15413915735E+03  0.00000000000E+00 0. -1.
          3    1    5    5  503    0 -0.29974337379E+03  0.65497725991E+03  0.25694297960E+03  0.76476205182E+03  0.00000000000E+00 0. -1.
         -4    1    5    5    0  503 -0.30140362152E+02  0.32813264579E+02  0.15253762685E+01  0.44581145519E+02  0.00000000000E+00 0.  1.
         -1    1    6    6    0  502 -0.70834533429E+02 -0.87213722670E+02 -0.80898079694E+02  0.13844949926E+03  0.00000000000E+00 0.  1.
<mgrwt>
<rscale>  0 0.21511090E+04</rscale>
<asrwt>0</asrwt>
<pdfrwt beam="1">  1        2 0.25289284E+00 0.21511090E+04</pdfrwt>
<pdfrwt beam="2">  1       -2 0.10826837E+00 0.21511090E+04</pdfrwt>
<totfact> 0.66048414E+00</totfact>
</mgrwt>
</event>
<event>
11    1  0.2404191E-008  0.1977472E+04  0.7818608E-02  0.8617226E-01
          1   -1    0    0  501    0  0.00000000000E+00  0.00000000000E+00  0.21959438171E+04  0.21959438171E+04  0.00000000000E+00 0. -1.
         -1   -1    0    0    0  501 -0.00000000000E+00 -0.00000000000E+00 -0.44518390259E+03  0.44518390259E+03  0.00000000000E+00 0.  1.
         23    2    1    2    0    0 -0.41953418098E+03 -0.46360360389E+03  0.72699165486E+02  0.63596067516E+03  0.90683962950E+02 0.  0.
        254    2    1    2    0    0  0.41953418098E+03  0.46360360389E+03  0.16780607490E+04  0.20051670445E+04  0.90214730975E+03 0.  0.
        -24    2    4    4    0    0 -0.22041803116E+03  0.20303982051E+03  0.48504663851E+03  0.57559294870E+03  0.78915929252E+02 0.  0.
         13    1    3    3    0    0 -0.30437704160E+03 -0.30346193052E+03  0.13493353164E+02  0.43001929876E+03  0.00000000000E+00 0.  1.
        -13    1    3    3    0    0 -0.11515713939E+03 -0.16014167337E+03  0.59205812321E+02  0.20594137640E+03  0.00000000000E+00 0. -1.
          4    1    4    4  502    0  0.51369682489E+03  0.27657367022E+03  0.65696326224E+03  0.87862287183E+03  0.00000000000E+00 0. -1.
          3    1    5    5  503    0 -0.10652508123E+03  0.75669417863E+02  0.27777971062E+03  0.30697723265E+03  0.00000000000E+00 0. -1.
         -4    1    5    5    0  503 -0.11389294993E+03  0.12737040265E+03  0.20726692789E+03  0.26861571606E+03  0.00000000000E+00 0.  1.
         -3    1    4    4    0  502  0.12625538725E+03 -0.16009886842E+02  0.53605084828E+03  0.55095122400E+03  0.00000000000E+00 0.  1.
<mgrwt>
<rscale>  0 0.19774720E+04</rscale>
<asrwt>0</asrwt>
<pdfrwt beam="1">  1        1 0.33783751E+00 0.19774720E+04</pdfrwt>
<pdfrwt beam="2">  1       -1 0.68489832E-01 0.19774720E+04</pdfrwt>
<totfact> 0.43972114E+00</totfact>
</mgrwt>
</event>
<event>
11    1  0.2404191E-008  0.1746805E+04  0.7818608E-02  0.8735111E-01
         -2   -1    0    0    0  501 -0.00000000000E+00  0.00000000000E+00  0.30079784129E+03  0.30079784129E+03  0.00000000000E+00 0.  1.
          2   -1    0    0  501    0  0.00000000000E+00 -0.00000000000E+00 -0.25360285729E+04  0.25360285729E+04  0.00000000000E+00 0. -1.
         23    2    1    2    0    0 -0.11598622335E+03  0.57307136511E+03 -0.41720087672E+03  0.72706385786E+03  0.11270176731E+03 0.  0.
        254    2    1    2    0    0  0.11598622335E+03 -0.57307136511E+03 -0.18180298549E+04  0.21097625563E+04  0.89666152884E+03 0.  0.
        -24    2    4    4    0    0  0.10569094508E+03 -0.36566030069E+03 -0.17630858311E+04  0.18054375273E+04  0.79088467273E+02 0.  0.
         13    1    3    3    0    0 -0.13837261751E+03  0.51305045355E+03 -0.37093143158E+03  0.64804156973E+03  0.00000000000E+00 0.  1.
        -13    1    3    3    0    0  0.22386394157E+02  0.60020911568E+02 -0.46269445143E+02  0.79022288138E+02  0.00000000000E+00 0. -1.
          2    1    4    4  502    0  0.32159080472E+02 -0.40044040667E+02 -0.11437643262E+03  0.12537822773E+03  0.00000000000E+00 0. -1.
          3    1    5    5  503    0  0.26287077716E+01 -0.61834872696E+02 -0.42170514272E+03  0.42622258150E+03  0.00000000000E+00 0. -1.
         -4    1    5    5    0  503  0.10306223731E+03 -0.30382542800E+03 -0.13413806884E+04  0.13792149458E+04  0.00000000000E+00 0.  1.
         -1    1    4    4    0  502 -0.21863802198E+02 -0.16736702376E+03  0.59432408833E+02  0.17894680133E+03  0.00000000000E+00 0.  1.
<mgrwt>
<rscale>  0 0.17468050E+04</rscale>
<asrwt>0</asrwt>
<pdfrwt beam="1">  1        2 0.39015823E+00 0.17468050E+04</pdfrwt>
<pdfrwt beam="2">  1       -2 0.46276592E-01 0.17468050E+04</pdfrwt>
<totfact> 0.13945486E+01</totfact>
</mgrwt>
</event>
<event>
12    1  0.2404191E-008  0.2518669E+04  0.7818608E-02  0.8396365E-01
          3   -1    0    0  501    0  0.00000000000E+00  0.00000000000E+00  0.76709056929E+03  0.76709056929E+03  0.00000000000E+00 0. -1.
         -3   -1    0    0    0  501 -0.00000000000E+00 -0.00000000000E+00 -0.20674531832E+04  0.20674531832E+04  0.00000000000E+00 0.  1.
         23    2    1    2    0    0 -0.54764849198E+03  0.50794441373E+03 -0.14827009858E+04  0.16626744681E+04  0.90320404249E+02 0.  0.
        254    2    1    2    0    0  0.54764849198E+03 -0.50794441373E+03  0.18233837187E+03  0.11718692844E+04  0.88436640576E+03 0.  0.
        -24    2    4    4    0    0  0.15591227054E+03 -0.33687375959E+03 -0.32955387755E+03  0.50261245046E+03  0.78873006440E+02 0.  0.
         24    2    4    4    0    0  0.39173622144E+03 -0.17107065413E+03  0.51189224942E+03  0.66925683393E+03  0.56112376993E+02 0.  0.
         11    1    3    3    0    0 -0.41901069251E+03  0.33722397020E+03 -0.10942856015E+04  0.12193239702E+04  0.00000000000E+00 0.  1.
        -11    1    3    3    0    0 -0.12863779947E+03  0.17072044352E+03 -0.38841538427E+03  0.44335049794E+03  0.00000000000E+00 0. -1.
          4    1    6    6  502    0  0.14105848380E+02  0.41391006083E+01  0.14613788769E+02  0.20728481241E+02  0.00000000000E+00 0. -1.
          3    1    5    5  503    0 -0.16854671142E+00 -0.66202275550E+02 -0.45378056680E+02  0.80261682789E+02  0.00000000000E+00 0. -1.
         -4    1    5    5    0  503  0.15608081725E+03 -0.27067148404E+03 -0.28417582087E+03  0.42235076767E+03  0.00000000000E+00 0.  1.
         -3    1    6    6    0  502  0.37763037306E+03 -0.17520975474E+03  0.49727846065E+03  0.64852835269E+03  0.00000000000E+00 0.  1.
<mgrwt>
<rscale>  0 0.25186694E+04</rscale>
<asrwt>0</asrwt>
<pdfrwt beam="1">  1        3 0.11801394E+00 0.25186694E+04</pdfrwt>
<pdfrwt beam="2">  1       -3 0.31806972E+00 0.25186694E+04</pdfrwt>
<totfact> 0.41213521E-02</totfact>
</mgrwt>
</event>
<event>
11    1  0.2404191E-008  0.1437694E+04  0.7818608E-02  0.8926976E-01
         -1   -1    0    0    0  501 -0.00000000000E+00  0.00000000000E+00  0.68295153173E+03  0.68295153173E+03  0.00000000000E+00 0.  1.
          1   -1    0    0  501    0  0.00000000000E+00 -0.00000000000E+00 -0.75662955412E+03  0.75662955412E+03  0.00000000000E+00 0. -1.
         23    2    1    2    0    0  0.37290161228E+03  0.20634097245E+03 -0.10201363491E+03  0.45000001726E+03  0.10227914977E+03 0.  0.
        254    2    1    2    0    0 -0.37290161228E+03 -0.20634097245E+03  0.28335612522E+02  0.98958106859E+03  0.89265647089E+03 0.  0.
        -24    2    4    4    0    0  0.16792344481E+03  0.19194761600E+03 -0.68707818884E+02  0.27621615764E+03  0.80823454245E+02 0.  0.
         11    1    3    3    0    0  0.18446170703E+03  0.86762540426E+02  0.18057133221E+01  0.20385563613E+03  0.00000000000E+00 0.  1.
        -11    1    3    3    0    0  0.18843990524E+03  0.11957843203E+03 -0.10381934823E+03  0.24614438113E+03  0.00000000000E+00 0. -1.
          2    1    4    4  502    0 -0.23008784046E+03 -0.16581141309E+03 -0.68006835108E+02  0.29164836474E+03  0.00000000000E+00 0. -1.
          3    1    5    5  503    0  0.17149009327E+03  0.19576724053E+03 -0.61693624633E+02  0.26746919052E+03  0.00000000000E+00 0. -1.
         -4    1    5    5    0  503 -0.35666484566E+01 -0.38196245310E+01 -0.70141942507E+01  0.87469671177E+01  0.00000000000E+00 0.  1.
         -1    1    4    4    0  502 -0.31073721663E+03 -0.23247717537E+03  0.16505026651E+03  0.42171654621E+03  0.00000000000E+00 0.  1.
<mgrwt>
<rscale>  0 0.14376944E+04</rscale>
<asrwt>0</asrwt>
<pdfrwt beam="1">  1        1 0.11640455E+00 0.14376944E+04</pdfrwt>
<pdfrwt beam="2">  1       -1 0.10506947E+00 0.14376944E+04</pdfrwt>
<totfact> 0.19971552E+01</totfact>
</mgrwt>
</event>
<event>
11    1  0.2404191E-008  0.1717187E+04  0.7818608E-02  0.8751622E-01
          2   -1    0    0  501    0  0.00000000000E+00  0.00000000000E+00  0.22538569654E+04  0.22538569654E+04  0.00000000000E+00 0. -1.
         -2   -1    0    0    0  501 -0.00000000000E+00 -0.00000000000E+00 -0.32707602748E+03  0.32707602748E+03  0.00000000000E+00 0.  1.
         23    2    1    2    0    0 -0.45239948999E+03 -0.19214880789E+01  0.67375176635E+02  0.46613205702E+03  0.89837016254E+02 0.  0.
        254    2    1    2    0    0  0.45239948999E+03  0.19214880789E+01  0.18594057613E+04  0.21148009359E+04  0.90018010562E+03 0.  0.
        -24    2    4    4    0    0  0.39732253958E+03 -0.40383488906E+03  0.12147331277E+04  0.13426942464E+04  0.79394267616E+02 0.  0.
         13    1    3    3    0    0 -0.13161186187E+03  0.22825814785E+02  0.54103630874E+02  0.14411767026E+03  0.00000000000E+00 0. -1.
        -13    1    3    3    0    0 -0.32078762812E+03 -0.24747302863E+02  0.13271545760E+02  0.32201438676E+03  0.00000000000E+00 0.  1.
          2    1    4    4  502    0 -0.52581901272E+01 -0.13709798418E+01 -0.18123927575E+01  0.57282559866E+01  0.00000000000E+00 0. -1.
          1    1    5    5  503    0  0.22943114284E+03 -0.17770771146E+03  0.59808115290E+03  0.66477044570E+03  0.00000000000E+00 0. -1.
         -4    1    5    5    0  503  0.16789139674E+03 -0.22612717760E+03  0.61665197483E+03  0.67792380074E+03  0.00000000000E+00 0.  1.
         -1    1    4    4    0  502  0.60335140539E+02  0.40712735698E+03  0.64648502631E+03  0.76637843343E+03  0.00000000000E+00 0.  1.
<mgrwt>
<rscale>  0 0.17171867E+04</rscale>
<asrwt>0</asrwt>
<pdfrwt beam="1">  1        2 0.34674722E+00 0.17171867E+04</pdfrwt>
<pdfrwt beam="2">  1       -2 0.50319390E-01 0.17171867E+04</pdfrwt>
<totfact> 0.17101416E+01</totfact>
</mgrwt>
</event>
<event>
11    1  0.2404191E-008  0.2185200E+04  0.7818608E-02  0.8524614E-01
         -2   -1    0    0    0  501 -0.00000000000E+00  0.00000000000E+00  0.66861589434E+03  0.66861589434E+03  0.00000000000E+00 0.  1.
          2   -1    0    0  501    0  0.00000000000E+00 -0.00000000000E+00 -0.17854414761E+04  0.17854414761E+04  0.00000000000E+00 0. -1.
         23    2    1    2    0    0 -0.36019040864E+03  0.10138171805E+03  0.46106635017E+03  0.60075791838E+03  0.91172989453E+02 0.  0.
        254    2    1    2    0    0  0.36019040864E+03 -0.10138171805E+03 -0.15778919319E+04  0.18532994520E+04  0.89719592448E+03 0.  0.
        -24    2    4    4    0    0  0.13317833202E+03 -0.14968455024E+03 -0.15334666951E+04  0.15485849294E+04  0.80332096817E+02 0.  0.
         13    1    3    3    0    0 -0.31494235167E+03  0.11552086438E+03  0.38033854532E+03  0.50714018184E+03  0.00000000000E+00 0.  1.
        -13    1    3    3    0    0 -0.45248056978E+02 -0.14139146334E+02  0.80727804847E+02  0.93617736539E+02  0.00000000000E+00 0. -1.
          4    1    4    4  502    0  0.18636441229E+03  0.56180404477E+02  0.50551412458E+02  0.20110538859E+03  0.00000000000E+00 0. -1.
          1    1    5    5  503    0  0.69290914274E+02 -0.13204023132E+03 -0.10135311255E+04  0.10244418948E+04  0.00000000000E+00 0. -1.
         -2    1    5    5    0  503  0.63887417751E+02 -0.17644318918E+02 -0.51993556958E+03  0.52414303453E+03  0.00000000000E+00 0.  1.
         -1    1    4    4    0  502  0.40647664325E+02 -0.78775722828E+01 -0.94976649230E+02  0.10360913405E+03  0.00000000000E+00 0.  1.
<mgrwt>
<rscale>  0 0.21851998E+04</rscale>
<asrwt>0</asrwt>
<pdfrwt beam="1">  1        2 0.27468330E+00 0.21851998E+04</pdfrwt>
<pdfrwt beam="2">  1       -2 0.10286399E+00 0.21851998E+04</pdfrwt>
<totfact> 0.62126233E+00</totfact>
</mgrwt>
</event>
<event>
12    1  0.2404191E-008  0.2231945E+04  0.7818608E-02  0.8505248E-01
         -1   -1    0    0    0  501 -0.00000000000E+00  0.00000000000E+00  0.56991582915E+03  0.56991582915E+03  0.00000000000E+00 0.  1.
          1   -1    0    0  501    0  0.00000000000E+00 -0.00000000000E+00 -0.21852249739E+04  0.21852249739E+04  0.00000000000E+00 0. -1.
         23    2    1    2    0    0 -0.17844525366E+03  0.66620838234E+03 -0.14515908659E+04  0.16096832937E+04  0.91038162570E+02 0.  0.
        254    2    1    2    0    0  0.17844525366E+03 -0.66620838234E+03 -0.16371827889E+03  0.11454575093E+04  0.89977381243E+03 0.  0.
        -24    2    4    4    0    0 -0.17826545075E+03 -0.72754621366E+03 -0.14658047300E+03  0.76751931250E+03  0.80610148568E+02 0.  0.
         24    2    4    4    0    0  0.35671070441E+03  0.61337831323E+02 -0.17137805896E+02  0.37793819681E+03  0.10741843428E+03 0.  0.
         11    1    3    3    0    0 -0.10185575120E+03  0.37459323895E+03 -0.71101301512E+03  0.81008283304E+03  0.00000000000E+00 0.  1.
        -11    1    3    3    0    0 -0.76589502465E+02  0.29161514339E+03 -0.74057785074E+03  0.79960046070E+03  0.00000000000E+00 0. -1.
          4    1    6    6  502    0  0.30378097389E+03  0.43721309835E+02 -0.53234472471E+02  0.31149372721E+03  0.00000000000E+00 0. -1.
          1    1    5    5  503    0 -0.14617768523E+03 -0.66333540840E+03 -0.15015061324E+03  0.69564860839E+03  0.00000000000E+00 0. -1.
         -2    1    5    5    0  503 -0.32087765518E+02 -0.64210805260E+02  0.35701402378E+01  0.71870704111E+02  0.00000000000E+00 0.  1.
         -3    1    6    6    0  502  0.52929730522E+02  0.17616521488E+02  0.36096666575E+02  0.66444469599E+02  0.00000000000E+00 0.  1.
<mgrwt>
<rscale>  0 0.22319447E+04</rscale>
<asrwt>0</asrwt>
<pdfrwt beam="1">  1        1 0.33618846E+00 0.22319447E+04</pdfrwt>
<pdfrwt beam="2">  1       -1 0.87679357E-01 0.22319447E+04</pdfrwt>
<totfact> 0.25932456E+00</totfact>
</mgrwt>
</event>
<event>
11    1  0.2404191E-008  0.1508740E+04  0.7818608E-02  0.8878662E-01
         -2   -1    0    0    0  501 -0.00000000000E+00  0.00000000000E+00  0.19055378671E+03  0.19055378671E+03  0.00000000000E+00 0.  1.
          2   -1    0    0  501    0  0.00000000000E+00 -0.00000000000E+00 -0.29864215246E+04  0.29864215246E+04  0.00000000000E+00 0. -1.
         23    2    1    2    0    0 -0.23346152663E+02  0.36010707644E+03 -0.15564214824E+04  0.16001135161E+04  0.87711369550E+02 0.  0.
        254    2    1    2    0    0  0.23346152663E+02 -0.36010707644E+03 -0.12394462555E+04  0.15768617952E+04  0.90556278163E+03 0.  0.
        -24    2    4    4    0    0  0.92566384331E+02  0.16050596500E+03 -0.86516440427E+03  0.88843000914E+03  0.80422225809E+02 0.  0.
         13    1    3    3    0    0  0.14913314030E+02  0.28668820309E+03 -0.11444867553E+04  0.11799417213E+04  0.00000000000E+00 0. -1.
        -13    1    3    3    0    0 -0.38259466693E+02  0.73418873356E+02 -0.41193472711E+03  0.42017179481E+03  0.00000000000E+00 0.  1.
          2    1    4    4  502    0 -0.71657506205E+02 -0.16804951518E+02 -0.39527251092E+02  0.83544049280E+02  0.00000000000E+00 0. -1.
          3    1    5    5  503    0  0.70742771225E+02  0.44210919797E+02 -0.37923050325E+03  0.38829746292E+03  0.00000000000E+00 0. -1.
         -4    1    5    5    0  503  0.21823613105E+02  0.11629504520E+03 -0.48593390102E+03  0.50013254622E+03  0.00000000000E+00 0.  1.
         -1    1    4    4    0  502  0.24372745378E+01 -0.50380808992E+03 -0.33475460014E+03  0.60488773677E+03  0.00000000000E+00 0.  1.
<mgrwt>
<rscale>  0 0.15087398E+04</rscale>
<asrwt>0</asrwt>
<pdfrwt beam="1">  1        2 0.45944949E+00 0.15087398E+04</pdfrwt>
<pdfrwt beam="2">  1       -2 0.29315965E-01 0.15087398E+04</pdfrwt>
<totfact> 0.18483298E+01</totfact>
</mgrwt>
</event>
<event>
11    1  0.2404191E-008  0.1181197E+04  0.7818608E-02  0.9129476E-01
         -3   -1    0    0    0  501 -0.00000000000E+00  0.00000000000E+00  0.84013942404E+03  0.84013942404E+03  0.00000000000E+00 0.  1.
          3   -1    0    0  501    0  0.00000000000E+00 -0.00000000000E+00 -0.41517693353E+03  0.41517693353E+03  0.00000000000E+00 0. -1.
         23    2    1    2    0    0  0.10710810163E+03 -0.27073597216E+02  0.31109765113E+03  0.34264104480E+03  0.91738824617E+02 0.  0.
        254    2    1    2    0    0 -0.10710810163E+03  0.27073597216E+02  0.11386483938E+03  0.91267531277E+03  0.89878022886E+03 0.  0.
        -24    2    4    4    0    0  0.74743699786E+02 -0.40145488970E+03  0.10043563399E+03  0.42814030576E+03  0.80399973409E+02 0.  0.
         11    1    3    3    0    0  0.29595172024E+02  0.33475018038E+02  0.83607179461E+02  0.94797739937E+02  0.00000000000E+00 0.  1.
        -11    1    3    3    0    0  0.77512929610E+02 -0.60548615254E+02  0.22749047167E+03  0.24784330486E+03  0.00000000000E+00 0. -1.
          2    1    4    4  502    0 -0.16639820064E+03  0.23622059836E+03  0.32024658223E+02  0.29071310772E+03  0.00000000000E+00 0. -1.
          1    1    5    5  503    0  0.44211407398E+01 -0.19435393655E+02 -0.12611246511E+02  0.23586533245E+02  0.00000000000E+00 0. -1.
         -2    1    5    5    0  503  0.70322559046E+02 -0.38201949604E+03  0.11304688051E+03  0.40455377252E+03  0.00000000000E+00 0.  1.
         -1    1    4    4    0  502 -0.15453600776E+02  0.19230788856E+03 -0.18595452837E+02  0.19382189929E+03  0.00000000000E+00 0.  1.
<mgrwt>
<rscale>  0 0.11811969E+04</rscale>
<asrwt>0</asrwt>
<pdfrwt beam="1">  1        3 0.63873374E-01 0.11811969E+04</pdfrwt>
<pdfrwt beam="2">  1       -3 0.12925222E+00 0.11811969E+04</pdfrwt>
<totfact> 0.28980880E+00</totfact>
</mgrwt>
</event>
<event>
11    1  0.2404191E-008  0.1708096E+04  0.7818608E-02  0.8756760E-01
          1   -1    0    0  501    0  0.00000000000E+00  0.00000000000E+00  0.10088426726E+04  0.10088426726E+04  0.00000000000E+00 0. -1.
         -1   -1    0    0    0  501 -0.00000000000E+00 -0.00000000000E+00 -0.72300508719E+03  0.72300508719E+03  0.00000000000E+00 0.  1.
         23    2    1    2    0    0  0.39877700401E+01  0.52577422882E+03 -0.24013716028E+03  0.58433362634E+03  0.85589071297E+02 0.  0.
        254    2    1    2    0    0 -0.39877700401E+01 -0.52577422882E+03  0.52597474566E+03  0.11475141334E+04  0.87389061748E+03 0.  0.
        -24    2    4    4    0    0 -0.81473937202E+02  0.10750260690E+03  0.48247579096E+03  0.50680637512E+03  0.76648549027E+02 0.  0.
         13    1    3    3    0    0  0.12668123040E+02  0.48395870282E+03 -0.19423184746E+03  0.52163446775E+03  0.00000000000E+00 0.  1.
        -13    1    3    3    0    0 -0.86803529997E+01  0.41815525994E+02 -0.45905312821E+02  0.62699158588E+02  0.00000000000E+00 0. -1.
          2    1    4    4  502    0 -0.90854986087E+00 -0.43439874111E+01 -0.27529835671E+01  0.52225097413E+01  0.00000000000E+00 0. -1.
          1    1    5    5  503    0 -0.34312107457E+02  0.77669617322E+01  0.54725578999E+02  0.65057938866E+02  0.00000000000E+00 0. -1.
         -2    1    5    5    0  503 -0.47161829745E+02  0.99735645165E+02  0.42775021196E+03  0.44174843626E+03  0.00000000000E+00 0.  1.
         -1    1    4    4    0  502  0.78394717023E+02 -0.62893284830E+03  0.46251938261E+02  0.63548524855E+03  0.00000000000E+00 0.  1.
<mgrwt>
<rscale>  0 0.17080965E+04</rscale>
<asrwt>0</asrwt>
<pdfrwt beam="1">  1        1 0.15520656E+00 0.17080965E+04</pdfrwt>
<pdfrwt beam="2">  1       -1 0.11123155E+00 0.17080965E+04</pdfrwt>
<totfact> 0.10528524E+01</totfact>
</mgrwt>
</event>
<event>
12    1  0.2404191E-008  0.1317300E+04  0.7818608E-02  0.9015957E-01
          2   -1    0    0  501    0  0.00000000000E+00  0.00000000000E+00  0.16852562986E+04  0.16852562986E+04  0.00000000000E+00 0. -1.
         -2   -1    0    0    0  501 -0.00000000000E+00 -0.00000000000E+00 -0.25742086504E+03  0.25742086504E+03  0.00000000000E+00 0.  1.
         23    2    1    2    0    0 -0.18110906893E+03 -0.25761892535E+02  0.95572967571E+03  0.97696971505E+03  0.87100178713E+02 0.  0.
        254    2    1    2    0    0  0.18110906893E+03  0.25761892535E+02  0.47210575785E+03  0.96570744859E+03  0.82233986874E+03 0.  0.
        -24    2    4    4    0    0  0.18844230227E+03  0.45226884613E+02 -0.19757535954E+03  0.28703057348E+03  0.76121974743E+02 0.  0.
         24    2    4    4    0    0 -0.73332333406E+01 -0.19464992079E+02  0.66968111740E+03  0.67867687511E+03  0.10815192828E+03 0.  0.
         13    1    3    3    0    0 -0.14731272618E+03 -0.20342542687E+02  0.89489516848E+03  0.90716714055E+03  0.00000000000E+00 0. -1.
        -13    1    3    3    0    0 -0.33796342742E+02 -0.54193498480E+01  0.60834507236E+02  0.69802574495E+02  0.00000000000E+00 0.  1.
          4    1    6    6  502    0 -0.27663888029E+02 -0.38544343657E+02  0.61914256514E+03  0.62095770636E+03  0.00000000000E+00 0. -1.
          3    1    5    5  503    0  0.18660188702E+03  0.35603341298E+02 -0.20108033249E+03  0.27662458724E+03  0.00000000000E+00 0. -1.
         -4    1    5    5    0  503  0.18404152488E+01  0.96235433151E+01  0.35049729516E+01  0.10405986240E+02  0.00000000000E+00 0.  1.
         -3    1    6    6    0  502  0.20330654688E+02  0.19079351578E+02  0.50538552259E+02  0.57719168749E+02  0.00000000000E+00 0.  1.
<mgrwt>
<rscale>  0 0.13173005E+04</rscale>
<asrwt>0</asrwt>
<pdfrwt beam="1">  1        2 0.25927019E+00 0.13173005E+04</pdfrwt>
<pdfrwt beam="2">  1       -2 0.39603211E-01 0.13173005E+04</pdfrwt>
<totfact> 0.58997539E+01</totfact>
</mgrwt>
</event>
<event>
12    1  0.2404191E-008  0.1310877E+04  0.7818608E-02  0.9020984E-01
         -2   -1    0    0    0  501 -0.00000000000E+00  0.00000000000E+00  0.83805760594E+03  0.83805760594E+03  0.00000000000E+00 0.  1.
          2   -1    0    0  501    0  0.00000000000E+00 -0.00000000000E+00 -0.51261331313E+03  0.51261331313E+03  0.00000000000E+00 0. -1.
         23    2    1    2    0    0 -0.13713728670E+02  0.15209242627E+02  0.40792984560E+03  0.41815713324E+03  0.89606036235E+02 0.  0.
        254    2    1    2    0    0  0.13713728670E+02 -0.15209242627E+02 -0.82485552795E+02  0.93251378583E+03  0.92863270830E+03 0.  0.
        -24    2    4    4    0    0  0.23255858609E+03 -0.23222993912E+03 -0.36886459936E+03  0.50025715456E+03  0.78624979676E+02 0.  0.
         24    2    4    4    0    0 -0.21884485742E+03  0.21702069650E+03  0.28637904657E+03  0.43225663127E+03  0.99205759100E+02 0.  0.
         13    1    3    3    0    0 -0.28950171748E+02 -0.10330926770E+02  0.36285955923E+03  0.36415916879E+03  0.00000000000E+00 0.  1.
        -13    1    3    3    0    0  0.15236443078E+02  0.25540169397E+02  0.45070286376E+02  0.53997964448E+02  0.00000000000E+00 0. -1.
          2    1    6    6  502    0 -0.20837949492E+03  0.19235335071E+03  0.28952933695E+03  0.40527652582E+03  0.00000000000E+00 0. -1.
          1    1    5    5  503    0  0.16815248195E+03 -0.18541503597E+03 -0.22869159373E+03  0.33904842986E+03  0.00000000000E+00 0. -1.
         -2    1    5    5    0  503  0.64406104140E+02 -0.46814903152E+02 -0.14017300564E+03  0.16120872469E+03  0.00000000000E+00 0.  1.
         -1    1    6    6    0  502 -0.10465362502E+02  0.24667345790E+02 -0.31502903779E+01  0.26980105450E+02  0.00000000000E+00 0.  1.
<mgrwt>
<rscale>  0 0.13108768E+04</rscale>
<asrwt>0</asrwt>
<pdfrwt beam="1">  1        2 0.78863587E-01 0.13108768E+04</pdfrwt>
<pdfrwt beam="2">  1       -2 0.12893194E+00 0.13108768E+04</pdfrwt>
<totfact> 0.25967720E+01</totfact>
</mgrwt>
</event>
<event>
11    1  0.2404191E-008  0.1161767E+04  0.7818608E-02  0.9146996E-01
          1   -1    0    0  501    0  0.00000000000E+00  0.00000000000E+00  0.11757433381E+04  0.11757433381E+04  0.00000000000E+00 0. -1.
         -1   -1    0    0    0  501 -0.00000000000E+00 -0.00000000000E+00 -0.28698920359E+03  0.28698920359E+03  0.00000000000E+00 0.  1.
         23    2    1    2    0    0  0.44389439158E+02  0.37258706944E+02  0.35638450235E+03  0.37266871238E+03  0.92268207525E+02 0.  0.
        254    2    1    2    0    0 -0.44389439158E+02 -0.37258706944E+02  0.53236963212E+03  0.10900638293E+04  0.94945410268E+03 0.  0.
        -24    2    4    4    0    0  0.14699948215E+03  0.40276407309E+03  0.35333951004E+03  0.56136909567E+03  0.80366074258E+02 0.  0.
         13    1    3    3    0    0  0.14053502750E+02  0.56334719222E+02  0.11697288438E+03  0.13059003488E+03  0.00000000000E+00 0.  1.
        -13    1    3    3    0    0  0.30335936408E+02 -0.19076012277E+02  0.23941161796E+03  0.24207867750E+03  0.00000000000E+00 0. -1.
          2    1    4    4  502    0 -0.16553588289E+03 -0.38874458053E+03  0.10567769784E+03  0.43553674155E+03  0.00000000000E+00 0. -1.
          3    1    5    5  503    0  0.13371567857E+03  0.40081633504E+03  0.33889678068E+03  0.54164992853E+03  0.00000000000E+00 0. -1.
         -4    1    5    5    0  503  0.13283803581E+02  0.19477380553E+01  0.14442729357E+02  0.19719167132E+02  0.00000000000E+00 0.  1.
         -1    1    4    4    0  502 -0.25853038418E+02 -0.51278199502E+02  0.73352424237E+02  0.93157992041E+02  0.00000000000E+00 0.  1.
<mgrwt>
<rscale>  0 0.11617670E+04</rscale>
<asrwt>0</asrwt>
<pdfrwt beam="1">  1        1 0.18088359E+00 0.11617670E+04</pdfrwt>
<pdfrwt beam="2">  1       -1 0.44152186E-01 0.11617670E+04</pdfrwt>
<totfact> 0.56037106E+01</totfact>
</mgrwt>
</event>
<event>
11    1  0.2404191E-008  0.1877000E+04  0.7818608E-02  0.8666391E-01
          2   -1    0    0  501    0  0.00000000000E+00  0.00000000000E+00  0.10566817394E+04  0.10566817394E+04  0.00000000000E+00 0. -1.
         -2   -1    0    0    0  501 -0.00000000000E+00 -0.00000000000E+00 -0.83353563346E+03  0.83353563346E+03  0.00000000000E+00 0.  1.
         23    2    1    2    0    0  0.39205471772E+01  0.65857686622E+03 -0.19450642230E+03  0.69282349406E+03  0.91830203070E+02 0.  0.
        254    2    1    2    0    0 -0.39205471772E+01 -0.65857686622E+03  0.41765252826E+03  0.11973938788E+04  0.90861411350E+03 0.  0.
        -24    2    4    4    0    0  0.12265930435E+03 -0.77253033361E+03  0.86149137774E+02  0.79102141026E+03  0.80279363863E+02 0.  0.
         13    1    3    3    0    0  0.29267010983E+02  0.34918401944E+03 -0.14150655933E+03  0.37790229385E+03  0.00000000000E+00 0. -1.
        -13    1    3    3    0    0 -0.25346463806E+02  0.30939284678E+03 -0.52999862965E+02  0.31492120021E+03  0.00000000000E+00 0.  1.
          2    1    4    4  502    0 -0.14014899143E+03  0.42248298450E+02  0.14473023149E+03  0.20584824126E+03  0.00000000000E+00 0. -1.
          3    1    5    5  503    0  0.12468600498E+03 -0.72857453000E+03  0.97523836576E+02  0.74557249433E+03  0.00000000000E+00 0. -1.
         -4    1    5    5    0  503 -0.20267006292E+01 -0.43955803608E+02 -0.11374698802E+02  0.45448915929E+02  0.00000000000E+00 0.  1.
         -1    1    4    4    0  502  0.13569139905E+02  0.71705168937E+02  0.18677315900E+03  0.20052422729E+03  0.00000000000E+00 0.  1.
<mgrwt>
<rscale>  0 0.18769996E+04</rscale>
<asrwt>0</asrwt>
<pdfrwt beam="1">  1        2 0.16256642E+00 0.18769996E+04</pdfrwt>
<pdfrwt beam="2">  1       -2 0.12823625E+00 0.18769996E+04</pdfrwt>
<totfact> 0.97799072E+00</totfact>
</mgrwt>
</event>
<event>
12    1  0.2404191E-008  0.3441813E+04  0.7818608E-02  0.8127720E-01
          2   -1    0    0  501    0  0.00000000000E+00  0.00000000000E+00  0.25281553942E+04  0.25281553942E+04  0.00000000000E+00 0. -1.
         -2   -1    0    0    0  501 -0.00000000000E+00 -0.00000000000E+00 -0.11714151986E+04  0.11714151986E+04  0.00000000000E+00 0.  1.
         23    2    1    2    0    0  0.14014364598E+04  0.50628592061E+03 -0.81980023287E+01  0.14928110018E+04  0.89821465193E+02 0.  0.
        254    2    1    2    0    0 -0.14014364598E+04 -0.50628592061E+03  0.13649381979E+04  0.22067595910E+04  0.88678183578E+03 0.  0.
        -24    2    4    4    0    0 -0.12733745181E+04 -0.99011884750E+02  0.88191393847E+03  0.15537098591E+04  0.70399679399E+02 0.  0.
         24    2    4    4    0    0 -0.12806194172E+03 -0.40727403586E+03  0.48302425944E+03  0.65304973192E+03  0.10435284349E+03 0.  0.
         11    1    3    3    0    0  0.81526416639E+03  0.29392703877E+03 -0.49073465591E+02  0.86801899181E+03  0.00000000000E+00 0. -1.
        -11    1    3    3    0    0  0.58617229340E+03  0.21235888184E+03  0.40875463263E+02  0.62479200998E+03  0.00000000000E+00 0.  1.
          2    1    6    6  502    0 -0.62188667861E+02 -0.18806446082E+03  0.30227867283E+03  0.36139738223E+03  0.00000000000E+00 0. -1.
          1    1    5    5  503    0 -0.67674420257E+03 -0.82980532980E+02  0.44859743114E+03  0.81615448280E+03  0.00000000000E+00 0. -1.
         -2    1    5    5    0  503 -0.59663031549E+03 -0.16031351771E+02  0.43331650733E+03  0.73755537631E+03  0.00000000000E+00 0.  1.
         -1    1    6    6    0  502 -0.65873273860E+02 -0.21920957505E+03  0.18074558661E+03  0.29165234969E+03  0.00000000000E+00 0.  1.
<mgrwt>
<rscale>  0 0.34418133E+04</rscale>
<asrwt>0</asrwt>
<pdfrwt beam="1">  1        2 0.38894698E+00 0.34418133E+04</pdfrwt>
<pdfrwt beam="2">  1       -2 0.18021772E+00 0.34418133E+04</pdfrwt>
<totfact> 0.50006713E-01</totfact>
</mgrwt>
</event>
<event>
12    1  0.2404191E-008  0.1716691E+04  0.7818608E-02  0.8751902E-01
         -1   -1    0    0    0  501 -0.00000000000E+00  0.00000000000E+00  0.11797626516E+04  0.11797626516E+04  0.00000000000E+00 0.  1.
          1   -1    0    0  501    0  0.00000000000E+00 -0.00000000000E+00 -0.62449580121E+03  0.62449580121E+03  0.00000000000E+00 0. -1.
         23    2    1    2    0    0  0.18700287432E+03  0.49544763447E+02  0.81723297833E+03  0.84497276604E+03  0.93190535406E+02 0.  0.
        254    2    1    2    0    0 -0.18700287432E+03 -0.49544763447E+02 -0.26196612795E+03  0.95928568677E+03  0.90231813572E+03 0.  0.
        -24    2    4    4    0    0  0.45268602465E+02 -0.30387684255E+03 -0.45826480068E+03  0.55745121144E+03  0.79717274076E+02 0.  0.
         24    2    4    4    0    0 -0.23227147678E+03  0.25433207910E+03  0.19629867273E+03  0.40183447533E+03  0.65596732054E+02 0.  0.
         13    1    3    3    0    0  0.40974023390E+02  0.43588314550E+02  0.36038910855E+03  0.36532057336E+03  0.00000000000E+00 0. -1.
        -13    1    3    3    0    0  0.14602885093E+03  0.59564488974E+01  0.45684386978E+03  0.47965219268E+03  0.00000000000E+00 0.  1.
          2    1    6    6  502    0 -0.42385349237E+02  0.85544525408E+02  0.39733996491E+02  0.10340780500E+03  0.00000000000E+00 0. -1.
          3    1    5    5  503    0  0.53101722185E+02 -0.98969548557E+02 -0.16594209140E+03  0.20037849720E+03  0.00000000000E+00 0. -1.
         -4    1    5    5    0  503 -0.78331197200E+01 -0.20490729400E+03 -0.29232270928E+03  0.35707271424E+03  0.00000000000E+00 0.  1.
         -1    1    6    6    0  502 -0.18988612755E+03  0.16878755370E+03  0.15656467624E+03  0.29842667033E+03  0.00000000000E+00 0.  1.
<mgrwt>
<rscale>  0 0.17166908E+04</rscale>
<asrwt>0</asrwt>
<pdfrwt beam="1">  1        1 0.96076277E-01 0.17166908E+04</pdfrwt>
<pdfrwt beam="2">  1       -1 0.18150195E+00 0.17166908E+04</pdfrwt>
<totfact> 0.62320753E+00</totfact>
</mgrwt>
</event>
<event>
12    1  0.2404191E-008  0.2736472E+04  0.7818608E-02  0.8323267E-01
          2   -1    0    0  501    0  0.00000000000E+00  0.00000000000E+00  0.35243450060E+04  0.35243450060E+04  0.00000000000E+00 0. -1.
         -2   -1    0    0    0  501 -0.00000000000E+00 -0.00000000000E+00 -0.53118219570E+03  0.53118219570E+03  0.00000000000E+00 0.  1.
         23    2    1    2    0    0 -0.27618014692E+03  0.52017218656E+03 -0.24134740540E+03  0.64260485164E+03  0.88531621611E+02 0.  0.
        254    2    1    2    0    0  0.27618014692E+03 -0.52017218656E+03  0.32345102157E+04  0.34129223501E+04  0.91603933037E+03 0.  0.
        -24    2    4    4    0    0  0.36358410671E+03  0.52479681634E+02  0.21439534026E+04  0.21766604930E+04  0.79794671725E+02 0.  0.
         24    2    4    4    0    0 -0.87403959784E+02 -0.57265186820E+03  0.10905568131E+04  0.12362618570E+04  0.58818383654E+02 0.  0.
         11    1    3    3    0    0 -0.22689738567E+01  0.14277870079E+02 -0.23218626587E+02  0.27351607575E+02  0.00000000000E+00 0. -1.
        -11    1    3    3    0    0 -0.27391117306E+03  0.50589431648E+03 -0.21812877882E+03  0.61525324406E+03  0.00000000000E+00 0.  1.
          4    1    6    6  502    0 -0.82745358658E+02 -0.57138122442E+03  0.10833422925E+04  0.12275804742E+04  0.00000000000E+00 0. -1.
          1    1    5    5  503    0  0.21196975063E+03  0.70042025019E+02  0.12561992857E+04  0.12758815407E+04  0.00000000000E+00 0. -1.
         -2    1    5    5    0  503  0.15161435607E+03 -0.17562343385E+02  0.88775411692E+03  0.90077895234E+03  0.00000000000E+00 0.  1.
         -3    1    6    6    0  502 -0.46586011261E+01 -0.12706437751E+01  0.72145205908E+01  0.86813828051E+01  0.00000000000E+00 0.  1.
<mgrwt>
<rscale>  0 0.27364717E+04</rscale>
<asrwt>0</asrwt>
<pdfrwt beam="1">  1        2 0.54220691E+00 0.27364717E+04</pdfrwt>
<pdfrwt beam="2">  1       -2 0.81720340E-01 0.27364717E+04</pdfrwt>
<totfact> 0.90077934E-01</totfact>
</mgrwt>
</event>
<event>
11    1  0.2404191E-008  0.1405464E+04  0.7818608E-02  0.8949873E-01
          2   -1    0    0  501    0  0.00000000000E+00  0.00000000000E+00  0.11659694924E+04  0.11659694924E+04  0.00000000000E+00 0. -1.
         -2   -1    0    0    0  501 -0.00000000000E+00 -0.00000000000E+00 -0.42353779395E+03  0.42353779395E+03  0.00000000000E+00 0.  1.
         23    2    1    2    0    0  0.38341536699E+03 -0.26329584213E+02  0.38384861616E+03  0.55115437843E+03  0.93438739755E+02 0.  0.
        254    2    1    2    0    0 -0.38341536699E+03  0.26329584213E+02  0.35858308225E+03  0.10383529079E+04  0.89548553520E+03 0.  0.
        -24    2    4    4    0    0  0.43173277754E+02 -0.17207458286E+03 -0.21305165561E+03  0.28916993964E+03  0.82186690257E+02 0.  0.
         13    1    3    3    0    0  0.38023057843E+03 -0.17851134896E+02  0.38570832474E+03  0.54190854169E+03  0.00000000000E+00 0. -1.
        -13    1    3    3    0    0  0.31847885676E+01 -0.84784493168E+01 -0.18597085784E+01  0.92458367407E+01  0.00000000000E+00 0.  1.
          2    1    4    4  502    0 -0.17182866308E+03  0.13203251109E+03  0.30815521325E+03  0.37671913794E+03  0.00000000000E+00 0. -1.
          3    1    5    5  503    0  0.48225270958E+02 -0.53071787773E+02 -0.50748125307E+02  0.87850234141E+02  0.00000000000E+00 0. -1.
         -4    1    5    5    0  503 -0.50519932036E+01 -0.11900279509E+03 -0.16230353031E+03  0.20131970550E+03  0.00000000000E+00 0.  1.
         -1    1    4    4    0  502 -0.25475998167E+03  0.66371655987E+02  0.26347952461E+03  0.37246383028E+03  0.00000000000E+00 0.  1.
<mgrwt>
<rscale>  0 0.14054638E+04</rscale>
<asrwt>0</asrwt>
<pdfrwt beam="1">  1        2 0.17937992E+00 0.14054638E+04</pdfrwt>
<pdfrwt beam="2">  1       -2 0.65159661E-01 0.14054638E+04</pdfrwt>
<totfact> 0.41953567E+01</totfact>
</mgrwt>
</event>
<event>
12    1  0.2404191E-008  0.1584314E+04  0.7818608E-02  0.8830243E-01
          1   -1    0    0  501    0  0.00000000000E+00  0.00000000000E+00  0.50790092858E+03  0.50790092858E+03  0.00000000000E+00 0. -1.
         -1   -1    0    0    0  501 -0.00000000000E+00 -0.00000000000E+00 -0.12355024792E+04  0.12355024792E+04  0.00000000000E+00 0.  1.
         23    2    1    2    0    0 -0.10789947303E+02 -0.33633004566E+03  0.19822044819E+03  0.40113472568E+03  0.91560905907E+02 0.  0.
        254    2    1    2    0    0  0.10789947303E+02  0.33633004566E+03 -0.92582199877E+03  0.13422686821E+04  0.91175902455E+03 0.  0.
        -24    2    4    4    0    0  0.24592204591E+03  0.54581972721E+03 -0.76212683632E+03  0.97247924202E+03  0.80509218344E+02 0.  0.
         24    2    4    4    0    0 -0.23513209861E+03 -0.20948968155E+03 -0.16369516245E+03  0.36978944004E+03  0.10380314677E+03 0.  0.
         13    1    3    3    0    0  0.23312190047E+02 -0.80188886345E+02  0.16212308584E+02  0.85067941362E+02  0.00000000000E+00 0.  1.
        -13    1    3    3    0    0 -0.34102137351E+02 -0.25614115932E+03  0.18200813960E+03  0.31606678432E+03  0.00000000000E+00 0. -1.
          4    1    6    6  502    0 -0.10948908560E+03 -0.13715369817E+03 -0.41869996507E+02  0.18042198701E+03  0.00000000000E+00 0. -1.
          3    1    5    5  503    0  0.16865530821E+03  0.45008321157E+03 -0.62041997797E+03  0.78481874301E+03  0.00000000000E+00 0. -1.
         -4    1    5    5    0  503  0.77266737704E+02  0.95736515645E+02 -0.14170685835E+03  0.18766049900E+03  0.00000000000E+00 0.  1.
         -3    1    6    6    0  502 -0.12564301301E+03 -0.72335983375E+02 -0.12182516594E+03  0.18936745303E+03  0.00000000000E+00 0.  1.
<mgrwt>
<rscale>  0 0.15843142E+04</rscale>
<asrwt>0</asrwt>
<pdfrwt beam="1">  1        1 0.78138605E-01 0.15843142E+04</pdfrwt>
<pdfrwt beam="2">  1       -1 0.19007730E+00 0.15843142E+04</pdfrwt>
<totfact> 0.73521636E+00</totfact>
</mgrwt>
</event>
<event>
12    1  0.2404191E-008  0.1651109E+04  0.7818608E-02  0.8789751E-01
          2   -1    0    0  501    0  0.00000000000E+00  0.00000000000E+00  0.36235979455E+04  0.36235979455E+04  0.00000000000E+00 0. -1.
         -2   -1    0    0    0  501 -0.00000000000E+00 -0.00000000000E+00 -0.18808382702E+03  0.18808382702E+03  0.00000000000E+00 0.  1.
         23    2    1    2    0    0 -0.13766363288E+03  0.26174015353E+02 -0.73080525167E+02  0.18307708178E+03  0.92412660478E+02 0.  0.
        254    2    1    2    0    0  0.13766363288E+03 -0.26174015353E+02  0.35085946437E+04  0.36286046907E+04  0.91482198995E+03 0.  0.
        -24    2    4    4    0    0  0.45679029675E+03 -0.81021047190E+02  0.11021463101E+04  0.11984861903E+04  0.80130357650E+02 0.  0.
         24    2    4    4    0    0 -0.31912666386E+03  0.54847031837E+02  0.24064483336E+04  0.24301185004E+04  0.98144381164E+02 0.  0.
         13    1    3    3    0    0 -0.12407183136E+03  0.13011054241E+02 -0.19516615688E+02  0.12626957336E+03  0.00000000000E+00 0.  1.
        -13    1    3    3    0    0 -0.13591801522E+02  0.13162961112E+02 -0.53563909479E+02  0.56807508417E+02  0.00000000000E+00 0. -1.
          2    1    6    6  502    0 -0.17056227445E+03  0.29146777456E+02  0.92731214921E+03  0.94331799843E+03  0.00000000000E+00 0. -1.
          3    1    5    5  503    0  0.22599155884E+03 -0.15600381186E+02  0.61698956882E+03  0.65726074323E+03  0.00000000000E+00 0. -1.
         -4    1    5    5    0  503  0.23079873791E+03 -0.65420666004E+02  0.48515674126E+03  0.54122544706E+03  0.00000000000E+00 0.  1.
         -1    1    6    6    0  502 -0.14856438941E+03  0.25700254381E+02  0.14791361844E+04  0.14868005020E+04  0.00000000000E+00 0.  1.
<mgrwt>
<rscale>  0 0.16511089E+04</rscale>
<asrwt>0</asrwt>
<pdfrwt beam="1">  1        2 0.55747656E+00 0.16511089E+04</pdfrwt>
<pdfrwt beam="2">  1       -2 0.28935976E-01 0.16511089E+04</pdfrwt>
<totfact> 0.70427399E+00</totfact>
</mgrwt>
</event>
<event>
11    1  0.2404191E-008  0.1778753E+04  0.7818608E-02  0.8717681E-01
          2   -1    0    0  501    0  0.00000000000E+00  0.00000000000E+00  0.39101148258E+03  0.39101148258E+03  0.00000000000E+00 0. -1.
         -2   -1    0    0    0  501 -0.00000000000E+00 -0.00000000000E+00 -0.20229335939E+04  0.20229335939E+04  0.00000000000E+00 0.  1.
         23    2    1    2    0    0  0.48830704034E+03  0.36519050256E+03 -0.25991509259E+03  0.67023912548E+03  0.99281222648E+02 0.  0.
        254    2    1    2    0    0 -0.48830704034E+03 -0.36519050256E+03 -0.13720070187E+04  0.17437059510E+04  0.88673520023E+03 0.  0.
        -24    2    4    4    0    0  0.16731101715E+03 -0.10866017140E+03 -0.24584974591E+02  0.21933085373E+03  0.87758721009E+02 0.  0.
         13    1    3    3    0    0  0.20138966871E+03  0.13669459097E+03 -0.15568568272E+03  0.28893120577E+03  0.00000000000E+00 0. -1.
        -13    1    3    3    0    0  0.28691737163E+03  0.22849591159E+03 -0.10422940987E+03  0.38130791971E+03  0.00000000000E+00 0.  1.
          4    1    4    4  502    0 -0.15592201810E+03 -0.64600770439E+02 -0.22920109382E+03  0.28463674513E+03  0.00000000000E+00 0. -1.
          1    1    5    5  503    0  0.74092844296E+02 -0.29845886923E+02 -0.50549313031E+02  0.94529146775E+02  0.00000000000E+00 0. -1.
         -2    1    5    5    0  503  0.93218172851E+02 -0.78814284479E+02  0.25964338439E+02  0.12480170695E+03  0.00000000000E+00 0.  1.
         -3    1    4    4    0  502 -0.49969603938E+03 -0.19192956072E+03 -0.11182209503E+04  0.12397383522E+04  0.00000000000E+00 0.  1.
<mgrwt>
<rscale>  0 0.17787527E+04</rscale>
<asrwt>0</asrwt>
<pdfrwt beam="1">  1        2 0.60155612E-01 0.17787527E+04</pdfrwt>
<pdfrwt beam="2">  1       -2 0.31122056E+00 0.17787527E+04</pdfrwt>
<totfact> 0.20974056E+00</totfact>
</mgrwt>
</event>
<event>
12    1  0.2404191E-008  0.1922264E+04  0.7818608E-02  0.8643853E-01
         -1   -1    0    0    0  501 -0.00000000000E+00  0.00000000000E+00  0.30016414953E+03  0.30016414953E+03  0.00000000000E+00 0.  1.
          1   -1    0    0  501    0  0.00000000000E+00 -0.00000000000E+00 -0.30775663558E+04  0.30775663558E+04  0.00000000000E+00 0. -1.
         23    2    1    2    0    0 -0.13012810544E+03 -0.67731380174E+03 -0.14564353273E+04  0.16140990607E+04  0.91785648975E+02 0.  0.
        254    2    1    2    0    0  0.13012810544E+03  0.67731380174E+03 -0.13209668789E+04  0.17636314446E+04  0.94326829015E+03 0.  0.
        -24    2    4    4    0    0 -0.14836708175E+03  0.17541360012E+03  0.73258365740E+02  0.25456870672E+03  0.81582573126E+02 0.  0.
         24    2    4    4    0    0  0.27849518719E+03  0.50190020162E+03 -0.13942252447E+04  0.15090627379E+04  0.62792771981E+02 0.  0.
         13    1    3    3    0    0 -0.40589817046E+02 -0.11777119677E+03 -0.19738400281E+03  0.23340529686E+03  0.00000000000E+00 0.  1.
        -13    1    3    3    0    0 -0.89538288397E+02 -0.55954260497E+03 -0.12590513245E+04  0.13806937639E+04  0.00000000000E+00 0. -1.
          4    1    6    6  502    0  0.26329893734E+02  0.28591203769E+02 -0.13273697040E+03  0.13831060534E+03  0.00000000000E+00 0. -1.
          3    1    5    5  503    0 -0.12310679244E+03  0.12974826059E+03  0.19946440387E+02  0.17996598000E+03  0.00000000000E+00 0. -1.
         -4    1    5    5    0  503 -0.25260289305E+02  0.45665339529E+02  0.53311925353E+02  0.74602726726E+02  0.00000000000E+00 0.  1.
         -3    1    6    6    0  502  0.25216529346E+03  0.47330899785E+03 -0.12614882743E+04  0.13707521325E+04  0.00000000000E+00 0.  1.
<mgrwt>
<rscale>  0 0.19222644E+04</rscale>
<asrwt>0</asrwt>
<pdfrwt beam="1">  1        1 0.47347178E+00 0.19222644E+04</pdfrwt>
<pdfrwt beam="2">  1       -1 0.46179097E-01 0.19222644E+04</pdfrwt>
<totfact> 0.22904946E+00</totfact>
</mgrwt>
</event>
<event>
12    1  0.2404191E-008  0.1935158E+04  0.7818608E-02  0.8637551E-01
          2   -1    0    0  501    0  0.00000000000E+00  0.00000000000E+00  0.13833497636E+04  0.13833497636E+04  0.00000000000E+00 0.  1.
         -2   -1    0    0    0  501 -0.00000000000E+00 -0.00000000000E+00 -0.67676987095E+03  0.67676987095E+03  0.00000000000E+00 0. -1.
         23    2    1    2    0    0  0.43973669381E+03 -0.12040574258E+03 -0.36221412698E+03  0.58954503874E+03  0.92186637787E+02 0.  0.
        254    2    1    2    0    0 -0.43973669381E+03  0.12040574258E+03  0.10687940197E+04  0.14705745958E+04  0.90133405723E+03 0.  0.
        -24    2    4    4    0    0 -0.44438967724E+03 -0.29928095631E+03  0.79062587279E+03  0.95834353228E+03  0.79257675200E+02 0.  0.
         24    2    4    4    0    0  0.46529834340E+01  0.41968669889E+03  0.27816814687E+03  0.51223106355E+03  0.94045569067E+02 0.  0.
         11    1    3    3    0    0  0.31569765589E+03 -0.11900381376E+03 -0.29656846138E+03  0.44919903151E+03  0.00000000000E+00 0. -1.
        -11    1    3    3    0    0  0.12403903792E+03 -0.14019288203E+01 -0.65645665601E+02  0.14034600723E+03  0.00000000000E+00 0.  1.
          2    1    6    6  502    0  0.66272266870E+01  0.32190342672E+03  0.16217685329E+03  0.36050945620E+03  0.00000000000E+00 0. -1.
          3    1    5    5  503    0 -0.24104128736E+03 -0.17748666947E+03  0.50635800611E+03  0.58821836966E+03  0.00000000000E+00 0. -1.
         -4    1    5    5    0  503 -0.20334838988E+03 -0.12179428685E+03  0.28426786668E+03  0.37012516262E+03  0.00000000000E+00 0.  1.
         -1    1    6    6    0  502 -0.19742432530E+01  0.97783272171E+02  0.11599129358E+03  0.15172160736E+03  0.00000000000E+00 0.  1.
<mgrwt>
<rscale>  0 0.19351583E+04</rscale>
<asrwt>0</asrwt>
<pdfrwt beam="1">  1        2 0.21282304E+00 0.19351583E+04</pdfrwt>
<pdfrwt beam="2">  1       -2 0.10411844E+00 0.19351583E+04</pdfrwt>
<totfact> 0.10364520E+01</totfact>
</mgrwt>
</event>
<event>
11    1  0.2404191E-008  0.1057575E+04  0.7818608E-02  0.9247558E-01
          2   -1    0    0  501    0  0.00000000000E+00  0.00000000000E+00  0.58289751342E+03  0.58289751342E+03  0.00000000000E+00 0. -1.
         -2   -1    0    0    0  501 -0.00000000000E+00 -0.00000000000E+00 -0.47970057904E+03  0.47970057904E+03  0.00000000000E+00 0.  1.
         23    2    1    2    0    0  0.29880858061E+02 -0.64869462723E+02 -0.68459340910E+02  0.13512827788E+03  0.92043779002E+02 0.  0.
        254    2    1    2    0    0 -0.29880858061E+02  0.64869462723E+02  0.17165627529E+03  0.92746981458E+03  0.90864375156E+03 0.  0.
        -24    2    4    4    0    0  0.12549629797E+03  0.42406784368E+03 -0.58250782630E+02  0.45330841414E+03  0.80700110304E+02 0.  0.
         13    1    3    3    0    0 -0.22189361916E+01 -0.31469007167E+01 -0.65376069225E+02  0.65489366231E+02  0.00000000000E+00 0.  1.
        -13    1    3    3    0    0  0.32099794253E+02 -0.61722562006E+02 -0.30832716849E+01  0.69638911651E+02  0.00000000000E+00 0. -1.
          2    1    4    4  502    0 -0.10275894276E+03 -0.32278375498E+03  0.14658119426E+03  0.36909998551E+03  0.00000000000E+00 0. -1.
          3    1    5    5  503    0  0.91181133854E+02  0.36492337182E+03 -0.73485610296E+02  0.38325344277E+03  0.00000000000E+00 0. -1.
         -4    1    5    5    0  503  0.34315164114E+02  0.59144471861E+02  0.15234827666E+02  0.70054971371E+02  0.00000000000E+00 0.  1.
         -1    1    4    4    0  502 -0.52618213273E+02 -0.36414625982E+02  0.83325863656E+02  0.10506141493E+03  0.00000000000E+00 0.  1.
<mgrwt>
<rscale>  0 0.10575751E+04</rscale>
<asrwt>0</asrwt>
<pdfrwt beam="1">  1        2 0.89676541E-01 0.10575751E+04</pdfrwt>
<pdfrwt beam="2">  1       -2 0.73800089E-01 0.10575751E+04</pdfrwt>
<totfact> 0.84653960E+01</totfact>
</mgrwt>
</event>
<event>
11    1  0.2404191E-008  0.1857094E+04  0.7818608E-02  0.8676513E-01
         -1   -1    0    0    0  501 -0.00000000000E+00  0.00000000000E+00  0.32605196966E+03  0.32605196966E+03  0.00000000000E+00 0.  1.
          1   -1    0    0  501    0  0.00000000000E+00 -0.00000000000E+00 -0.26443620139E+04  0.26443620139E+04  0.00000000000E+00 0. -1.
         23    2    1    2    0    0  0.15766002884E+03  0.51856350594E+03 -0.16102959948E+04  0.17015553000E+04  0.92045933100E+02 0.  0.
        254    2    1    2    0    0 -0.15766002884E+03 -0.51856350594E+03 -0.70801404943E+03  0.12688586835E+04  0.90274784417E+03 0.  0.
        -24    2    4    4    0    0  0.14137232445E+03 -0.23194573701E+03 -0.78084633855E+03  0.83074935974E+03  0.81477206943E+02 0.  0.
         13    1    3    3    0    0  0.42941120540E+02  0.90123762171E+02 -0.40864640911E+03  0.42066390387E+03  0.00000000000E+00 0. -1.
        -13    1    3    3    0    0  0.11471890830E+03  0.42843974377E+03 -0.12016495857E+04  0.12808913961E+04  0.00000000000E+00 0.  1.
          2    1    4    4  502    0 -0.53144603056E+02 -0.97624040819E+02  0.63131607236E+02  0.12782958191E+03  0.00000000000E+00 0. -1.
          3    1    5    5  503    0  0.14188712688E+03 -0.20373956677E+03 -0.74406967642E+03  0.78439878328E+03  0.00000000000E+00 0. -1.
         -4    1    5    5    0  503 -0.51480243291E+00 -0.28206170240E+02 -0.36776662127E+02  0.46350576462E+02  0.00000000000E+00 0.  1.
         -1    1    4    4    0  502 -0.24588775023E+03 -0.18899372812E+03  0.97006818816E+01  0.31027974187E+03  0.00000000000E+00 0.  1.
<mgrwt>
<rscale>  0 0.18570939E+04</rscale>
<asrwt>0</asrwt>
<pdfrwt beam="1">  1        1 0.40682493E+00 0.18570939E+04</pdfrwt>
<pdfrwt beam="2">  1       -1 0.50161840E-01 0.18570939E+04</pdfrwt>
<totfact> 0.40287240E+00</totfact>
</mgrwt>
</event>
<event>
11    1  0.2404191E-008  0.1657618E+04  0.7818608E-02  0.8785913E-01
          2   -1    0    0  501    0  0.00000000000E+00  0.00000000000E+00  0.26156171306E+03  0.26156171306E+03  0.00000000000E+00 0. -1.
         -2   -1    0    0    0  501 -0.00000000000E+00 -0.00000000000E+00 -0.26262416166E+04  0.26262416166E+04  0.00000000000E+00 0.  1.
         23    2    1    2    0    0  0.66105434692E+02 -0.38552556383E+03 -0.15663705381E+04  0.16176133481E+04  0.10077892901E+03 0.  0.
        254    2    1    2    0    0 -0.66105434692E+02  0.38552556383E+03 -0.79830936547E+03  0.12701899816E+04  0.90724024237E+03 0.  0.
        -24    2    4    4    0    0 -0.10758272006E+03  0.14892754546E+03  0.17020379986E+03  0.26448899982E+03  0.85039062128E+02 0.  0.
         11    1    3    3    0    0  0.70591920883E+02 -0.34408863722E+03 -0.14874727557E+04  0.15283832662E+04  0.00000000000E+00 0.  1.
        -11    1    3    3    0    0 -0.44864861918E+01 -0.41436926608E+02 -0.78897782353E+02  0.89230081841E+02  0.00000000000E+00 0. -1.
          2    1    4    4  502    0 -0.41441527771E+02  0.40059232007E+02 -0.20416715185E+03  0.21214704378E+03  0.00000000000E+00 0. -1.
          1    1    5    5  503    0  0.32768970333E+01  0.32636922027E+02  0.35367863660E+01  0.32991144135E+02  0.00000000000E+00 0. -1.
         -4    1    5    5    0  503 -0.11085961709E+03  0.11629062343E+03  0.16666701349E+03  0.23149785568E+03  0.00000000000E+00 0.  1.
         -1    1    4    4    0  502  0.82918813139E+02  0.19653878636E+03 -0.76434601348E+03  0.79355393795E+03  0.00000000000E+00 0.  1.
<mgrwt>
<rscale>  0 0.16576179E+04</rscale>
<asrwt>0</asrwt>
<pdfrwt beam="1">  1        2 0.40240263E-01 0.16576179E+04</pdfrwt>
<pdfrwt beam="2">  1       -2 0.40403718E+00 0.16576179E+04</pdfrwt>
<totfact> 0.85884626E-01</totfact>
</mgrwt>
</event>
<event>
11    1  0.2404191E-008  0.2233504E+04  0.7818608E-02  0.8504611E-01
         -2   -1    0    0    0  501 -0.00000000000E+00  0.00000000000E+00  0.78554573615E+03  0.78554573615E+03  0.00000000000E+00 0.  1.
          2   -1    0    0  501    0  0.00000000000E+00 -0.00000000000E+00 -0.15876030421E+04  0.15876030421E+04  0.00000000000E+00 0. -1.
         23    2    1    2    0    0  0.59075663636E+02  0.81319352681E+03 -0.82549871754E+03  0.11633941518E+04  0.85230122322E+02 0.  0.
        254    2    1    2    0    0 -0.59075663636E+02 -0.81319352681E+03  0.23441411580E+02  0.12097546264E+04  0.89341094148E+03 0.  0.
        -24    2    4    4    0    0  0.28905160481E+03 -0.27760120592E+03 -0.27515480169E+03  0.49260555916E+03  0.79604096947E+02 0.  0.
         13    1    3    3    0    0 -0.94749391736E+01  0.31886284629E+03 -0.28559967682E+03  0.42817106934E+03  0.00000000000E+00 0.  1.
        -13    1    3    3    0    0  0.68550602810E+02  0.49433068052E+03 -0.53989904071E+03  0.73522308248E+03  0.00000000000E+00 0. -1.
          4    1    4    4  502    0 -0.20696522035E+02 -0.45888408761E+02  0.67848551708E+02  0.84483833079E+02  0.00000000000E+00 0. -1.
          1    1    5    5  503    0  0.52437383896E+02 -0.13840775312E+02 -0.34747571272E+02  0.64409937125E+02  0.00000000000E+00 0. -1.
         -2    1    5    5    0  503  0.23661422092E+03 -0.26376043060E+03 -0.24040723042E+03  0.42819562204E+03  0.00000000000E+00 0.  1.
         -3    1    4    4    0  502 -0.32743074641E+03 -0.48970391213E+03  0.23074766157E+03  0.63266523420E+03  0.00000000000E+00 0.  1.
<mgrwt>
<rscale>  0 0.22335038E+04</rscale>
<asrwt>0</asrwt>
<pdfrwt beam="1">  1        2 0.24424662E+00 0.22335038E+04</pdfrwt>
<pdfrwt beam="2">  1       -2 0.12085319E+00 0.22335038E+04</pdfrwt>
<totfact> 0.53897403E+00</totfact>
</mgrwt>
</event>
<event>
12    1  0.2404191E-008  0.1306263E+04  0.7818608E-02  0.9024614E-01
         -2   -1    0    0    0  501 -0.00000000000E+00  0.00000000000E+00  0.31991948974E+03  0.31991948974E+03  0.00000000000E+00 0. -1.
          2   -1    0    0  501    0  0.00000000000E+00 -0.00000000000E+00 -0.13333995731E+04  0.13333995731E+04  0.00000000000E+00 0.  1.
         23    2    1    2    0    0  0.19784156036E+03  0.19845914027E+03 -0.32500416638E+02  0.29641064698E+03  0.90970771128E+02 0.  0.
        254    2    1    2    0    0 -0.19784156036E+03 -0.19845914027E+03 -0.98097966675E+03  0.13569084159E+04  0.89462395964E+03 0.  0.
        -24    2    4    4    0    0 -0.38173973885E+03  0.23618274233E+03 -0.47026845401E+03  0.65496953741E+03  0.79530875184E+02 0.  0.
         24    2    4    4    0    0  0.18389817849E+03 -0.43464188260E+03 -0.51071121274E+03  0.70193887848E+03  0.95708621020E+02 0.  0.
         13    1    3    3    0    0 -0.23769128034E+00 -0.45195645146E+01 -0.11106146943E+02  0.11992892081E+02  0.00000000000E+00 0.  1.
        -13    1    3    3    0    0  0.19807925164E+03  0.20297870478E+03 -0.21394269695E+02  0.28441775490E+03  0.00000000000E+00 0. -1.
          4    1    6    6  502    0  0.65045101324E+02 -0.84251848051E+02 -0.74385157332E+02  0.12985526842E+03  0.00000000000E+00 0. -1.
          1    1    5    5  503    0 -0.39101199792E+02  0.26739608167E+02 -0.91044741698E+02  0.10263067505E+03  0.00000000000E+00 0. -1.
         -2    1    5    5    0  503 -0.34263853906E+03  0.20944313416E+03 -0.37922371231E+03  0.55233886236E+03  0.00000000000E+00 0.  1.
         -3    1    6    6    0  502  0.11885307717E+03 -0.35039003455E+03 -0.43632605541E+03  0.57208361005E+03  0.00000000000E+00 0.  1.
<mgrwt>
<rscale>  0 0.13062626E+04</rscale>
<asrwt>0</asrwt>
<pdfrwt beam="1">  1        2 0.20513840E+00 0.13062626E+04</pdfrwt>
<pdfrwt beam="2">  1       -2 0.49218382E-01 0.13062626E+04</pdfrwt>
<totfact> 0.60506970E+01</totfact>
</mgrwt>
</event>
<event>
12    1  0.2404191E-008  0.1551180E+04  0.7818608E-02  0.8851114E-01
         -2   -1    0    0    0  501 -0.00000000000E+00  0.00000000000E+00  0.20966476067E+03  0.20966476067E+03  0.00000000000E+00 0.  1.
          2   -1    0    0  501    0  0.00000000000E+00 -0.00000000000E+00 -0.28690548973E+04  0.28690548973E+04  0.00000000000E+00 0. -1.
         23    2    1    2    0    0  0.21077363550E+03  0.27594810151E+03 -0.20956722302E+03  0.41551678195E+03  0.90348740843E+02 0.  0.
        254    2    1    2    0    0 -0.21077363550E+03 -0.27594810151E+03 -0.24498229136E+04  0.26632028760E+04  0.98511134933E+03 0.  0.
        -24    2    4    4    0    0 -0.14125474276E+03  0.30949034540E+03 -0.41531152956E+03  0.54301196471E+03  0.81493257332E+02 0.  0.
         24    2    4    4    0    0 -0.69518892740E+02 -0.58543844690E+03 -0.20345113841E+04  0.21201909113E+04  0.91661752901E+02 0.  0.
         13    1    3    3    0    0  0.13850847148E+02  0.57161302162E+02 -0.64715968791E+02  0.87449511423E+02  0.00000000000E+00 0. -1.
        -13    1    3    3    0    0  0.19692278836E+03  0.21878679934E+03 -0.14485125423E+03  0.32806727053E+03  0.00000000000E+00 0.  1.
          4    1    6    6  502    0 -0.39148591019E+02 -0.12286966457E+03 -0.55358094408E+03  0.56840252313E+03  0.00000000000E+00 0. -1.
          1    1    5    5  503    0 -0.76730981784E+02  0.92805228156E+02 -0.18110127163E+03  0.21748131995E+03  0.00000000000E+00 0. -1.
         -2    1    5    5    0  503 -0.64523760981E+02  0.21668511724E+03 -0.23421025792E+03  0.32553064476E+03  0.00000000000E+00 0.  1.
         -3    1    6    6    0  502 -0.30370301720E+02 -0.46256878233E+03 -0.14809304400E+04  0.15517883882E+04  0.00000000000E+00 0.  1.
<mgrwt>
<rscale>  0 0.15511798E+04</rscale>
<asrwt>0</asrwt>
<pdfrwt beam="1">  1        2 0.44139308E+00 0.15511798E+04</pdfrwt>
<pdfrwt beam="2">  1       -2 0.32256116E-01 0.15511798E+04</pdfrwt>
<totfact> 0.18173637E+01</totfact>
</mgrwt>
</event>
<event>
11    1  0.2404191E-008  0.1681326E+04  0.7818608E-02  0.8772087E-01
         -3   -1    0    0    0  501 -0.00000000000E+00  0.00000000000E+00  0.57653419130E+03  0.57653419130E+03  0.00000000000E+00 0.  1.
          3   -1    0    0  501    0  0.00000000000E+00 -0.00000000000E+00 -0.12257977489E+04  0.12257977489E+04  0.00000000000E+00 0. -1.
         23    2    1    2    0    0  0.44098127261E+03 -0.16860406275E+03 -0.63226872301E+03  0.79444293838E+03  0.92108802433E+02 0.  0.
        254    2    1    2    0    0 -0.44098127261E+03  0.16860406275E+03 -0.16994834576E+02  0.10078890018E+04  0.89031432807E+03 0.  0.
        -24    2    4    4    0    0 -0.35836135601E+02 -0.29637095889E+03 -0.19390603792E+03  0.36522082050E+03  0.81649998781E+02 0.  0.
         13    1    3    3    0    0  0.41893884555E+03 -0.17594307286E+03 -0.57659821668E+03  0.73411935315E+03  0.00000000000E+00 0.  1.
        -13    1    3    3    0    0  0.22042427061E+02  0.73390101124E+01 -0.55670506323E+02  0.60323585225E+02  0.00000000000E+00 0. -1.
          2    1    4    4  502    0 -0.27899442371E+03  0.31876247742E+03  0.13929864426E+03  0.44592770464E+03  0.00000000000E+00 0. -1.
          3    1    5    5  503    0 -0.25696105909E+02 -0.84255086915E+02 -0.99309018226E+02  0.13274596277E+03  0.00000000000E+00 0. -1.
         -4    1    5    5    0  503 -0.10140029692E+02 -0.21211587197E+03 -0.94597019696E+02  0.23247485774E+03  0.00000000000E+00 0.  1.
         -1    1    4    4    0  502 -0.12615071329E+03  0.14621254422E+03  0.37612559086E+02  0.19674047665E+03  0.00000000000E+00 0.  1.
<mgrwt>
<rscale>  0 0.16813260E+04</rscale>
<asrwt>0</asrwt>
<pdfrwt beam="1">  1        3 0.18858426E+00 0.16813260E+04</pdfrwt>
<pdfrwt beam="2">  1       -3 0.88697570E-01 0.16813260E+04</pdfrwt>
<totfact> 0.50106322E-01</totfact>
</mgrwt>
</event>
<event>
11    1  0.2404191E-008  0.1886923E+04  0.7818608E-02  0.8661393E-01
         -2   -1    0    0    0  501 -0.00000000000E+00  0.00000000000E+00  0.99787458361E+03  0.99787458361E+03  0.00000000000E+00 0.  1.
          2   -1    0    0  501    0  0.00000000000E+00 -0.00000000000E+00 -0.89201592842E+03  0.89201592842E+03  0.00000000000E+00 0. -1.
         23    2    1    2    0    0 -0.31853436242E+03 -0.57137496313E+03 -0.27922928023E+03  0.71718369260E+03  0.91923715450E+02 0.  0.
        254    2    1    2    0    0  0.31853436242E+03  0.57137496313E+03  0.38508793542E+03  0.11727068194E+04  0.89387643318E+03 0.  0.
        -24    2    4    4    0    0 -0.17257603565E+03 -0.57504254993E+01 -0.13701521223E+03  0.23410547669E+03  0.78845737730E+02 0.  0.
         13    1    3    3    0    0 -0.84710742674E+02 -0.13834296293E+03 -0.27924271250E+02  0.16460391928E+03  0.00000000000E+00 0.  1.
        -13    1    3    3    0    0 -0.23382361974E+03 -0.43303200020E+03 -0.25130500898E+03  0.55257977332E+03  0.00000000000E+00 0. -1.
          4    1    4    4  502    0 -0.45949900734E+01  0.72307271310E+02  0.50834702138E+02  0.88507753104E+02  0.00000000000E+00 0. -1.
          1    1    5    5  503    0 -0.12078061738E+02  0.28817143721E+01  0.10258283326E+02  0.16106403381E+02  0.00000000000E+00 0. -1.
         -4    1    5    5    0  503 -0.16049797391E+03 -0.86321398714E+01 -0.14727349556E+03  0.21799907331E+03  0.00000000000E+00 0.  1.
         -3    1    4    4    0  502  0.49570538814E+03  0.50481811732E+03  0.47126844552E+03  0.85009358964E+03  0.00000000000E+00 0.  1.
<mgrwt>
<rscale>  0 0.18869234E+04</rscale>
<asrwt>0</asrwt>
<pdfrwt beam="1">  1        2 0.13723322E+00 0.18869234E+04</pdfrwt>
<pdfrwt beam="2">  1       -2 0.15351917E+00 0.18869234E+04</pdfrwt>
<totfact> 0.78384315E+00</totfact>
</mgrwt>
</event>
<event>
12    1  0.2404191E-008  0.2061821E+04  0.7818608E-02  0.8578251E-01
          4   -1    0    0  501    0  0.00000000000E+00  0.00000000000E+00  0.97516073041E+03  0.97516073041E+03  0.00000000000E+00 0.  1.
         -4   -1    0    0    0  501 -0.00000000000E+00 -0.00000000000E+00 -0.10898470176E+04  0.10898470176E+04  0.00000000000E+00 0. -1.
         23    2    1    2    0    0 -0.77629848661E+03 -0.23351641386E+03  0.13641780330E+03  0.82702619179E+03  0.90516567485E+02 0.  0.
        254    2    1    2    0    0  0.77629848661E+03  0.23351641386E+03 -0.25110409044E+03  0.12379815562E+04  0.90131892988E+03 0.  0.
        -24    2    4    4    0    0 -0.75123218512E+02  0.22878169702E+03  0.14680238470E+03  0.29278487966E+03  0.78660554004E+02 0.  0.
         24    2    4    4    0    0  0.85142170512E+03  0.47347168452E+01 -0.39790647514E+03  0.94519667652E+03  0.10062731660E+03 0.  0.
         13    1    3    3    0    0 -0.28293689214E+03 -0.82920153871E+02  0.93962339922E+02  0.30944782788E+03  0.00000000000E+00 0. -1.
        -13    1    3    3    0    0 -0.49336159447E+03 -0.15059625999E+03  0.42455463374E+02  0.51757836391E+03  0.00000000000E+00 0.  1.
          2    1    6    6  502    0  0.67496516427E+03  0.12935459667E+02 -0.35783253209E+03  0.76406113637E+03  0.00000000000E+00 0. -1.
          1    1    5    5  503    0 -0.81073231746E+02  0.21106381880E+03  0.15310525659E+03  0.27306047701E+03  0.00000000000E+00 0. -1.
         -2    1    5    5    0  503  0.59500132344E+01  0.17717878215E+02 -0.63028718831E+01  0.19724402650E+02  0.00000000000E+00 0.  1.
         -1    1    6    6    0  502  0.17645654085E+03 -0.82007428213E+01 -0.40073943054E+02  0.18113554015E+03  0.00000000000E+00 0.  1.
<mgrwt>
<rscale>  0 0.20618206E+04</rscale>
<asrwt>0</asrwt>
<pdfrwt beam="1">  1        4 0.15002473E+00 0.20618206E+04</pdfrwt>
<pdfrwt beam="2">  1       -4 0.16766877E+00 0.20618206E+04</pdfrwt>
<totfact> 0.12100406E-01</totfact>
</mgrwt>
</event>
<event>
12    1  0.2404191E-008  0.2581412E+04  0.7818608E-02  0.8374543E-01
         -2   -1    0    0    0  501 -0.00000000000E+00  0.00000000000E+00  0.18745325028E+04  0.18745325028E+04  0.00000000000E+00 0.  1.
          2   -1    0    0  501    0  0.00000000000E+00 -0.00000000000E+00 -0.88871301177E+03  0.88871301177E+03  0.00000000000E+00 0. -1.
         23    2    1    2    0    0  0.11125054969E+04  0.17380015419E+02  0.93310059256E+02  0.11202952289E+04  0.91564660920E+02 0.  0.
        254    2    1    2    0    0 -0.11125054969E+04 -0.17380015419E+02  0.89250943175E+03  0.16429502856E+04  0.81531712210E+03 0.  0.
        -24    2    4    4    0    0 -0.14261837296E+03  0.25701289063E+03  0.17977918824E+02  0.30533605280E+03  0.80692461328E+02 0.  0.
         24    2    4    4    0    0 -0.96988712398E+03 -0.27439290605E+03  0.87453151292E+03  0.13376142328E+04  0.91836640764E+02 0.  0.
         13    1    3    3    0    0  0.43625052771E+03  0.35029072936E+02  0.18745115476E+01  0.43765862573E+03  0.00000000000E+00 0. -1.
        -13    1    3    3    0    0  0.67625496923E+03 -0.17649057517E+02  0.91435547708E+02  0.68263660320E+03  0.00000000000E+00 0.  1.
          4    1    6    6  502    0 -0.77756872857E+03 -0.25077922174E+03  0.67887156102E+03  0.10622475898E+04  0.00000000000E+00 0. -1.
          1    1    5    5  503    0 -0.15298656065E+03  0.23550639372E+03  0.18628707183E+02  0.28145191056E+03  0.00000000000E+00 0. -1.
         -2    1    5    5    0  503  0.10368187686E+02  0.21506496908E+02 -0.65078835917E+00  0.23884142242E+02  0.00000000000E+00 0.  1.
         -3    1    6    6    0  502 -0.19231839541E+03 -0.23613684312E+02  0.19565995190E+03  0.27536664300E+03  0.00000000000E+00 0.  1.
<mgrwt>
<rscale>  0 0.25814116E+04</rscale>
<asrwt>0</asrwt>
<pdfrwt beam="1">  1        2 0.13672508E+00 0.25814116E+04</pdfrwt>
<pdfrwt beam="2">  1       -2 0.28838962E+00 0.25814116E+04</pdfrwt>
<totfact> 0.98963161E-01</totfact>
</mgrwt>
</event>
<event>
12    1  0.2404191E-008  0.1100038E+04  0.7818608E-02  0.9205155E-01
         -1   -1    0    0    0  501 -0.00000000000E+00  0.00000000000E+00  0.36293311528E+03  0.36293311528E+03  0.00000000000E+00 0.  1.
          1   -1    0    0  501    0  0.00000000000E+00 -0.00000000000E+00 -0.83354492104E+03  0.83354492104E+03  0.00000000000E+00 0. -1.
         23    2    1    2    0    0 -0.80398149321E+02 -0.13116150764E+03  0.24122551766E+02  0.18032506265E+03  0.90928693014E+02 0.  0.
        254    2    1    2    0    0  0.80398149321E+02  0.13116150764E+03 -0.49473435753E+03  0.10161529737E+04  0.87414963129E+03 0.  0.
        -24    2    4    4    0    0  0.21934966996E+03  0.68873016342E+02  0.18931680474E+03  0.30862142563E+03  0.80923184013E+02 0.  0.
         24    2    4    4    0    0 -0.13895152064E+03  0.62288491303E+02 -0.68405116228E+03  0.70753154804E+03  0.97403889171E+02 0.  0.
         11    1    3    3    0    0 -0.44554946118E+02 -0.11329860825E+03 -0.16998051176E+02  0.12292539037E+03  0.00000000000E+00 0. -1.
        -11    1    3    3    0    0 -0.35843203203E+02 -0.17862899394E+02  0.41120602942E+02  0.57399672272E+02  0.00000000000E+00 0.  1.
          4    1    6    6  502    0 -0.12666868954E+03  0.11293788743E+02 -0.44642728946E+03  0.46418728046E+03  0.00000000000E+00 0. -1.
          3    1    5    5  503    0  0.16659981145E+03  0.30470975917E+02  0.95764585514E+02  0.19456318611E+03  0.00000000000E+00 0. -1.
         -4    1    5    5    0  503  0.52749858507E+02  0.38402040424E+02  0.93552219229E+02  0.11405823953E+03  0.00000000000E+00 0.  1.
         -3    1    6    6    0  502 -0.12282831104E+02  0.50994702559E+02 -0.23762387282E+03  0.24334426758E+03  0.00000000000E+00 0.  1.
<mgrwt>
<rscale>  0 0.11000383E+04</rscale>
<asrwt>0</asrwt>
<pdfrwt beam="1">  1        1 0.12823768E+00 0.11000383E+04</pdfrwt>
<pdfrwt beam="2">  1       -1 0.55835864E-01 0.11000383E+04</pdfrwt>
<totfact> 0.66862177E+01</totfact>
</mgrwt>
</event>
<event>
12    1  0.2404191E-008  0.1745423E+04  0.7818608E-02  0.8735874E-01
          1   -1    0    0  501    0  0.00000000000E+00  0.00000000000E+00  0.65279084987E+03  0.65279084987E+03  0.00000000000E+00 0. -1.
         -1   -1    0    0    0  501 -0.00000000000E+00 -0.00000000000E+00 -0.11667222462E+04  0.11667222462E+04  0.00000000000E+00 0.  1.
         23    2    1    2    0    0  0.40763668850E+03  0.47926849448E+03 -0.30715797367E+03  0.70599654173E+03  0.90659453680E+02 0.  0.
        254    2    1    2    0    0 -0.40763668850E+03 -0.47926849448E+03 -0.20677342266E+03  0.11135165543E+04  0.89515245006E+03 0.  0.
        -24    2    4    4    0    0 -0.44937534427E+03  0.12638368554E+03 -0.30989421389E+02  0.47479340029E+03  0.80977729693E+02 0.  0.
         24    2    4    4    0    0  0.41738655770E+02 -0.60565218002E+03 -0.17578400127E+03  0.63872315405E+03  0.92252771606E+02 0.  0.
         11    1    3    3    0    0  0.40382946348E+03  0.47562805263E+03 -0.31307005691E+03  0.69807817654E+03  0.00000000000E+00 0.  1.
        -11    1    3    3    0    0  0.38072250220E+01  0.36404418435E+01  0.59120832376E+01  0.79183651970E+01  0.00000000000E+00 0. -1.
          2    1    6    6  502    0  0.63243305821E+02 -0.55730130972E+03 -0.16581095409E+03  0.58487412153E+03  0.00000000000E+00 0. -1.
          1    1    5    5  503    0 -0.37488707445E+03  0.13426004367E+03 -0.16800542091E+02  0.39855782031E+03  0.00000000000E+00 0. -1.
         -2    1    5    5    0  503 -0.74488269824E+02 -0.78763581281E+01 -0.14188879298E+02  0.76235579978E+02  0.00000000000E+00 0.  1.
         -1    1    6    6    0  502 -0.21504650051E+02 -0.48350870304E+02 -0.99730471759E+01  0.53849032516E+02  0.00000000000E+00 0.  1.
<mgrwt>
<rscale>  0 0.17454233E+04</rscale>
<asrwt>0</asrwt>
<pdfrwt beam="1">  1        1 0.10042936E+00 0.17454233E+04</pdfrwt>
<pdfrwt beam="2">  1       -1 0.17949573E+00 0.17454233E+04</pdfrwt>
<totfact> 0.60199236E+00</totfact>
</mgrwt>
</event>
<event>
12    1  0.2404191E-008  0.2715245E+04  0.7818608E-02  0.8330075E-01
          2   -1    0    0  501    0  0.00000000000E+00  0.00000000000E+00  0.11897842095E+04  0.11897842095E+04  0.00000000000E+00 0. -1.
         -2   -1    0    0    0  501 -0.00000000000E+00 -0.00000000000E+00 -0.15491370569E+04  0.15491370569E+04  0.00000000000E+00 0.  1.
         23    2    1    2    0    0 -0.49018061805E+03 -0.10669120281E+04 -0.45366727029E+03  0.12625691447E+04  0.98430376695E+02 0.  0.
        254    2    1    2    0    0  0.49018061805E+03  0.10669120281E+04  0.94314422913E+02  0.14763521216E+04  0.89002363045E+03 0.  0.
        -24    2    4    4    0    0  0.68483272845E+03  0.47604434915E+03 -0.11359050707E+02  0.83827088463E+03  0.83396400762E+02 0.  0.
         24    2    4    4    0    0 -0.19465211040E+03  0.59086767891E+03  0.10567347362E+03  0.63808123702E+03  0.94692787148E+02 0.  0.
         11    1    3    3    0    0 -0.65601404970E+01 -0.22188050411E+02  0.44003387896E+01  0.23552239932E+02  0.00000000000E+00 0. -1.
        -11    1    3    3    0    0 -0.48362047755E+03 -0.10447239777E+04 -0.45806760908E+03  0.12390169048E+04  0.00000000000E+00 0.  1.
          4    1    6    6  502    0 -0.12329647822E+03  0.40173472797E+03  0.11512753827E+03  0.43571454333E+03  0.00000000000E+00 0. -1.
          3    1    5    5  503    0  0.88074007865E+02  0.80545672371E+02 -0.26222024274E+02  0.12219750716E+03  0.00000000000E+00 0. -1.
         -4    1    5    5    0  503  0.59675872058E+03  0.39549867678E+03  0.14862973568E+02  0.71607337747E+03  0.00000000000E+00 0.  1.
         -3    1    6    6    0  502 -0.71355632181E+02  0.18913295094E+03 -0.94540646503E+01  0.20236669369E+03  0.00000000000E+00 0.  1.
<mgrwt>
<rscale>  0 0.27152450E+04</rscale>
<asrwt>0</asrwt>
<pdfrwt beam="1">  1        2 0.18304373E+00 0.27152450E+04</pdfrwt>
<pdfrwt beam="2">  1       -2 0.23832878E+00 0.27152450E+04</pdfrwt>
<totfact> 0.12768924E+00</totfact>
</mgrwt>
</event>
<event>
11    1  0.2404191E-008  0.1641572E+04  0.7818608E-02  0.8795408E-01
          1   -1    0    0  501    0  0.00000000000E+00  0.00000000000E+00  0.91488478937E+03  0.91488478937E+03  0.00000000000E+00 0. -1.
         -1   -1    0    0    0  501 -0.00000000000E+00 -0.00000000000E+00 -0.73636567775E+03  0.73636567775E+03  0.00000000000E+00 0.  1.
         23    2    1    2    0    0 -0.12857682694E+03  0.55933558368E+03  0.69974953530E+02  0.58508078904E+03  0.89636711149E+02 0.  0.
        254    2    1    2    0    0  0.12857682694E+03 -0.55933558368E+03  0.10854415809E+03  0.10661696781E+04  0.89193478046E+03 0.  0.
        -24    2    4    4    0    0  0.39436749018E+03 -0.19734499198E+02  0.19004318273E+03  0.44542034749E+03  0.79797912816E+02 0.  0.
         11    1    3    3    0    0 -0.12705318291E+03  0.55709261210E+03  0.77920218664E+02  0.57668557310E+03  0.00000000000E+00 0. -1.
        -11    1    3    3    0    0 -0.15236440286E+01  0.22429715783E+01 -0.79452651333E+01  0.83952159391E+01  0.00000000000E+00 0.  1.
          2    1    4    4  502    0 -0.24742633377E+03 -0.41203047549E+03 -0.98932841641E+02  0.49068993319E+03  0.00000000000E+00 0. -1.
          3    1    5    5  503    0  0.37330777675E+03 -0.36062592643E+02  0.16852434512E+03  0.41116865356E+03  0.00000000000E+00 0. -1.
         -4    1    5    5    0  503  0.21059713424E+02  0.16328093445E+02  0.21518837610E+02  0.34251693931E+02  0.00000000000E+00 0.  1.
         -1    1    4    4    0  502 -0.18364329467E+02 -0.12757060899E+03  0.17433816995E+02  0.13005939739E+03  0.00000000000E+00 0.  1.
<mgrwt>
<rscale>  0 0.16415721E+04</rscale>
<asrwt>0</asrwt>
<pdfrwt beam="1">  1        1 0.14075151E+00 0.16415721E+04</pdfrwt>
<pdfrwt beam="2">  1       -1 0.11328703E+00 0.16415721E+04</pdfrwt>
<totfact> 0.12041831E+01</totfact>
</mgrwt>
</event>
<event>
12    1  0.2404191E-008  0.1926307E+04  0.7818608E-02  0.8641871E-01
         -3   -1    0    0    0  501 -0.00000000000E+00  0.00000000000E+00  0.16124572542E+04  0.16124572542E+04  0.00000000000E+00 0.  1.
          3   -1    0    0  501    0  0.00000000000E+00 -0.00000000000E+00 -0.57531131724E+03  0.57531131724E+03  0.00000000000E+00 0. -1.
         23    2    1    2    0    0  0.52017960467E+03  0.11477349946E+03 -0.18394363200E+03  0.57080298295E+03  0.90669776094E+02 0.  0.
        254    2    1    2    0    0 -0.52017960467E+03 -0.11477349946E+03  0.12210895690E+04  0.16169655885E+04  0.91638321770E+03 0.  0.
        -24    2    4    4    0    0 -0.52162488961E+03 -0.40567892799E+03  0.50442399551E+03  0.83601679553E+03  0.88388896847E+02 0.  0.
         24    2    4    4    0    0  0.14452849358E+01  0.29090542854E+03  0.71666557345E+03  0.78094879297E+03  0.10790466102E+03 0.  0.
         11    1    3    3    0    0  0.48337129090E+03  0.12846576644E+03 -0.16155029547E+03  0.52559466891E+03  0.00000000000E+00 0. -1.
        -11    1    3    3    0    0  0.36808313772E+02 -0.13692266987E+02 -0.22393336526E+02  0.45208314045E+02  0.00000000000E+00 0.  1.
          2    1    6    6  502    0 -0.38126774915E+02  0.10542538930E+03  0.35919605533E+03  0.37628442679E+03  0.00000000000E+00 0. -1.
          3    1    5    5  503    0 -0.16753521784E+03 -0.10916419384E+03  0.20032580017E+03  0.28304645669E+03  0.00000000000E+00 0. -1.
         -4    1    5    5    0  503 -0.35408967177E+03 -0.29651473415E+03  0.30409819534E+03  0.55297033884E+03  0.00000000000E+00 0.  1.
         -1    1    6    6    0  502  0.39572059851E+02  0.18548003923E+03  0.35746951812E+03  0.40466436619E+03  0.00000000000E+00 0.  1.
<mgrwt>
<rscale>  0 0.19263073E+04</rscale>
<asrwt>0</asrwt>
<pdfrwt beam="1">  1        3 0.88509434E-01 0.19263073E+04</pdfrwt>
<pdfrwt beam="2">  1       -3 0.24807034E+00 0.19263073E+04</pdfrwt>
<totfact> 0.21253540E-01</totfact>
</mgrwt>
</event>
<event>
11    1  0.2404191E-008  0.1674574E+04  0.7818608E-02  0.8776000E-01
         -1   -1    0    0    0  501 -0.00000000000E+00  0.00000000000E+00  0.16245056740E+04  0.16245056740E+04  0.00000000000E+00 0.  1.
          1   -1    0    0  501    0  0.00000000000E+00 -0.00000000000E+00 -0.43154634566E+03  0.43154634566E+03  0.00000000000E+00 0. -1.
         23    2    1    2    0    0 -0.15934878466E+03  0.19564779864E+03 -0.22345152188E+03  0.34943157926E+03  0.92204933010E+02 0.  0.
        254    2    1    2    0    0  0.15934878466E+03 -0.19564779864E+03  0.14164108503E+04  0.17066204404E+04  0.91796706624E+03 0.  0.
        -24    2    4    4    0    0 -0.17205015547E+03 -0.14273722492E+03  0.22808833010E+02  0.23771175866E+03  0.77533644084E+02 0.  0.
         11    1    3    3    0    0 -0.12695878035E+02  0.46928471596E+01  0.77757033321E+01  0.15609922993E+02  0.00000000000E+00 0.  1.
        -11    1    3    3    0    0 -0.14665290662E+03  0.19095495148E+03 -0.23122722521E+03  0.33382165627E+03  0.00000000000E+00 0. -1.
          2    1    4    4  502    0  0.30093726819E+03 -0.42718105274E+02  0.58129162706E+03  0.65596343769E+03  0.00000000000E+00 0. -1.
          3    1    5    5  503    0 -0.81134541578E+02 -0.20322488616E+02  0.77051009878E+00  0.83644551923E+02  0.00000000000E+00 0. -1.
         -4    1    5    5    0  503 -0.90915613891E+02 -0.12241473630E+03  0.22038322911E+02  0.15406720673E+03  0.00000000000E+00 0.  1.
         -1    1    4    4    0  502  0.30461671940E+02 -0.10192468443E+02  0.81231039019E+03  0.81294524408E+03  0.00000000000E+00 0.  1.
<mgrwt>
<rscale>  0 0.16745740E+04</rscale>
<asrwt>0</asrwt>
<pdfrwt beam="1">  1        1 0.66391747E-01 0.16745740E+04</pdfrwt>
<pdfrwt beam="2">  1       -1 0.24992395E+00 0.16745740E+04</pdfrwt>
<totfact> 0.36078567E+00</totfact>
</mgrwt>
</event>
<event>
12    1  0.2404191E-008  0.1535734E+04  0.7818608E-02  0.8861032E-01
          2   -1    0    0  501    0  0.00000000000E+00  0.00000000000E+00  0.14462924451E+04  0.14462924451E+04  0.00000000000E+00 0.  1.
         -2   -1    0    0    0  501 -0.00000000000E+00 -0.00000000000E+00 -0.40767646474E+03  0.40767646474E+03  0.00000000000E+00 0. -1.
         23    2    1    2    0    0 -0.30423129138E+03  0.12464134413E+03  0.79848925427E+03  0.86815489921E+03  0.89530422277E+02 0.  0.
        254    2    1    2    0    0  0.30423129138E+03 -0.12464134413E+03  0.24012672608E+03  0.98581401061E+03  0.89781750686E+03 0.  0.
        -24    2    4    4    0    0  0.47466368063E+03 -0.17631894865E+03 -0.15989848200E+03  0.53721109028E+03  0.81450903095E+02 0.  0.
         24    2    4    4    0    0 -0.17043238924E+03  0.51677604516E+02  0.40002520808E+03  0.44860292033E+03  0.97501994419E+02 0.  0.
         11    1    3    3    0    0 -0.26443694207E+03  0.71746678057E+02  0.66197796236E+03  0.71644211545E+03  0.00000000000E+00 0.  1.
        -11    1    3    3    0    0 -0.39794349313E+02  0.52894666075E+02  0.13651129191E+03  0.15171278376E+03  0.00000000000E+00 0. -1.
          4    1    6    6  502    0 -0.13466269356E+03  0.78720622908E+02  0.28067185867E+03  0.32110383018E+03  0.00000000000E+00 0. -1.
          1    1    5    5  503    0  0.24380092134E+03 -0.94183803885E+02 -0.12495040925E+03  0.28969308403E+03  0.00000000000E+00 0. -1.
         -2    1    5    5    0  503  0.23086275929E+03 -0.82135144762E+02 -0.34948072749E+02  0.24751800625E+03  0.00000000000E+00 0.  1.
         -3    1    6    6    0  502 -0.35769695684E+02 -0.27043018391E+02  0.11935334941E+03  0.12749909015E+03  0.00000000000E+00 0.  1.
<mgrwt>
<rscale>  0 0.15357336E+04</rscale>
<asrwt>0</asrwt>
<pdfrwt beam="1">  1        2 0.22250653E+00 0.15357336E+04</pdfrwt>
<pdfrwt beam="2">  1       -2 0.62719457E-01 0.15357336E+04</pdfrwt>
<totfact> 0.30921142E+01</totfact>
</mgrwt>
</event>
<event>
11    1  0.2404191E-008  0.1875680E+04  0.7818608E-02  0.8667058E-01
         -2   -1    0    0    0  501 -0.00000000000E+00  0.00000000000E+00  0.34243556938E+03  0.34243556938E+03  0.00000000000E+00 0.  1.
          2   -1    0    0  501    0  0.00000000000E+00 -0.00000000000E+00 -0.25684936010E+04  0.25684936010E+04  0.00000000000E+00 0. -1.
         23    2    1    2    0    0  0.48391171904E+03 -0.71512061033E+02 -0.17298649431E+04  0.17999824182E+04  0.90661225794E+02 0.  0.
        254    2    1    2    0    0 -0.48391171904E+03  0.71512061033E+02 -0.49619308852E+03  0.11109467522E+04  0.86528063559E+03 0.  0.
        -24    2    4    4    0    0  0.83561819211E+02  0.16512021418E+03  0.13985290532E+03  0.24619069966E+03  0.82484924152E+02 0.  0.
         13    1    3    3    0    0  0.63462865688E+02 -0.81474852736E+01 -0.13475014496E+03  0.14916942852E+03  0.00000000000E+00 0.  1.
        -13    1    3    3    0    0  0.42044885335E+03 -0.63364575760E+02 -0.15951147982E+04  0.16508129897E+04  0.00000000000E+00 0. -1.
          4    1    4    4  502    0 -0.46550478648E+03 -0.59223984821E+02 -0.57073301208E+03  0.73887641571E+03  0.00000000000E+00 0. -1.
          3    1    5    5  503    0  0.56591223698E+02  0.16235573156E+03  0.13510292837E+03  0.21866584421E+03  0.00000000000E+00 0. -1.
         -2    1    5    5    0  503  0.26970595513E+02  0.27644826167E+01  0.47499769523E+01  0.27524855449E+02  0.00000000000E+00 0.  1.
         -3    1    4    4    0  502 -0.10196875178E+03 -0.34384168326E+02 -0.65312981760E+02  0.12587963678E+03  0.00000000000E+00 0.  1.
<mgrwt>
<rscale>  0 0.18756797E+04</rscale>
<asrwt>0</asrwt>
<pdfrwt beam="1">  1        2 0.39515285E+00 0.18756797E+04</pdfrwt>
<pdfrwt beam="2">  1       -2 0.52682397E-01 0.18756797E+04</pdfrwt>
<totfact> 0.10140531E+01</totfact>
</mgrwt>
</event>
<event>
12    1  0.2404191E-008  0.1584027E+04  0.7818608E-02  0.8830421E-01
         -2   -1    0    0    0  501 -0.00000000000E+00  0.00000000000E+00  0.39591812516E+03  0.39591812516E+03  0.00000000000E+00 0.  1.
          2   -1    0    0  501    0  0.00000000000E+00 -0.00000000000E+00 -0.15843824183E+04  0.15843824183E+04  0.00000000000E+00 0. -1.
         23    2    1    2    0    0 -0.19112642466E+03 -0.26916512577E+03 -0.92333369396E+03  0.98337819512E+03  0.74218522644E+02 0.  0.
        254    2    1    2    0    0  0.19112642466E+03  0.26916512577E+03 -0.26513059921E+03  0.99692234836E+03  0.90254127822E+03 0.  0.
        -24    2    4    4    0    0 -0.27727932052E+02  0.29674961863E+03 -0.54485467853E+03  0.62718476501E+03  0.87549610961E+02 0.  0.
         24    2    4    4    0    0  0.21885435672E+03 -0.27584492858E+02  0.27972407932E+03  0.36973758335E+03  0.99005991184E+02 0.  0.
         11    1    3    3    0    0 -0.15610682538E+03 -0.25739789643E+03 -0.80703748946E+03  0.86135505304E+03  0.00000000000E+00 0. -1.
        -11    1    3    3    0    0 -0.35019599286E+02 -0.11767229338E+02 -0.11629620451E+03  0.12202314208E+03  0.00000000000E+00 0.  1.
          2    1    6    6  502    0  0.11480313811E+03  0.24830876337E+02  0.93756904070E+02  0.15028868886E+03  0.00000000000E+00 0. -1.
          1    1    5    5  503    0 -0.39509085637E+02  0.13139656601E+03 -0.17909888232E+03  0.22561567999E+03  0.00000000000E+00 0. -1.
         -2    1    5    5    0  503  0.11781153585E+02  0.16535305261E+03 -0.36575579621E+03  0.40156908503E+03  0.00000000000E+00 0.  1.
         -1    1    6    6    0  502  0.10405121861E+03 -0.52415369195E+02  0.18596717525E+03  0.21944889449E+03  0.00000000000E+00 0.  1.
<mgrwt>
<rscale>  0 0.15840274E+04</rscale>
<asrwt>0</asrwt>
<pdfrwt beam="1">  1        2 0.24375114E+00 0.15840274E+04</pdfrwt>
<pdfrwt beam="2">  1       -2 0.60910481E-01 0.15840274E+04</pdfrwt>
<totfact> 0.27401913E+01</totfact>
</mgrwt>
</event>
<event>
11    1  0.2404191E-008  0.1623979E+04  0.7818608E-02  0.8805951E-01
         -2   -1    0    0    0  501 -0.00000000000E+00  0.00000000000E+00  0.50077269199E+03  0.50077269199E+03  0.00000000000E+00 0.  1.
          2   -1    0    0  501    0  0.00000000000E+00 -0.00000000000E+00 -0.13166197919E+04  0.13166197919E+04  0.00000000000E+00 0. -1.
         23    2    1    2    0    0  0.33719730611E+01  0.17568284878E+03  0.30404989374E+03  0.36284118773E+03  0.91277357959E+02 0.  0.
        254    2    1    2    0    0 -0.33719730611E+01 -0.17568284878E+03 -0.11198969936E+04  0.14545512961E+04  0.91141338766E+03 0.  0.
        -24    2    4    4    0    0 -0.24868739133E+03  0.13558112108E+03 -0.87741345967E+03  0.92543252981E+03  0.79645018793E+02 0.  0.
         11    1    3    3    0    0 -0.15114251536E+02 -0.40892029416E+01  0.39173614121E+02  0.42186896348E+02  0.00000000000E+00 0. -1.
        -11    1    3    3    0    0  0.18486224597E+02  0.17977205172E+03  0.26487627962E+03  0.32065429138E+03  0.00000000000E+00 0.  1.
          2    1    4    4  502    0  0.60517421309E+02 -0.42678899994E+02  0.51440170256E+02  0.90166168282E+02  0.00000000000E+00 0. -1.
          1    1    5    5  503    0 -0.77613810077E+02  0.10614421646E+02 -0.31042974320E+03  0.32016120147E+03  0.00000000000E+00 0. -1.
         -2    1    5    5    0  503 -0.17107358125E+03  0.12496669944E+03 -0.56698371646E+03  0.60527132833E+03  0.00000000000E+00 0.  1.
         -1    1    4    4    0  502  0.18479799696E+03 -0.26858506987E+03 -0.29392370421E+03  0.43895259805E+03  0.00000000000E+00 0.  1.
<mgrwt>
<rscale>  0 0.16239794E+04</rscale>
<asrwt>0</asrwt>
<pdfrwt beam="1">  1        2 0.20255689E+00 0.16239794E+04</pdfrwt>
<pdfrwt beam="2">  1       -2 0.77041953E-01 0.16239794E+04</pdfrwt>
<totfact> 0.23276660E+01</totfact>
</mgrwt>
</event>
<event>
11    1  0.2404191E-008  0.1150957E+04  0.7818608E-02  0.9156901E-01
          2   -1    0    0  501    0  0.00000000000E+00  0.00000000000E+00  0.32705874697E+03  0.32705874697E+03  0.00000000000E+00 0. -1.
         -2   -1    0    0    0  501 -0.00000000000E+00 -0.00000000000E+00 -0.10125868438E+04  0.10125868438E+04  0.00000000000E+00 0.  1.
         23    2    1    2    0    0 -0.22167708476E+01 -0.44322130416E+02  0.11397805139E+03  0.15175959118E+03  0.89836584968E+02 0.  0.
        254    2    1    2    0    0  0.22167708476E+01  0.44322130416E+02 -0.79950614820E+03  0.11878859996E+04  0.87743586755E+03 0.  0.
        -24    2    4    4    0    0 -0.19856272118E+03 -0.21390934096E+03  0.12407560971E+02  0.30303543774E+03  0.80573994330E+02 0.  0.
         11    1    3    3    0    0 -0.18909172185E+01 -0.28042346526E+01 -0.15459976981E+02  0.15825618098E+02  0.00000000000E+00 0.  1.
        -11    1    3    3    0    0 -0.32585362913E+00 -0.41517895763E+02  0.12943802837E+03  0.13593397308E+03  0.00000000000E+00 0. -1.
          2    1    4    4  502    0  0.21446805980E+03  0.22106971405E+03 -0.66804522595E+03  0.73563087962E+03  0.00000000000E+00 0. -1.
          1    1    5    5  503    0 -0.16890626357E+03 -0.20088035154E+03 -0.11609273488E+02  0.26271089954E+03  0.00000000000E+00 0. -1.
         -2    1    5    5    0  503 -0.29656457606E+02 -0.13028989427E+02  0.24016834459E+02  0.40324538195E+02  0.00000000000E+00 0.  1.
         -1    1    4    4    0  502 -0.13688567774E+02  0.37161757331E+02 -0.14386848322E+03  0.14921968222E+03  0.00000000000E+00 0.  1.
<mgrwt>
<rscale>  0 0.11509568E+04</rscale>
<asrwt>0</asrwt>
<pdfrwt beam="1">  1        2 0.50316730E-01 0.11509568E+04</pdfrwt>
<pdfrwt beam="2">  1       -2 0.15578259E+00 0.11509568E+04</pdfrwt>
<totfact> 0.26693992E+01</totfact>
</mgrwt>
</event>
<event>
11    1  0.2404191E-008  0.2105685E+04  0.7818608E-02  0.8558743E-01
          2   -1    0    0  501    0  0.00000000000E+00  0.00000000000E+00  0.83686838700E+03  0.83686838700E+03  0.00000000000E+00 0.  1.
         -2   -1    0    0    0  501 -0.00000000000E+00 -0.00000000000E+00 -0.13245536042E+04  0.13245536042E+04  0.00000000000E+00 0. -1.
         23    2    1    2    0    0  0.11155565943E+03 -0.69139882605E+03  0.31307081288E+03  0.77259811986E+03  0.91747038761E+02 0.  0.
        254    2    1    2    0    0 -0.11155565943E+03  0.69139882605E+03 -0.80075603005E+03  0.13888238713E+04  0.89282950447E+03 0.  0.
        -24    2    4    4    0    0 -0.24407973637E+02  0.81326875110E+03 -0.62399996528E+03  0.10286665878E+04  0.82323639176E+02 0.  0.
         13    1    3    3    0    0  0.12710565586E+03 -0.64334197635E+03  0.28863917081E+03  0.71648957928E+03  0.00000000000E+00 0. -1.
        -13    1    3    3    0    0 -0.15549996435E+02 -0.48056849692E+02  0.24431642066E+02  0.56108540576E+02  0.00000000000E+00 0.  1.
          2    1    4    4  502    0  0.76515546831E+01  0.79315598684E+02 -0.62725038425E+01  0.79930312073E+02  0.00000000000E+00 0. -1.
          1    1    5    5  503    0  0.27376009976E+02  0.16870380799E+03 -0.12048686571E+03  0.20911122773E+03  0.00000000000E+00 0. -1.
         -2    1    5    5    0  503 -0.51783983614E+02  0.64456494311E+03 -0.50351309957E+03  0.81955536011E+03  0.00000000000E+00 0.  1.
         -1    1    4    4    0  502 -0.94799240473E+02 -0.20118552374E+03 -0.17048356093E+03  0.28022697141E+03  0.00000000000E+00 0.  1.
<mgrwt>
<rscale>  0 0.21056847E+04</rscale>
<asrwt>0</asrwt>
<pdfrwt beam="1">  1        2 0.12874898E+00 0.21056847E+04</pdfrwt>
<pdfrwt beam="2">  1       -2 0.20377748E+00 0.21056847E+04</pdfrwt>
<totfact> 0.37502927E+00</totfact>
</mgrwt>
</event>
<event>
12    1  0.2404191E-008  0.2564544E+04  0.7818608E-02  0.8380346E-01
          2   -1    0    0  501    0  0.00000000000E+00  0.00000000000E+00  0.24284851392E+04  0.24284851392E+04  0.00000000000E+00 0. -1.
         -2   -1    0    0    0  501 -0.00000000000E+00 -0.00000000000E+00 -0.67705616744E+03  0.67705616744E+03  0.00000000000E+00 0.  1.
         23    2    1    2    0    0  0.29964768441E+03 -0.41440486779E+03 -0.43982706432E+03  0.68082032630E+03  0.92457238607E+02 0.  0.
        254    2    1    2    0    0 -0.29964768441E+03  0.41440486779E+03  0.21912560361E+04  0.24247209804E+04  0.90340947952E+03 0.  0.
        -24    2    4    4    0    0  0.39018492279E+02  0.38504959800E+03  0.19666889636E+04  0.20060678867E+04  0.81591979180E+02 0.  0.
         24    2    4    4    0    0 -0.33866617669E+03  0.29355269783E+02  0.22456707253E+03  0.41865309365E+03  0.96351085380E+02 0.  0.
         11    1    3    3    0    0  0.13140074416E+03 -0.15288142561E+03 -0.11935842870E+03  0.23427616261E+03  0.00000000000E+00 0. -1.
        -11    1    3    3    0    0  0.16824694025E+03 -0.26152344217E+03 -0.32046863562E+03  0.44654416369E+03  0.00000000000E+00 0.  1.
          2    1    6    6  502    0 -0.15427957619E+03 -0.17524005373E+02  0.57878711042E+02  0.16570824839E+03  0.00000000000E+00 0. -1.
          3    1    5    5  503    0  0.53992363383E+02  0.37086061699E+03  0.18520717007E+04  0.18896090487E+04  0.00000000000E+00 0. -1.
         -4    1    5    5    0  503 -0.14973871103E+02  0.14188981017E+02  0.11461726288E+03  0.11645883800E+03  0.00000000000E+00 0.  1.
         -1    1    6    6    0  502 -0.18438660051E+03  0.46879275156E+02  0.16668836149E+03  0.25294484525E+03  0.00000000000E+00 0.  1.
<mgrwt>
<rscale>  0 0.25645435E+04</rscale>
<asrwt>0</asrwt>
<pdfrwt beam="1">  1        2 0.37361309E+00 0.25645435E+04</pdfrwt>
<pdfrwt beam="2">  1       -2 0.10416249E+00 0.25645435E+04</pdfrwt>
<totfact> 0.25446597E+00</totfact>
</mgrwt>
</event>
<event>
11    1  0.2404191E-008  0.6689883E+04  0.7818608E-02  0.7610292E-01
          2   -1    0    0  501    0  0.00000000000E+00  0.00000000000E+00  0.26670217853E+04  0.26670217853E+04  0.00000000000E+00 0. -1.
         -2   -1    0    0    0  501 -0.00000000000E+00 -0.00000000000E+00 -0.41951787366E+04  0.41951787366E+04  0.00000000000E+00 0.  1.
         23    2    1    2    0    0 -0.24326977037E+04  0.23064560491E+03  0.15005655056E+04  0.28690182069E+04  0.91395416427E+02 0.  0.
        254    2    1    2    0    0  0.24326977037E+04 -0.23064560491E+03 -0.30287224568E+04  0.39931823150E+04  0.89505852754E+03 0.  0.
        -24    2    4    4    0    0  0.15638387194E+03  0.19437355127E+03 -0.48414151112E+03  0.55033821331E+03  0.79007299696E+02 0.  0.
         11    1    3    3    0    0 -0.13279433929E+04  0.10761240870E+03  0.86689969717E+03  0.15895059516E+04  0.00000000000E+00 0. -1.
        -11    1    3    3    0    0 -0.11047543108E+04  0.12303319622E+03  0.63366580842E+03  0.12795122553E+04  0.00000000000E+00 0.  1.
          4    1    4    4  502    0  0.21730194649E+04 -0.40961851835E+03 -0.23875755087E+04  0.32542768375E+04  0.00000000000E+00 0. -1.
          3    1    5    5  503    0  0.58316009663E+02  0.13472117477E+03 -0.27917325711E+03  0.31541759526E+03  0.00000000000E+00 0. -1.
         -4    1    5    5    0  503  0.98067862278E+02  0.59652376502E+02 -0.20496825401E+03  0.23492061805E+03  0.00000000000E+00 0.  1.
         -1    1    4    4    0  502  0.10329436688E+03 -0.15400637837E+02 -0.15700543705E+03  0.18856726423E+03  0.00000000000E+00 0.  1.
<mgrwt>
<rscale>  0 0.66898828E+04</rscale>
<asrwt>0</asrwt>
<pdfrwt beam="1">  1        2 0.41031104E+00 0.66898828E+04</pdfrwt>
<pdfrwt beam="2">  1       -2 0.64541212E+00 0.66898828E+04</pdfrwt>
<totfact> 0.63453698E-04</totfact>
</mgrwt>
</event>
<event>
11    1  0.2404191E-008  0.1314096E+04  0.7818608E-02  0.9018461E-01
          1   -1    0    0  501    0  0.00000000000E+00  0.00000000000E+00  0.16553213493E+04  0.16553213493E+04  0.00000000000E+00 0. -1.
         -1   -1    0    0    0  501 -0.00000000000E+00 -0.00000000000E+00 -0.26080272526E+03  0.26080272526E+03  0.00000000000E+00 0.  1.
         23    2    1    2    0    0 -0.19024156933E+03 -0.15385914691E+03  0.67440764818E+03  0.72281790773E+03  0.88179136052E+02 0.  0.
        254    2    1    2    0    0  0.19024156933E+03  0.15385914691E+03  0.72011097585E+03  0.11933061668E+04  0.91954080846E+03 0.  0.
        -24    2    4    4    0    0  0.25320213111E+03 -0.16224930907E+03  0.78321760614E+03  0.84295955190E+03  0.81944066829E+02 0.  0.
         13    1    3    3    0    0 -0.13297604136E+03 -0.12007055538E+03  0.36822339564E+03  0.40949729541E+03  0.00000000000E+00 0.  1.
        -13    1    3    3    0    0 -0.57265527966E+02 -0.33788591531E+02  0.30618425253E+03  0.31332061233E+03  0.00000000000E+00 0. -1.
          2    1    4    4  502    0 -0.73275285945E+02  0.30346434979E+03 -0.84519866342E+02  0.32342462326E+03  0.00000000000E+00 0. -1.
          1    1    5    5  503    0  0.19827039538E+03 -0.99022365623E+02  0.48563172355E+03  0.53381152994E+03  0.00000000000E+00 0. -1.
         -2    1    5    5    0  503  0.54931735721E+02 -0.63226943446E+02  0.29758588259E+03  0.30914802196E+03  0.00000000000E+00 0.  1.
         -3    1    4    4    0  502  0.10314724167E+02  0.12644106188E+02  0.21413236054E+02  0.26921991647E+02  0.00000000000E+00 0.  1.
<mgrwt>
<rscale>  0 0.13140964E+04</rscale>
<asrwt>0</asrwt>
<pdfrwt beam="1">  1        1 0.25466482E+00 0.13140964E+04</pdfrwt>
<pdfrwt beam="2">  1       -1 0.40123497E-01 0.13140964E+04</pdfrwt>
<totfact> 0.30398531E+01</totfact>
</mgrwt>
</event>
<event>
12    1  0.2404191E-008  0.2084993E+04  0.7818608E-02  0.8567883E-01
          2   -1    0    0  501    0  0.00000000000E+00  0.00000000000E+00  0.15960284503E+04  0.15960284503E+04  0.00000000000E+00 0. -1.
         -2   -1    0    0    0  501 -0.00000000000E+00 -0.00000000000E+00 -0.68093941046E+03  0.68093941046E+03  0.00000000000E+00 0.  1.
         23    2    1    2    0    0 -0.39752859477E+03 -0.10163053099E+03  0.11905149163E+04  0.12618320273E+04  0.80848937509E+02 0.  0.
        254    2    1    2    0    0  0.39752859477E+03  0.10163053099E+03 -0.27542587649E+03  0.10151358334E+04  0.88672633793E+03 0.  0.
        -24    2    4    4    0    0  0.45282943254E+03 -0.80061253415E+02 -0.51339642990E+03  0.69380554660E+03  0.79535796891E+02 0.  0.
         24    2    4    4    0    0 -0.55300837769E+02  0.18169178441E+03  0.23797055341E+03  0.32133028683E+03  0.10272819362E+03 0.  0.
         13    1    3    3    0    0 -0.12960054951E+02  0.11351115888E+02  0.56284837810E+02  0.58862499297E+02  0.00000000000E+00 0.  1.
        -13    1    3    3    0    0 -0.38456853982E+03 -0.11298164688E+03  0.11342300785E+04  0.12029695280E+04  0.00000000000E+00 0. -1.
          2    1    6    6  502    0 -0.73893592287E+02  0.17632342445E+03  0.23291276884E+03  0.30132801211E+03  0.00000000000E+00 0. -1.
          1    1    5    5  503    0  0.34541192045E+03 -0.94875417130E+02 -0.39019296770E+03  0.52968036740E+03  0.00000000000E+00 0. -1.
         -2    1    5    5    0  503  0.10741751209E+03  0.14814163716E+02 -0.12320346220E+03  0.16412517920E+03  0.00000000000E+00 0.  1.
         -1    1    6    6    0  502  0.18592754519E+02  0.53683599582E+01  0.50577845650E+01  0.20002274719E+02  0.00000000000E+00 0.  1.
<mgrwt>
<rscale>  0 0.20849927E+04</rscale>
<asrwt>0</asrwt>
<pdfrwt beam="1">  1        2 0.24554284E+00 0.20849927E+04</pdfrwt>
<pdfrwt beam="2">  1       -2 0.10475991E+00 0.20849927E+04</pdfrwt>
<totfact> 0.76452201E+00</totfact>
</mgrwt>
</event>
<event>
12    1  0.2404191E-008  0.1663252E+04  0.7818608E-02  0.8782605E-01
          2   -1    0    0  501    0  0.00000000000E+00  0.00000000000E+00  0.43177898529E+03  0.43177898529E+03  0.00000000000E+00 0.  1.
         -2   -1    0    0    0  501 -0.00000000000E+00 -0.00000000000E+00 -0.16017491108E+04  0.16017491108E+04  0.00000000000E+00 0. -1.
         23    2    1    2    0    0  0.31743715077E+03  0.22013881206E+03 -0.10119888635E+04  0.10874284456E+04  0.95664638807E+02 0.  0.
        254    2    1    2    0    0 -0.31743715077E+03 -0.22013881206E+03 -0.15798126201E+03  0.94609965053E+03  0.84906950736E+03 0.  0.
        -24    2    4    4    0    0 -0.18192194492E+03 -0.22531808097E+03 -0.48992105231E+03  0.57431270144E+03  0.77127231805E+02 0.  0.
         24    2    4    4    0    0 -0.13551520585E+03  0.51792689096E+01  0.33193979030E+03  0.37178694909E+03  0.98236018295E+02 0.  0.
         11    1    3    3    0    0  0.27809142271E+03  0.17711872887E+03 -0.93085737859E+03  0.98752283152E+03  0.00000000000E+00 0. -1.
        -11    1    3    3    0    0  0.39345728059E+02  0.43020083186E+02 -0.81131484901E+02  0.99905614037E+02  0.00000000000E+00 0.  1.
          4    1    6    6  502    0 -0.41517691536E+02  0.43793578671E+02  0.80648585667E+02  0.10072631540E+03  0.00000000000E+00 0. -1.
          3    1    5    5  503    0  0.35130023175E+01 -0.21503702262E+02 -0.58266229557E+02  0.62206944171E+02  0.00000000000E+00 0. -1.
         -4    1    5    5    0  503 -0.18543494723E+03 -0.20381437870E+03 -0.43165482275E+03  0.51210575727E+03  0.00000000000E+00 0.  1.
         -3    1    6    6    0  502 -0.93997514314E+02 -0.38614309761E+02  0.25129120463E+03  0.27106063370E+03  0.00000000000E+00 0.  1.
<mgrwt>
<rscale>  0 0.16632518E+04</rscale>
<asrwt>0</asrwt>
<pdfrwt beam="1">  1        2 0.66427536E-01 0.16632518E+04</pdfrwt>
<pdfrwt beam="2">  1       -2 0.24642294E+00 0.16632518E+04</pdfrwt>
<totfact> 0.47040420E+00</totfact>
</mgrwt>
</event>
<event>
11    1  0.2404191E-008  0.1296229E+04  0.7818608E-02  0.9032561E-01
         -1   -1    0    0    0  501 -0.00000000000E+00  0.00000000000E+00  0.33179506391E+03  0.33179506391E+03  0.00000000000E+00 0.  1.
          1   -1    0    0  501    0  0.00000000000E+00 -0.00000000000E+00 -0.12659997065E+04  0.12659997065E+04  0.00000000000E+00 0. -1.
         23    2    1    2    0    0 -0.46367447284E+02  0.21290042888E+01  0.15499062057E+03  0.18581176827E+03  0.91375313605E+02 0.  0.
        254    2    1    2    0    0  0.46367447284E+02 -0.21290042888E+01 -0.10891952632E+04  0.14119830022E+04  0.89732669871E+03 0.  0.
        -24    2    4    4    0    0 -0.17164628965E+03 -0.38219383354E+03 -0.60926184561E+03  0.74387076538E+03  0.81296641518E+02 0.  0.
         13    1    3    3    0    0 -0.43303651504E+02  0.42756684964E+02  0.80587488456E+02  0.10098358103E+03  0.00000000000E+00 0. -1.
        -13    1    3    3    0    0 -0.30637957801E+01 -0.40627680675E+02  0.74403132118E+02  0.84828187241E+02  0.00000000000E+00 0.  1.
          2    1    4    4  502    0  0.18014532079E+03  0.17695257345E+03 -0.21161156823E+03  0.32946017310E+03  0.00000000000E+00 0. -1.
          3    1    5    5  503    0 -0.16346876366E+03 -0.28942981839E+03 -0.45130748847E+03  0.56050879174E+03  0.00000000000E+00 0. -1.
         -4    1    5    5    0  503 -0.81775259895E+01 -0.92764015150E+02 -0.15795435714E+03  0.18336197364E+03  0.00000000000E+00 0.  1.
         -1    1    4    4    0  502  0.37868416142E+02  0.20311225580E+03 -0.26832184938E+03  0.33865206370E+03  0.00000000000E+00 0.  1.
<mgrwt>
<rscale>  0 0.12962291E+04</rscale>
<asrwt>0</asrwt>
<pdfrwt beam="1">  1        1 0.19476919E+00 0.12962291E+04</pdfrwt>
<pdfrwt beam="2">  1       -1 0.51045394E-01 0.12962291E+04</pdfrwt>
<totfact> 0.36277047E+01</totfact>
</mgrwt>
</event>
<event>
12    1  0.2404191E-008  0.1505282E+04  0.7818608E-02  0.8880948E-01
         -2   -1    0    0    0  501 -0.00000000000E+00  0.00000000000E+00  0.36172959219E+03  0.36172959219E+03  0.00000000000E+00 0.  1.
          2   -1    0    0  501    0  0.00000000000E+00 -0.00000000000E+00 -0.15660004010E+04  0.15660004010E+04  0.00000000000E+00 0. -1.
         23    2    1    2    0    0 -0.28210959236E+03  0.31093045441E+03 -0.11517595531E+03  0.44462649641E+03  0.90352924950E+02 0.  0.
        254    2    1    2    0    0  0.28210959236E+03 -0.31093045441E+03 -0.10890948535E+04  0.14831034968E+04  0.91498896862E+03 0.  0.
        -24    2    4    4    0    0 -0.13522153243E+03 -0.19809178091E+03 -0.99736763260E+03  0.10290356910E+04  0.81529395203E+02 0.  0.
         24    2    4    4    0    0  0.41733112480E+03 -0.11283867350E+03 -0.91727220941E+02  0.45406780583E+03  0.10423941320E+03 0.  0.
         13    1    3    3    0    0 -0.67356386392E+02  0.38050838084E+02  0.40823778117E+01  0.77468799366E+02  0.00000000000E+00 0. -1.
        -13    1    3    3    0    0 -0.21475320597E+03  0.27287961632E+03 -0.11925833312E+03  0.36715769704E+03  0.00000000000E+00 0.  1.
          2    1    6    6  502    0  0.40936047872E+03 -0.98069737220E+02 -0.70176687283E+02  0.42675337414E+03  0.00000000000E+00 0. -1.
          1    1    5    5  503    0 -0.11665570110E+03 -0.16393367317E+03 -0.92756777125E+03  0.94913896351E+03  0.00000000000E+00 0. -1.
         -2    1    5    5    0  503 -0.18565831333E+02 -0.34158107740E+02 -0.69799861351E+02  0.79896727480E+02  0.00000000000E+00 0.  1.
         -1    1    6    6    0  502  0.79706460755E+01 -0.14768936279E+02 -0.21550533658E+02  0.27314431691E+02  0.00000000000E+00 0.  1.
<mgrwt>
<rscale>  0 0.15052823E+04</rscale>
<asrwt>0</asrwt>
<pdfrwt beam="1">  1        2 0.24092314E+00 0.15052823E+04</pdfrwt>
<pdfrwt beam="2">  1       -2 0.55650706E-01 0.15052823E+04</pdfrwt>
<totfact> 0.34135606E+01</totfact>
</mgrwt>
</event>
<event>
12    1  0.2404191E-008  0.1311394E+04  0.7818608E-02  0.9020578E-01
          2   -1    0    0  501    0  0.00000000000E+00  0.00000000000E+00  0.22893290219E+04  0.22893290219E+04  0.00000000000E+00 0. -1.
         -2   -1    0    0    0  501 -0.00000000000E+00 -0.00000000000E+00 -0.18780112728E+03  0.18780112728E+03  0.00000000000E+00 0.  1.
         23    2    1    2    0    0  0.31080747123E+03 -0.56912902560E+02  0.64478795979E+03  0.72390445738E+03  0.91900966632E+02 0.  0.
        254    2    1    2    0    0 -0.31080747123E+03  0.56912902560E+02  0.14567399348E+04  0.17532256917E+04  0.92296734827E+03 0.  0.
        -24    2    4    4    0    0 -0.47937851216E+03  0.14018000687E+03  0.32347057119E+03  0.60028292267E+03  0.79070756702E+02 0.  0.
         24    2    4    4    0    0  0.16857104094E+03 -0.83267104306E+02  0.11332693636E+04  0.11529427691E+04  0.98122229037E+02 0.  0.
         11    1    3    3    0    0  0.20881493764E+03 -0.71148116733E+02  0.49716862578E+03  0.54391394095E+03  0.00000000000E+00 0. -1.
        -11    1    3    3    0    0  0.10199253359E+03  0.14235214173E+02  0.14761933401E+03  0.17999051643E+03  0.00000000000E+00 0.  1.
          2    1    6    6  502    0  0.57688041631E+02 -0.78548367131E+02  0.63723458759E+03  0.64464383635E+03  0.00000000000E+00 0. -1.
          1    1    5    5  503    0 -0.45742718623E+03  0.14907075502E+03  0.30020971978E+03  0.56708693915E+03  0.00000000000E+00 0. -1.
         -2    1    5    5    0  503 -0.21951325934E+02 -0.88907481536E+01  0.23260851417E+02  0.33195983516E+02  0.00000000000E+00 0.  1.
         -1    1    6    6    0  502  0.11088299931E+03 -0.47187371749E+01  0.49603477600E+03  0.50829893273E+03  0.00000000000E+00 0.  1.
<mgrwt>
<rscale>  0 0.13113940E+04</rscale>
<asrwt>0</asrwt>
<pdfrwt beam="1">  1        2 0.35220445E+00 0.13113940E+04</pdfrwt>
<pdfrwt beam="2">  1       -2 0.28892483E-01 0.13113940E+04</pdfrwt>
<totfact> 0.49657244E+01</totfact>
</mgrwt>
</event>
<event>
12    1  0.2404191E-008  0.1807271E+04  0.7818608E-02  0.8702442E-01
         -2   -1    0    0    0  501 -0.00000000000E+00  0.00000000000E+00  0.35633003364E+03  0.35633003364E+03  0.00000000000E+00 0.  1.
          2   -1    0    0  501    0  0.00000000000E+00 -0.00000000000E+00 -0.22915765048E+04  0.22915765048E+04  0.00000000000E+00 0. -1.
         23    2    1    2    0    0  0.53548193407E+03  0.43335569998E+03 -0.73627892905E+03  0.10125482314E+04  0.92785748701E+02 0.  0.
        254    2    1    2    0    0 -0.53548193407E+03 -0.43335569998E+03 -0.11989675421E+04  0.16353583071E+04  0.87311829722E+03 0.  0.
        -24    2    4    4    0    0  0.68145235699E+02 -0.34965550351E+03 -0.86314585360E+03  0.93688762419E+03  0.76386592328E+02 0.  0.
         24    2    4    4    0    0 -0.60362716977E+03 -0.83700196464E+02 -0.33582168854E+03  0.69847068287E+03  0.60939358036E+02 0.  0.
         13    1    3    3    0    0  0.29818247274E+03  0.26330239441E+03 -0.36179514554E+03  0.53771429708E+03  0.00000000000E+00 0.  1.
        -13    1    3    3    0    0  0.23729946133E+03  0.17005330557E+03 -0.37448378351E+03  0.47483393434E+03  0.00000000000E+00 0. -1.
          4    1    6    6  502    0 -0.65537851911E+02 -0.22445572531E+02 -0.54836648507E+02  0.88351976655E+02  0.00000000000E+00 0. -1.
          1    1    5    5  503    0  0.72626586568E+02 -0.17331005007E+03 -0.44065557120E+03  0.47904939929E+03  0.00000000000E+00 0. -1.
         -2    1    5    5    0  503 -0.44813508685E+01 -0.17634545345E+03 -0.42249028240E+03  0.45783822490E+03  0.00000000000E+00 0.  1.
         -3    1    6    6    0  502 -0.53808931786E+03 -0.61254623933E+02 -0.28098504003E+03  0.61011870621E+03  0.00000000000E+00 0.  1.
<mgrwt>
<rscale>  0 0.18072715E+04</rscale>
<asrwt>0</asrwt>
<pdfrwt beam="1">  1        2 0.35255024E+00 0.18072715E+04</pdfrwt>
<pdfrwt beam="2">  1       -2 0.54820004E-01 0.18072715E+04</pdfrwt>
<totfact> 0.13544659E+01</totfact>
</mgrwt>
</event>
<event>
12    1  0.2404191E-008  0.1654631E+04  0.7818608E-02  0.8787672E-01
          1   -1    0    0  501    0  0.00000000000E+00  0.00000000000E+00  0.10862738297E+04  0.10862738297E+04  0.00000000000E+00 0. -1.
         -1   -1    0    0    0  501 -0.00000000000E+00 -0.00000000000E+00 -0.63009028479E+03  0.63009028479E+03  0.00000000000E+00 0.  1.
         23    2    1    2    0    0  0.25339707505E+03 -0.48719869197E+03 -0.23973564021E+02  0.55747244614E+03  0.92887853522E+02 0.  0.
        254    2    1    2    0    0 -0.25339707505E+03  0.48719869197E+03  0.48015710892E+03  0.11588916683E+04  0.90050341842E+03 0.  0.
        -24    2    4    4    0    0 -0.49445297405E+03  0.42202257403E+03  0.49399318467E+02  0.65698559948E+03  0.81258776202E+02 0.  0.
         24    2    4    4    0    0  0.24105589900E+03  0.65176117937E+02  0.43075779045E+03  0.50190606886E+03  0.63257846403E+02 0.  0.
         13    1    3    3    0    0  0.19616093717E+03 -0.37702078260E+03  0.20751091697E+02  0.42550486671E+03  0.00000000000E+00 0. -1.
        -13    1    3    3    0    0  0.57236137883E+02 -0.11017790937E+03 -0.44724655717E+02  0.13196757943E+03  0.00000000000E+00 0.  1.
          4    1    6    6  502    0  0.79641958591E+02 -0.85152193093E+01  0.12884306796E+03  0.15170987671E+03  0.00000000000E+00 0. -1.
          1    1    5    5  503    0 -0.25428220313E+02  0.42822084946E+02 -0.10438742044E+02  0.50885092934E+02  0.00000000000E+00 0. -1.
         -2    1    5    5    0  503 -0.46902475374E+03  0.37920048909E+03  0.59838060510E+02  0.60610050654E+03  0.00000000000E+00 0.  1.
         -3    1    6    6    0  502  0.16141394041E+03  0.73691337246E+02  0.30191472249E+03  0.35019619216E+03  0.00000000000E+00 0.  1.
<mgrwt>
<rscale>  0 0.16546306E+04</rscale>
<asrwt>0</asrwt>
<pdfrwt beam="1">  1        1 0.16711905E+00 0.16546306E+04</pdfrwt>
<pdfrwt beam="2">  1       -1 0.96936967E-01 0.16546306E+04</pdfrwt>
<totfact> 0.12692282E+01</totfact>
</mgrwt>
</event>
<event>
11    1  0.2404191E-008  0.2290525E+04  0.7818608E-02  0.8481666E-01
         -1   -1    0    0    0  501 -0.00000000000E+00  0.00000000000E+00  0.18712664439E+04  0.18712664439E+04  0.00000000000E+00 0.  1.
          1   -1    0    0  501    0  0.00000000000E+00 -0.00000000000E+00 -0.70092965620E+03  0.70092965620E+03  0.00000000000E+00 0. -1.
         23    2    1    2    0    0  0.17512404969E+03  0.40185967455E+03 -0.46928916012E+03  0.64876271280E+03  0.92201469157E+02 0.  0.
        254    2    1    2    0    0 -0.17512404969E+03 -0.40185967455E+03  0.16396259478E+04  0.19234333873E+04  0.90502105821E+03 0.  0.
        -24    2    4    4    0    0 -0.43611634994E+03 -0.86273787973E+02  0.13063400387E+04  0.13823188714E+04  0.81489436539E+02 0.  0.
         13    1    3    3    0    0  0.13937390645E+03  0.20747265077E+03 -0.24901816010E+03  0.35281727661E+03  0.00000000000E+00 0. -1.
        -13    1    3    3    0    0  0.35750143242E+02  0.19438702378E+03 -0.22027100002E+03  0.29594543619E+03  0.00000000000E+00 0.  1.
          2    1    4    4  502    0  0.23543032354E+03 -0.32146246510E+03  0.32305098545E+03  0.51295954315E+03  0.00000000000E+00 0. -1.
          3    1    5    5  503    0 -0.30219094508E+03 -0.56774796692E+02  0.10104004294E+04  0.10561495029E+04  0.00000000000E+00 0. -1.
         -4    1    5    5    0  503 -0.13392540486E+03 -0.29498991281E+02  0.29593960935E+03  0.32616936848E+03  0.00000000000E+00 0.  1.
         -1    1    4    4    0  502  0.25561976716E+02  0.58765785300E+01  0.10234923659E+02  0.28154972760E+02  0.00000000000E+00 0.  1.
<mgrwt>
<rscale>  0 0.22905250E+04</rscale>
<asrwt>0</asrwt>
<pdfrwt beam="1">  1        1 0.10783533E+00 0.22905250E+04</pdfrwt>
<pdfrwt beam="2">  1       -1 0.28788714E+00 0.22905250E+04</pdfrwt>
<totfact> 0.97337637E-01</totfact>
</mgrwt>
</event>
<event>
11    1  0.2404191E-008  0.1321989E+04  0.7818608E-02  0.9012307E-01
         -2   -1    0    0    0  501 -0.00000000000E+00  0.00000000000E+00  0.13812720089E+03  0.13812720089E+03  0.00000000000E+00 0. -1.
          2   -1    0    0  501    0  0.00000000000E+00 -0.00000000000E+00 -0.31631281520E+04  0.31631281520E+04  0.00000000000E+00 0.  1.
         23    2    1    2    0    0 -0.15000471975E+03  0.50128159949E+02 -0.15937154662E+04  0.16041518911E+04  0.91433331444E+02 0.  0.
        254    2    1    2    0    0  0.15000471975E+03 -0.50128159949E+02 -0.14312854849E+04  0.16971034618E+04  0.89809118267E+03 0.  0.
        -24    2    4    4    0    0 -0.23524797890E+03  0.89288197389E+02 -0.11270886421E+04  0.11576322069E+04  0.80433359951E+02 0.  0.
         11    1    3    3    0    0 -0.60744832647E+02 -0.25202010261E+02 -0.60257180716E+03  0.60615002995E+03  0.00000000000E+00 0.  1.
        -11    1    3    3    0    0 -0.89259887098E+02  0.75330170210E+02 -0.99114365900E+03  0.99800186111E+03  0.00000000000E+00 0. -1.
          4    1    4    4  502    0  0.27096868244E+03 -0.17605538200E+03 -0.24581667127E+03  0.40601152725E+03  0.00000000000E+00 0. -1.
          3    1    5    5  503    0 -0.20275165614E+03  0.54551002992E+02 -0.79959316405E+03  0.82670023225E+03  0.00000000000E+00 0. -1.
         -4    1    5    5    0  503 -0.32496322763E+02  0.34737194397E+02 -0.32749547807E+03  0.33093197462E+03  0.00000000000E+00 0.  1.
         -3    1    4    4    0  502  0.11428401621E+03  0.36639024659E+02 -0.58380171544E+02  0.13345972771E+03  0.00000000000E+00 0.  1.
<mgrwt>
<rscale>  0 0.13219895E+04</rscale>
<asrwt>0</asrwt>
<pdfrwt beam="1">  1        2 0.48663504E+00 0.13219895E+04</pdfrwt>
<pdfrwt beam="2">  1       -2 0.21250341E-01 0.13219895E+04</pdfrwt>
<totfact> 0.26107261E+01</totfact>
</mgrwt>
</event>
<event>
12    1  0.2404191E-008  0.1454276E+04  0.7818608E-02  0.8915441E-01
          1   -1    0    0  501    0  0.00000000000E+00  0.00000000000E+00  0.85960878799E+03  0.85960878799E+03  0.00000000000E+00 0. -1.
         -1   -1    0    0    0  501 -0.00000000000E+00 -0.00000000000E+00 -0.61508199363E+03  0.61508199363E+03  0.00000000000E+00 0.  1.
         23    2    1    2    0    0 -0.14301086069E+03  0.39388572646E+03 -0.70557947281E+02  0.43519938188E+03  0.93925535821E+02 0.  0.
        254    2    1    2    0    0  0.14301086069E+03 -0.39388572646E+03  0.31508474165E+03  0.10394913997E+04  0.89758893928E+03 0.  0.
        -24    2    4    4    0    0  0.24678405245E+03 -0.60850769393E+03  0.44527307483E+02  0.66317197424E+03  0.81427293932E+02 0.  0.
         24    2    4    4    0    0 -0.10377319176E+03  0.21462196746E+03  0.27055743416E+03  0.37631942550E+03  0.10762676516E+03 0.  0.
         11    1    3    3    0    0 -0.10625643894E+03  0.31916409265E+03 -0.92905777199E+02  0.34898084803E+03  0.00000000000E+00 0. -1.
        -11    1    3    3    0    0 -0.36754421750E+02  0.74721633813E+02  0.22347829918E+02  0.86218533854E+02  0.00000000000E+00 0.  1.
          4    1    6    6  502    0 -0.10873274170E+03  0.20663207266E+03  0.27890765926E+03  0.36374318545E+03  0.00000000000E+00 0. -1.
          3    1    5    5  503    0  0.22334328257E+03 -0.56992886891E+03  0.21523398603E+02  0.61250664827E+03  0.00000000000E+00 0. -1.
         -4    1    5    5    0  503  0.23440769878E+02 -0.38578825016E+02  0.23003908880E+02  0.50665325972E+02  0.00000000000E+00 0.  1.
         -3    1    6    6    0  502  0.49595499346E+01  0.79898948020E+01 -0.83502250957E+01  0.12576240044E+02  0.00000000000E+00 0.  1.
<mgrwt>
<rscale>  0 0.14542763E+04</rscale>
<asrwt>0</asrwt>
<pdfrwt beam="1">  1        1 0.13224751E+00 0.14542763E+04</pdfrwt>
<pdfrwt beam="2">  1       -1 0.94627999E-01 0.14542763E+04</pdfrwt>
<totfact> 0.20624807E+01</totfact>
</mgrwt>
</event>
<event>
12    1  0.2404191E-008  0.1151530E+04  0.7818608E-02  0.9156373E-01
          1   -1    0    0  501    0  0.00000000000E+00  0.00000000000E+00  0.84713620901E+03  0.84713620901E+03  0.00000000000E+00 0. -1.
         -1   -1    0    0    0  501 -0.00000000000E+00 -0.00000000000E+00 -0.39132457601E+03  0.39132457601E+03  0.00000000000E+00 0.  1.
         23    2    1    2    0    0  0.74521215263E+02  0.17149134315E+03 -0.28414200444E+02  0.20602749923E+03  0.81714572455E+02 0.  0.
        254    2    1    2    0    0 -0.74521215263E+02 -0.17149134315E+03  0.48422583345E+03  0.10324332858E+04  0.89245792032E+03 0.  0.
        -24    2    4    4    0    0  0.34400875181E+03  0.47004833085E+02  0.42206802122E+03  0.55296609046E+03  0.84134457894E+02 0.  0.
         24    2    4    4    0    0 -0.41852996707E+03 -0.21849617623E+03  0.62157812225E+02  0.47946719534E+03  0.55832655487E+02 0.  0.
         11    1    3    3    0    0 -0.88558200627E+01  0.47211591877E+02  0.14787817189E+02  0.50259720391E+02  0.00000000000E+00 0. -1.
        -11    1    3    3    0    0  0.83377035326E+02  0.12427975127E+03 -0.43202017633E+02  0.15576777884E+03  0.00000000000E+00 0.  1.
          4    1    6    6  502    0 -0.25731307314E+03 -0.11932989447E+03  0.13102000804E+02  0.28393890848E+03  0.00000000000E+00 0. -1.
          3    1    5    5  503    0  0.14464993890E+03 -0.79255968662E+01  0.22304755910E+03  0.26596359437E+03  0.00000000000E+00 0. -1.
         -4    1    5    5    0  503  0.19935881290E+03  0.54930429951E+02  0.19902046212E+03  0.28700249609E+03  0.00000000000E+00 0.  1.
         -3    1    6    6    0  502 -0.16121689393E+03 -0.99166281763E+02  0.49055811421E+02  0.19552828685E+03  0.00000000000E+00 0.  1.
<mgrwt>
<rscale>  0 0.11515298E+04</rscale>
<asrwt>0</asrwt>
<pdfrwt beam="1">  1        1 0.13032865E+00 0.11515298E+04</pdfrwt>
<pdfrwt beam="2">  1       -1 0.60203781E-01 0.11515298E+04</pdfrwt>
<totfact> 0.55957041E+01</totfact>
</mgrwt>
</event>
<event>
11    1  0.2404191E-008  0.1676434E+04  0.7818608E-02  0.8774920E-01
         -2   -1    0    0    0  501 -0.00000000000E+00  0.00000000000E+00  0.24219193157E+03  0.24219193157E+03  0.00000000000E+00 0.  1.
          2   -1    0    0  501    0  0.00000000000E+00 -0.00000000000E+00 -0.29010365740E+04  0.29010365740E+04  0.00000000000E+00 0. -1.
         23    2    1    2    0    0  0.31629428622E+03  0.50016782247E+02 -0.78205403119E+01  0.33315553443E+03  0.91584361486E+02 0.  0.
        254    2    1    2    0    0 -0.31629428622E+03 -0.50016782247E+02 -0.26510241021E+04  0.28100729711E+04  0.87523571630E+03 0.  0.
        -24    2    4    4    0    0  0.47563791308E+02 -0.38744253289E+03 -0.14932347720E+04  0.15454719107E+04  0.79745294053E+02 0.  0.
         13    1    3    3    0    0  0.29197224689E+03  0.25530273222E+02 -0.25837078709E+02  0.29422294683E+03  0.00000000000E+00 0.  1.
        -13    1    3    3    0    0  0.24322039328E+02  0.24486509025E+02  0.18016538397E+02  0.38932587598E+02  0.00000000000E+00 0. -1.
          4    1    4    4  502    0 -0.19327358645E+03  0.21262713783E+03 -0.78679811699E+03  0.83762536725E+03  0.00000000000E+00 0. -1.
          3    1    5    5  503    0  0.18250965220E+02 -0.34043929054E+03 -0.12237531344E+04  0.12703557542E+04  0.00000000000E+00 0. -1.
         -4    1    5    5    0  503  0.29312826088E+02 -0.47003242345E+02 -0.26948163760E+03  0.27511615650E+03  0.00000000000E+00 0.  1.
         -3    1    4    4    0  502 -0.17058449107E+03  0.12479861281E+03 -0.37099121316E+03  0.42697569321E+03  0.00000000000E+00 0.  1.
<mgrwt>
<rscale>  0 0.16764339E+04</rscale>
<asrwt>0</asrwt>
<pdfrwt beam="1">  1        2 0.44631332E+00 0.16764339E+04</pdfrwt>
<pdfrwt beam="2">  1       -2 0.37260297E-01 0.16764339E+04</pdfrwt>
<totfact> 0.13043104E+01</totfact>
</mgrwt>
</event>
<event>
12    1  0.2404191E-008  0.2314593E+04  0.7818608E-02  0.8472189E-01
          2   -1    0    0  501    0  0.00000000000E+00  0.00000000000E+00  0.84593225158E+03  0.84593225158E+03  0.00000000000E+00 0.  1.
         -2   -1    0    0    0  501 -0.00000000000E+00 -0.00000000000E+00 -0.15832651655E+04  0.15832651655E+04  0.00000000000E+00 0. -1.
         23    2    1    2    0    0  0.96831724530E+03 -0.13835225858E+03 -0.27084970835E+03  0.10191084928E+04  0.91885366321E+02 0.  0.
        254    2    1    2    0    0 -0.96831724530E+03  0.13835225858E+03 -0.46648320559E+03  0.14100889243E+04  0.90219984394E+03 0.  0.
        -24    2    4    4    0    0 -0.11254031002E+04  0.54799249932E+02 -0.46733355661E+03  0.12224973305E+04  0.81018357607E+02 0.  0.
         24    2    4    4    0    0  0.15708585489E+03  0.83553008650E+02  0.85035102111E+00  0.18759159381E+03  0.59437462198E+02 0.  0.
         11    1    3    3    0    0  0.17743017776E+03  0.13284473464E+01 -0.24954184139E+02  0.17918131615E+03  0.00000000000E+00 0.  1.
        -11    1    3    3    0    0  0.79088706754E+03 -0.13968070593E+03 -0.24589552421E+03  0.83992717663E+03  0.00000000000E+00 0. -1.
          2    1    6    6  502    0  0.13835232678E+03  0.57969624389E+02  0.18759600621E+02  0.15117462185E+03  0.00000000000E+00 0. -1.
          3    1    5    5  503    0 -0.10029969768E+04  0.28576113826E+02 -0.39852032802E+03  0.10796471561E+04  0.00000000000E+00 0. -1.
         -4    1    5    5    0  503 -0.12240612336E+03  0.26223136106E+02 -0.68813228599E+02  0.14285017443E+03  0.00000000000E+00 0.  1.
         -1    1    6    6    0  502  0.18733528112E+02  0.25583384261E+02 -0.17909249600E+02  0.36416971963E+02  0.00000000000E+00 0.  1.
<mgrwt>
<rscale>  0 0.23145929E+04</rscale>
<asrwt>0</asrwt>
<pdfrwt beam="1">  1        2 0.13014342E+00 0.23145929E+04</pdfrwt>
<pdfrwt beam="2">  1       -2 0.24357926E+00 0.23145929E+04</pdfrwt>
<totfact> 0.20360244E+00</totfact>
</mgrwt>
</event>
<event>
12    1  0.4362892E-008  0.2726001E+04  0.7818608E-02  0.8326618E-01
          1   -1    0    0  501    0  0.00000000000E+00  0.00000000000E+00  0.14089962455E+04  0.14089962455E+04  0.00000000000E+00 0. -1.
         -1   -1    0    0    0  501 -0.00000000000E+00 -0.00000000000E+00 -0.13185058826E+04  0.13185058826E+04  0.00000000000E+00 0.  1.
         23    2    1    2    0    0  0.11214571336E+03  0.11474263950E+04  0.41453388285E+03  0.12285336773E+04  0.91064061710E+02 0.  0.
        254    2    1    2    0    0 -0.11214571336E+03 -0.11474263950E+04 -0.32404351992E+03  0.14989684508E+04  0.90151995027E+03 0.  0.
        -24    2    4    4    0    0 -0.82198279083E+02 -0.23243332341E+03 -0.49909646385E+03  0.56202153498E+03  0.77389396168E+02 0.  0.
         24    2    4    4    0    0 -0.29947434278E+02 -0.91499307155E+03  0.17505294393E+03  0.93694691579E+03  0.95482040380E+02 0.  0.
         11    1    3    3    0    0  0.89366827246E+02  0.10600492889E+04  0.36013150604E+03  0.11231142535E+04  0.00000000000E+00 0. -1.
        -11    1    3    3    0    0  0.22778886116E+02  0.87377106055E+02  0.54402376807E+02  0.10541942382E+03  0.00000000000E+00 0.  1.
          4    1    6    6  502    0 -0.51764959284E+02 -0.85410645969E+03  0.15924702624E+03  0.87036605567E+03  0.00000000000E+00 0. -1.
          3    1    5    5  503    0 -0.75199704432E+02 -0.23339980494E+03 -0.49768628485E+03  0.55481717946E+03  0.00000000000E+00 0. -1.
         -4    1    5    5    0  503 -0.69985746511E+01  0.96648153077E+00 -0.14101789993E+01  0.72043555233E+01  0.00000000000E+00 0.  1.
         -3    1    6    6    0  502  0.21817525006E+02 -0.60886611860E+02  0.15805917687E+02  0.66580860126E+02  0.00000000000E+00 0.  1.
<mgrwt>
<rscale>  0 0.27260006E+04</rscale>
<asrwt>0</asrwt>
<pdfrwt beam="1">  1        1 0.21676865E+00 0.27260006E+04</pdfrwt>
<pdfrwt beam="2">  1       -1 0.20284706E+00 0.27260006E+04</pdfrwt>
<totfact> 0.94904643E-01</totfact>
</mgrwt>
</event>
<event>
12    1  0.2404191E-008  0.2044173E+04  0.7818608E-02  0.8586242E-01
         -1   -1    0    0    0  501 -0.00000000000E+00  0.00000000000E+00  0.11031816091E+04  0.11031816091E+04  0.00000000000E+00 0.  1.
          1   -1    0    0  501    0  0.00000000000E+00 -0.00000000000E+00 -0.94695274004E+03  0.94695274004E+03  0.00000000000E+00 0. -1.
         23    2    1    2    0    0  0.55856966289E+03  0.38482003824E+03 -0.44275448766E+03  0.81527815683E+03  0.92522465024E+02 0.  0.
        254    2    1    2    0    0 -0.55856966289E+03 -0.38482003824E+03  0.59898335675E+03  0.12348561923E+04  0.84023938491E+03 0.  0.
        -24    2    4    4    0    0 -0.21285489764E+03 -0.50099759954E+03  0.64932525654E+03  0.85114512308E+03  0.80739888334E+02 0.  0.
         24    2    4    4    0    0 -0.34571476525E+03  0.11617756130E+03 -0.50341899798E+02  0.38371106925E+03  0.10809233612E+03 0.  0.
         13    1    3    3    0    0  0.25594131934E+03  0.18600073785E+03 -0.26087425363E+03  0.41007024963E+03  0.00000000000E+00 0. -1.
        -13    1    3    3    0    0  0.30262834355E+03  0.19881930039E+03 -0.18188023403E+03  0.40520790720E+03  0.00000000000E+00 0.  1.
          4    1    6    6  502    0 -0.40386943235E+02  0.52505913419E+02 -0.24944020783E+02  0.70782627111E+02  0.00000000000E+00 0. -1.
          3    1    5    5  503    0 -0.45645640758E+02 -0.51176683841E+02  0.59785040383E+02  0.90977077018E+02  0.00000000000E+00 0. -1.
         -4    1    5    5    0  503 -0.16720925688E+03 -0.44982091570E+03  0.58954021616E+03  0.76016804607E+03  0.00000000000E+00 0.  1.
         -3    1    6    6    0  502 -0.30532782201E+03  0.63671647880E+02 -0.25397879015E+02  0.31292844214E+03  0.00000000000E+00 0.  1.
<mgrwt>
<rscale>  0 0.20441730E+04</rscale>
<asrwt>0</asrwt>
<pdfrwt beam="1">  1        1 0.14568504E+00 0.20441730E+04</pdfrwt>
<pdfrwt beam="2">  1       -1 0.16972025E+00 0.20441730E+04</pdfrwt>
<totfact> 0.38083399E+00</totfact>
</mgrwt>
</event>
<event>
12    1  0.2404191E-008  0.1608691E+04  0.7818608E-02  0.8815226E-01
          2   -1    0    0  501    0  0.00000000000E+00  0.00000000000E+00  0.15090986543E+04  0.15090986543E+04  0.00000000000E+00 0. -1.
         -2   -1    0    0    0  501 -0.00000000000E+00 -0.00000000000E+00 -0.42871420757E+03  0.42871420757E+03  0.00000000000E+00 0.  1.
         23    2    1    2    0    0 -0.10555481190E+03  0.22101386685E+02  0.10255618898E+04  0.10354079864E+04  0.93071041145E+02 0.  0.
        254    2    1    2    0    0  0.10555481190E+03 -0.22101386685E+02  0.54822556893E+02  0.90240487551E+03  0.89425877519E+03 0.  0.
        -24    2    4    4    0    0  0.15963729980E+03  0.23506444330E+03  0.37313914442E+03  0.47608125053E+03  0.81738461100E+02 0.  0.
         24    2    4    4    0    0 -0.54082487905E+02 -0.25716582998E+03 -0.31831658752E+03  0.42632362498E+03  0.10661708922E+03 0.  0.
         11    1    3    3    0    0 -0.94838589022E+02 -0.19497970651E+02  0.79543331574E+03  0.80130436702E+03  0.00000000000E+00 0. -1.
        -11    1    3    3    0    0 -0.10716222874E+02  0.41599357336E+02  0.23012857411E+03  0.23410361933E+03  0.00000000000E+00 0.  1.
          4    1    6    6  502    0 -0.65280830924E+01 -0.17104069359E+03 -0.26202166004E+03  0.31297425623E+03  0.00000000000E+00 0. -1.
          3    1    5    5  503    0  0.14865668554E+03  0.21265810693E+03  0.28930491060E+03  0.38861241861E+03  0.00000000000E+00 0. -1.
         -4    1    5    5    0  503  0.10980614261E+02  0.22406336365E+02  0.83834233810E+02  0.87468831920E+02  0.00000000000E+00 0.  1.
         -3    1    6    6    0  502 -0.47554404813E+02 -0.86125136393E+02 -0.56294927486E+02  0.11334936875E+03  0.00000000000E+00 0.  1.
<mgrwt>
<rscale>  0 0.16086914E+04</rscale>
<asrwt>0</asrwt>
<pdfrwt beam="1">  1        2 0.23216902E+00 0.16086914E+04</pdfrwt>
<pdfrwt beam="2">  1       -2 0.65956032E-01 0.16086914E+04</pdfrwt>
<totfact> 0.25428708E+01</totfact>
</mgrwt>
</event>
<event>
11    1  0.2404191E-008  0.2040185E+04  0.7818608E-02  0.8588060E-01
         -2   -1    0    0    0  501 -0.00000000000E+00  0.00000000000E+00  0.10143341581E+04  0.10143341581E+04  0.00000000000E+00 0.  1.
          2   -1    0    0  501    0  0.00000000000E+00 -0.00000000000E+00 -0.10258833464E+04  0.10258833464E+04  0.00000000000E+00 0. -1.
         23    2    1    2    0    0  0.62152054729E+03 -0.38897938229E+03 -0.35153648994E+03  0.81813900754E+03  0.90447671868E+02 0.  0.
        254    2    1    2    0    0 -0.62152054729E+03  0.38897938229E+03  0.33998730169E+03  0.12220784970E+04  0.91667428074E+03 0.  0.
        -24    2    4    4    0    0 -0.42673315497E+03  0.59023652639E+03  0.43652373605E+03  0.85309931718E+03  0.82128741643E+02 0.  0.
         11    1    3    3    0    0  0.57255640252E+03 -0.34177116839E+03 -0.34219926923E+03  0.74948562726E+03  0.00000000000E+00 0. -1.
        -11    1    3    3    0    0  0.48964144764E+02 -0.47208213905E+02 -0.93372207090E+01  0.68653380275E+02  0.00000000000E+00 0.  1.
          2    1    4    4  502    0 -0.14460383222E+03 -0.52260021040E+02 -0.13775904592E+03  0.20644353423E+03  0.00000000000E+00 0. -1.
          1    1    5    5  503    0 -0.36660398514E+03  0.45930326780E+03  0.36960206134E+03  0.69423602433E+03  0.00000000000E+00 0. -1.
         -2    1    5    5    0  503 -0.60129169832E+02  0.13093325859E+03  0.66921674715E+02  0.15886329285E+03  0.00000000000E+00 0.  1.
         -1    1    4    4    0  502 -0.50183560093E+02 -0.14899712306E+03  0.41222611552E+02  0.16253564559E+03  0.00000000000E+00 0.  1.
<mgrwt>
<rscale>  0 0.20401848E+04</rscale>
<asrwt>0</asrwt>
<pdfrwt beam="1">  1        2 0.15782821E+00 0.20401848E+04</pdfrwt>
<pdfrwt beam="2">  1       -2 0.15605141E+00 0.20401848E+04</pdfrwt>
<totfact> 0.60518323E+00</totfact>
</mgrwt>
</event>
<event>
11    1  0.2404191E-008  0.1190659E+04  0.7818608E-02  0.9121072E-01
          2   -1    0    0  501    0  0.00000000000E+00  0.00000000000E+00  0.19744778619E+04  0.19744778619E+04  0.00000000000E+00 0. -1.
         -2   -1    0    0    0  501 -0.00000000000E+00 -0.00000000000E+00 -0.17949917719E+03  0.17949917719E+03  0.00000000000E+00 0.  1.
         23    2    1    2    0    0 -0.10689437863E+03  0.10324563785E+03  0.78512476604E+03  0.80454403804E+03  0.93723748250E+02 0.  0.
        254    2    1    2    0    0  0.10689437863E+03 -0.10324563785E+03  0.10098539187E+04  0.13494330010E+04  0.88265418897E+03 0.  0.
        -24    2    4    4    0    0  0.46650974693E+02 -0.46665959681E+03  0.64448350759E+03  0.80109325841E+03  0.80274057952E+02 0.  0.
         11    1    3    3    0    0 -0.10671484701E+03  0.11201860551E+03  0.77801975534E+03  0.79325340608E+03  0.00000000000E+00 0. -1.
        -11    1    3    3    0    0 -0.17953162804E+00 -0.87729676621E+01  0.71050106996E+01  0.11290631968E+02  0.00000000000E+00 0.  1.
          2    1    4    4  502    0  0.10098570218E+03  0.13153840813E+03  0.20407623811E+03  0.26295926646E+03  0.00000000000E+00 0. -1.
          1    1    5    5  503    0  0.41549826731E+02 -0.43304296084E+03  0.62621604218E+03  0.76249532819E+03  0.00000000000E+00 0. -1.
         -2    1    5    5    0  503  0.51011479622E+01 -0.33616635971E+02  0.18267465412E+02  0.38597930218E+02  0.00000000000E+00 0.  1.
         -1    1    4    4    0  502 -0.40742298243E+02  0.23187555083E+03  0.16129417295E+03  0.28538047615E+03  0.00000000000E+00 0.  1.
<mgrwt>
<rscale>  0 0.11906589E+04</rscale>
<asrwt>0</asrwt>
<pdfrwt beam="1">  1        2 0.30376581E+00 0.11906589E+04</pdfrwt>
<pdfrwt beam="2">  1       -2 0.27615259E-01 0.11906589E+04</pdfrwt>
<totfact> 0.81609927E+01</totfact>
</mgrwt>
</event>
<event>
11    1  0.2404191E-008  0.1162039E+04  0.7818608E-02  0.9146748E-01
         -1   -1    0    0    0  501 -0.00000000000E+00  0.00000000000E+00  0.17305958285E+03  0.17305958285E+03  0.00000000000E+00 0.  1.
          1   -1    0    0  501    0  0.00000000000E+00 -0.00000000000E+00 -0.19506794272E+04  0.19506794272E+04  0.00000000000E+00 0. -1.
         23    2    1    2    0    0 -0.13847106444E+03  0.96347510785E+02 -0.11124080838E+03  0.22066207773E+03  0.88657524079E+02 0.  0.
        254    2    1    2    0    0  0.13847106444E+03 -0.96347510785E+02 -0.16663790360E+04  0.19030769323E+04  0.90356274839E+03 0.  0.
        -24    2    4    4    0    0 -0.36277771349E+03 -0.88720686427E+02 -0.73529517468E+03  0.82852802668E+03  0.79502625593E+02 0.  0.
         13    1    3    3    0    0 -0.10592975666E+03  0.10718303966E+03 -0.67619257552E+02  0.16517167230E+03  0.00000000000E+00 0.  1.
        -13    1    3    3    0    0 -0.32541307774E+02 -0.10835528877E+02 -0.43621550830E+02  0.55490405428E+02  0.00000000000E+00 0. -1.
          4    1    4    4  502    0  0.51337805803E+03  0.89664399086E+01 -0.91144478399E+03  0.10461209403E+04  0.00000000000E+00 0. -1.
          1    1    5    5  503    0 -0.25497781712E+03 -0.70949543929E+02 -0.43752196815E+03  0.51134430438E+03  0.00000000000E+00 0. -1.
         -2    1    5    5    0  503 -0.10779989637E+03 -0.17771142498E+02 -0.29777320654E+03  0.31718372230E+03  0.00000000000E+00 0.  1.
         -3    1    4    4    0  502 -0.12129280101E+02 -0.16593264267E+02 -0.19639077281E+02  0.28427965302E+02  0.00000000000E+00 0.  1.
<mgrwt>
<rscale>  0 0.11620392E+04</rscale>
<asrwt>0</asrwt>
<pdfrwt beam="1">  1        1 0.30010452E+00 0.11620392E+04</pdfrwt>
<pdfrwt beam="2">  1       -1 0.26624552E-01 0.11620392E+04</pdfrwt>
<totfact> 0.40213481E+01</totfact>
</mgrwt>
</event>
<event>
12    1  0.2404191E-008  0.2102346E+04  0.7818608E-02  0.8560211E-01
         -2   -1    0    0    0  501 -0.00000000000E+00  0.00000000000E+00  0.12401251186E+04  0.12401251186E+04  0.00000000000E+00 0.  1.
          2   -1    0    0  501    0  0.00000000000E+00 -0.00000000000E+00 -0.89101027854E+03  0.89101027854E+03  0.00000000000E+00 0. -1.
         23    2    1    2    0    0  0.48208173028E+03  0.69352419767E+03  0.24120370706E+03  0.88358595794E+03  0.95740844698E+02 0.  0.
        254    2    1    2    0    0 -0.48208173028E+03 -0.69352419767E+03  0.10791113300E+03  0.12475494392E+04  0.91178735634E+03 0.  0.
        -24    2    4    4    0    0 -0.29279700127E+03 -0.67142192359E+03 -0.29411850029E+03  0.79334825914E+03  0.79738852699E+02 0.  0.
         24    2    4    4    0    0 -0.18928472901E+03 -0.22102274074E+02  0.40202963328E+03  0.45420118005E+03  0.91398395887E+02 0.  0.
         11    1    3    3    0    0  0.22986773722E+03  0.33278110729E+03  0.16526785657E+03  0.43691636087E+03  0.00000000000E+00 0.  1.
        -11    1    3    3    0    0  0.25221399306E+03  0.36074309038E+03  0.75935850487E+02  0.44666959706E+03  0.00000000000E+00 0. -1.
          2    1    6    6  502    0 -0.10371892851E+02  0.16418730572E+02  0.10656829908E+02  0.22152175933E+02  0.00000000000E+00 0. -1.
          3    1    5    5  503    0 -0.88507614203E+02 -0.15363254283E+03 -0.41616229188E+02  0.18212211980E+03  0.00000000000E+00 0. -1.
         -4    1    5    5    0  503 -0.20428938707E+03 -0.51778938077E+03 -0.25250227110E+03  0.61122613934E+03  0.00000000000E+00 0.  1.
         -1    1    6    6    0  502 -0.17891283616E+03 -0.38521004646E+02  0.39137280337E+03  0.43204900412E+03  0.00000000000E+00 0.  1.
<mgrwt>
<rscale>  0 0.21023456E+04</rscale>
<asrwt>0</asrwt>
<pdfrwt beam="1">  1        2 0.13707850E+00 0.21023456E+04</pdfrwt>
<pdfrwt beam="2">  1       -2 0.19078848E+00 0.21023456E+04</pdfrwt>
<totfact> 0.41938350E+00</totfact>
</mgrwt>
</event>
<event>
12    1  0.2404191E-008  0.2823709E+04  0.7818608E-02  0.8295945E-01
          1   -1    0    0  501    0  0.00000000000E+00  0.00000000000E+00  0.12035509982E+04  0.12035509982E+04  0.00000000000E+00 0. -1.
         -1   -1    0    0    0  501 -0.00000000000E+00 -0.00000000000E+00 -0.16562098797E+04  0.16562098797E+04  0.00000000000E+00 0.  1.
         23    2    1    2    0    0  0.38696644231E+03 -0.80047691330E+03  0.71058174863E+03  0.11414399398E+04  0.86327275875E+02 0.  0.
        254    2    1    2    0    0 -0.38696644231E+03  0.80047691330E+03 -0.11632406301E+04  0.17183209381E+04  0.89943969593E+03 0.  0.
        -24    2    4    4    0    0 -0.66103343184E+02  0.87461603146E+03 -0.10201758750E+04  0.13477995081E+04  0.80509897679E+02 0.  0.
         24    2    4    4    0    0 -0.32086309912E+03 -0.74139118158E+02 -0.14306475508E+03  0.37052143000E+03  0.91481521193E+02 0.  0.
         13    1    3    3    0    0  0.13966177629E+03 -0.38126946717E+03  0.34267291454E+03  0.53131586153E+03  0.00000000000E+00 0.  1.
        -13    1    3    3    0    0  0.24730466601E+03 -0.41920744612E+03  0.36790883409E+03  0.61012407830E+03  0.00000000000E+00 0. -1.
          4    1    6    6  502    0 -0.19952829307E+02 -0.27285753599E+02 -0.31465259260E+02  0.46181059831E+02  0.00000000000E+00 0. -1.
          3    1    5    5  503    0  0.17660920770E+01  0.14817335529E+00  0.68103928028E+00  0.18986445346E+01  0.00000000000E+00 0. -1.
         -4    1    5    5    0  503 -0.67869435261E+02  0.87446785810E+03 -0.10208569143E+04  0.13459008636E+04  0.00000000000E+00 0.  1.
         -3    1    6    6    0  502 -0.30091026982E+03 -0.46853364559E+02 -0.11159949582E+03  0.32434037016E+03  0.00000000000E+00 0.  1.
<mgrwt>
<rscale>  0 0.28237089E+04</rscale>
<asrwt>0</asrwt>
<pdfrwt beam="1">  1        1 0.18516169E+00 0.28237089E+04</pdfrwt>
<pdfrwt beam="2">  1       -1 0.25480152E+00 0.28237089E+04</pdfrwt>
<totfact> 0.59523853E-01</totfact>
</mgrwt>
</event>
<event>
11    1  0.2404191E-008  0.2877086E+04  0.7818608E-02  0.8279728E-01
          1   -1    0    0  501    0  0.00000000000E+00  0.00000000000E+00  0.15775323991E+04  0.15775323991E+04  0.00000000000E+00 0. -1.
         -1   -1    0    0    0  501 -0.00000000000E+00 -0.00000000000E+00 -0.13117992773E+04  0.13117992773E+04  0.00000000000E+00 0.  1.
         23    2    1    2    0    0 -0.37901649184E+02 -0.59905329034E+03  0.12688554613E+04  0.14066592365E+04  0.91622302204E+02 0.  0.
        254    2    1    2    0    0  0.37901649184E+02  0.59905329034E+03 -0.10031223396E+04  0.14826724399E+04  0.91200973460E+03 0.  0.
        -24    2    4    4    0    0 -0.33750732424E+03  0.50021670468E+03 -0.39249794552E+03  0.72446743149E+03  0.81672985067E+02 0.  0.
         13    1    3    3    0    0 -0.11111395040E+02 -0.28471829998E+03  0.49809162349E+03  0.57383206501E+03  0.00000000000E+00 0.  1.
        -13    1    3    3    0    0 -0.26790254143E+02 -0.31433499036E+03  0.77076383785E+03  0.83282717151E+03  0.00000000000E+00 0. -1.
          4    1    4    4  502    0  0.32057312067E+03  0.11742895235E+03 -0.61144051258E+03  0.70029721188E+03  0.00000000000E+00 0. -1.
          1    1    5    5  503    0 -0.20409240970E+03  0.27728190696E+03 -0.26835852270E+03  0.43652636155E+03  0.00000000000E+00 0. -1.
         -2    1    5    5    0  503 -0.13341491454E+03  0.22293479772E+03 -0.12413942282E+03  0.28794106993E+03  0.00000000000E+00 0.  1.
         -3    1    4    4    0  502  0.54835852757E+02 -0.18592366689E+02  0.81611846795E+00  0.57907796505E+02  0.00000000000E+00 0.  1.
<mgrwt>
<rscale>  0 0.28770859E+04</rscale>
<asrwt>0</asrwt>
<pdfrwt beam="1">  1        1 0.24269729E+00 0.28770859E+04</pdfrwt>
<pdfrwt beam="2">  1       -1 0.20181527E+00 0.28770859E+04</pdfrwt>
<totfact> 0.72724030E-01</totfact>
</mgrwt>
</event>
<event>
12    1  0.2404191E-008  0.2212384E+04  0.7818608E-02  0.8513291E-01
         -1   -1    0    0    0  501 -0.00000000000E+00  0.00000000000E+00  0.52650858202E+03  0.52650858202E+03  0.00000000000E+00 0.  1.
          1   -1    0    0  501    0  0.00000000000E+00 -0.00000000000E+00 -0.23241040626E+04  0.23241040626E+04  0.00000000000E+00 0. -1.
         23    2    1    2    0    0  0.59059098271E+03 -0.40297527631E+03 -0.64215785459E+01  0.72065908086E+03  0.90119320821E+02 0.  0.
        254    2    1    2    0    0 -0.59059098271E+03  0.40297527631E+03 -0.17911739020E+04  0.21299535637E+04  0.90399748574E+03 0.  0.
        -24    2    4    4    0    0 -0.54463328491E+03  0.66526384076E+03 -0.13748947150E+04  0.16235638193E+04  0.80141157301E+02 0.  0.
         24    2    4    4    0    0 -0.45957697804E+02 -0.26228856446E+03 -0.41627918696E+03  0.50638974441E+03  0.11061107861E+03 0.  0.
         11    1    3    3    0    0  0.28478414580E+02 -0.44564687136E+02 -0.10855109035E+02  0.53989488131E+02  0.00000000000E+00 0. -1.
        -11    1    3    3    0    0  0.56211256813E+03 -0.35841058917E+03  0.44335304895E+01  0.66666959273E+03  0.00000000000E+00 0.  1.
          2    1    6    6  502    0 -0.58934873409E+02 -0.26425419555E+03 -0.41117007555E+03  0.49230522057E+03  0.00000000000E+00 0. -1.
          3    1    5    5  503    0 -0.41707409559E+03  0.53965435695E+03 -0.10372816010E+04  0.12414228715E+04  0.00000000000E+00 0. -1.
         -4    1    5    5    0  503 -0.12755918932E+03  0.12560948381E+03 -0.33761311403E+03  0.38214094777E+03  0.00000000000E+00 0.  1.
         -1    1    6    6    0  502  0.12977175605E+02  0.19656310975E+01 -0.51091114095E+01  0.14084523836E+02  0.00000000000E+00 0.  1.
<mgrwt>
<rscale>  0 0.22123840E+04</rscale>
<asrwt>0</asrwt>
<pdfrwt beam="1">  1        1 0.35755447E+00 0.22123840E+04</pdfrwt>
<pdfrwt beam="2">  1       -1 0.81001322E-01 0.22123840E+04</pdfrwt>
<totfact> 0.24782446E+00</totfact>
</mgrwt>
</event>
<event>
11    1  0.2404191E-008  0.1647600E+04  0.7818608E-02  0.8791827E-01
          2   -1    0    0  501    0  0.00000000000E+00  0.00000000000E+00  0.17823787984E+04  0.17823787984E+04  0.00000000000E+00 0. -1.
         -2   -1    0    0    0  501 -0.00000000000E+00 -0.00000000000E+00 -0.38075337696E+03  0.38075337696E+03  0.00000000000E+00 0.  1.
         23    2    1    2    0    0  0.45606420322E+03 -0.32921871700E+03  0.44081996432E+03  0.72057854627E+03  0.92367090084E+02 0.  0.
        254    2    1    2    0    0 -0.45606420322E+03  0.32921871700E+03  0.96080545711E+03  0.14425536291E+04  0.91729729382E+03 0.  0.
        -24    2    4    4    0    0 -0.42020140996E+03  0.60896053532E+03  0.76938614696E+03  0.10703611746E+04  0.79472274558E+02 0.  0.
         13    1    3    3    0    0  0.13444123760E+03 -0.92151986546E+02  0.18301431848E+03  0.24507279686E+03  0.00000000000E+00 0. -1.
        -13    1    3    3    0    0  0.32162296562E+03 -0.23706673045E+03  0.25780564584E+03  0.47550574941E+03  0.00000000000E+00 0.  1.
          2    1    4    4  502    0 -0.17034553982E+02 -0.24187052567E+03  0.21474474986E+03  0.32389324601E+03  0.00000000000E+00 0. -1.
          1    1    5    5  503    0 -0.40866066842E+03  0.55853696196E+03  0.70759516554E+03  0.98977674154E+03  0.00000000000E+00 0. -1.
         -2    1    5    5    0  503 -0.11540741539E+02  0.50423573357E+02  0.61790981415E+02  0.80584433048E+02  0.00000000000E+00 0.  1.
         -1    1    4    4    0  502 -0.18828239274E+02 -0.37871292651E+02 -0.23325439713E+02  0.48299208472E+02  0.00000000000E+00 0.  1.
<mgrwt>
<rscale>  0 0.16476004E+04</rscale>
<asrwt>0</asrwt>
<pdfrwt beam="1">  1        2 0.27421212E+00 0.16476004E+04</pdfrwt>
<pdfrwt beam="2">  1       -2 0.58577444E-01 0.16476004E+04</pdfrwt>
<totfact> 0.22971964E+01</totfact>
</mgrwt>
</event>
<event>
11    1  0.2404191E-008  0.1044396E+04  0.7818608E-02  0.9261149E-01
          1   -1    0    0  501    0  0.00000000000E+00  0.00000000000E+00  0.32421429227E+03  0.32421429227E+03  0.00000000000E+00 0. -1.
         -1   -1    0    0    0  501 -0.00000000000E+00 -0.00000000000E+00 -0.84108216746E+03  0.84108216746E+03  0.00000000000E+00 0.  1.
         23    2    1    2    0    0  0.88866916346E+02 -0.78903958158E+02 -0.78442657452E+02  0.17163969243E+03  0.95831988793E+02 0.  0.
        254    2    1    2    0    0 -0.88866916346E+02  0.78903958158E+02 -0.43842521774E+03  0.99365676730E+03  0.88374992855E+03 0.  0.
        -24    2    4    4    0    0 -0.22753582604E+03  0.43126613414E+03 -0.22979777445E+03  0.54490380395E+03  0.79687563809E+02 0.  0.
         13    1    3    3    0    0  0.10663000808E+03 -0.80367332040E+02 -0.76030759585E+02  0.15365397192E+03  0.00000000000E+00 0.  1.
        -13    1    3    3    0    0 -0.17763091736E+02  0.14633738822E+01 -0.24118978673E+01  0.17985720515E+02  0.00000000000E+00 0. -1.
          4    1    4    4  502    0 -0.13276591522E+02 -0.65101206162E+01  0.39293810312E+01  0.15299986541E+02  0.00000000000E+00 0. -1.
          1    1    5    5  503    0 -0.10535873234E+03  0.23375351662E+03 -0.80216417670E+02  0.26865562096E+03  0.00000000000E+00 0. -1.
         -2    1    5    5    0  503 -0.12217709370E+03  0.19751261752E+03 -0.14958135678E+03  0.27624818298E+03  0.00000000000E+00 0.  1.
         -3    1    4    4    0  502  0.15194550121E+03 -0.34585205537E+03 -0.21255682433E+03  0.43345297681E+03  0.00000000000E+00 0.  1.
<mgrwt>
<rscale>  0 0.10443962E+04</rscale>
<asrwt>0</asrwt>
<pdfrwt beam="1">  1        1 0.49879122E-01 0.10443962E+04</pdfrwt>
<pdfrwt beam="2">  1       -1 0.12939726E+00 0.10443962E+04</pdfrwt>
<totfact> 0.40652329E+01</totfact>
</mgrwt>
</event>
<event>
12    1  0.2404191E-008  0.2081759E+04  0.7818608E-02  0.8569321E-01
         -2   -1    0    0    0  501 -0.00000000000E+00  0.00000000000E+00  0.43569998590E+03  0.43569998590E+03  0.00000000000E+00 0.  1.
          2   -1    0    0  501    0  0.00000000000E+00 -0.00000000000E+00 -0.24866430063E+04  0.24866430063E+04  0.00000000000E+00 0. -1.
         23    2    1    2    0    0  0.75030675874E+03 -0.14460077360E+03 -0.33921068399E+03  0.84093985764E+03  0.90809361289E+02 0.  0.
        254    2    1    2    0    0 -0.75030675874E+03  0.14460077360E+03 -0.17117323364E+04  0.20814031346E+04  0.90462246330E+03 0.  0.
        -24    2    4    4    0    0 -0.32004949403E+03 -0.12942478708E+03 -0.14637563794E+04  0.15066116242E+04  0.90074377978E+02 0.  0.
         24    2    4    4    0    0 -0.43025726471E+03  0.27402556068E+03 -0.24797595696E+03  0.57479151040E+03  0.93176625006E+02 0.  0.
         13    1    3    3    0    0  0.28750135975E+03 -0.10020440414E+03 -0.14078226035E+03  0.33543643108E+03  0.00000000000E+00 0. -1.
        -13    1    3    3    0    0  0.46280539899E+03 -0.44396369467E+02 -0.19842842364E+03  0.50550342656E+03  0.00000000000E+00 0.  1.
          4    1    6    6  502    0 -0.23802844615E+03  0.10130266116E+03 -0.10270323603E+03  0.27833024454E+03  0.00000000000E+00 0. -1.
          1    1    5    5  503    0 -0.25501760334E+03 -0.12873830087E+03 -0.12855774800E+04  0.13169346928E+04  0.00000000000E+00 0. -1.
         -2    1    5    5    0  503 -0.65031890690E+02 -0.68648620787E+00 -0.17817889947E+03  0.18967693135E+03  0.00000000000E+00 0.  1.
         -3    1    6    6    0  502 -0.19222881856E+03  0.17272289953E+03 -0.14527272094E+03  0.29646126586E+03  0.00000000000E+00 0.  1.
<mgrwt>
<rscale>  0 0.20817592E+04</rscale>
<asrwt>0</asrwt>
<pdfrwt beam="1">  1        2 0.38256047E+00 0.20817592E+04</pdfrwt>
<pdfrwt beam="2">  1       -2 0.67030766E-01 0.20817592E+04</pdfrwt>
<totfact> 0.66833779E+00</totfact>
</mgrwt>
</event>
<event>
11    1  0.2404191E-008  0.2935866E+04  0.7818608E-02  0.8262286E-01
          1   -1    0    0  501    0  0.00000000000E+00  0.00000000000E+00  0.38013465172E+04  0.38013465172E+04  0.00000000000E+00 0. -1.
         -1   -1    0    0    0  501 -0.00000000000E+00 -0.00000000000E+00 -0.56685902778E+03  0.56685902778E+03  0.00000000000E+00 0.  1.
         23    2    1    2    0    0 -0.86809511210E+03 -0.79954179941E+03  0.24074771832E+04  0.26826171771E+04  0.87363143367E+02 0.  0.
        254    2    1    2    0    0  0.86809511210E+03  0.79954179941E+03  0.82701030625E+03  0.16855883679E+04  0.87430308623E+03 0.  0.
        -24    2    4    4    0    0  0.67725282926E+03  0.76123587279E+03  0.96953609579E+03  0.14087485851E+04  0.80130433124E+02 0.  0.
         13    1    3    3    0    0 -0.31513963325E+03 -0.23438122570E+03  0.79560393081E+03  0.88726160862E+03  0.00000000000E+00 0.  1.
        -13    1    3    3    0    0 -0.55295547885E+03 -0.56516057371E+03  0.16118732524E+04  0.17953555685E+04  0.00000000000E+00 0. -1.
          2    1    4    4  502    0  0.11744358165E+03  0.41184381363E+02 -0.15864506910E+03  0.20163681730E+03  0.00000000000E+00 0. -1.
          1    1    5    5  503    0  0.63742305234E+03  0.68814909779E+03  0.90516431559E+03  0.13035258980E+04  0.00000000000E+00 0. -1.
         -2    1    5    5    0  503  0.39829776922E+02  0.73086774993E+02  0.64371780195E+02  0.10522268716E+03  0.00000000000E+00 0.  1.
         -1    1    4    4    0  502  0.73398701183E+02 -0.28784547359E+01  0.16119279561E+02  0.75202965437E+02  0.00000000000E+00 0.  1.
<mgrwt>
<rscale>  0 0.29358662E+04</rscale>
<asrwt>0</asrwt>
<pdfrwt beam="1">  1        1 0.58482253E+00 0.29358662E+04</pdfrwt>
<pdfrwt beam="2">  1       -1 0.87209084E-01 0.29358662E+04</pdfrwt>
<totfact> 0.15739713E-01</totfact>
</mgrwt>
</event>
<event>
12    1  0.2404191E-008  0.1257481E+04  0.7818608E-02  0.9063979E-01
          2   -1    0    0  501    0  0.00000000000E+00  0.00000000000E+00  0.32641668141E+04  0.32641668141E+04  0.00000000000E+00 0. -1.
         -2   -1    0    0    0  501 -0.00000000000E+00 -0.00000000000E+00 -0.12110743461E+03  0.12110743461E+03  0.00000000000E+00 0.  1.
         23    2    1    2    0    0 -0.25966383213E+03  0.12231517513E+03  0.11131450050E+04  0.11523459771E+04  0.80144501266E+02 0.  0.
        254    2    1    2    0    0  0.25966383213E+03 -0.12231517513E+03  0.20299143745E+04  0.22329282716E+04  0.88488981825E+03 0.  0.
        -24    2    4    4    0    0  0.18583142343E+03  0.34492848337E+03  0.56601140035E+03  0.69331620608E+03  0.82519571667E+02 0.  0.
         24    2    4    4    0    0  0.73832408705E+02 -0.46724365851E+03  0.14639029742E+04  0.15396120655E+04  0.60212403408E+02 0.  0.
         13    1    3    3    0    0 -0.16950099139E+02 -0.96167503615E+01  0.44668420262E+02  0.48734541314E+02  0.00000000000E+00 0.  1.
        -13    1    3    3    0    0 -0.24271373299E+03  0.13193192550E+03  0.10684765847E+04  0.11036114358E+04  0.00000000000E+00 0. -1.
          2    1    6    6  502    0 -0.30206640453E+01 -0.11683276506E+02  0.72938754674E+02  0.73930273194E+02  0.00000000000E+00 0. -1.
          3    1    5    5  503    0  0.11225987192E+03  0.23298123447E+03  0.43419344712E+03  0.50537756577E+03  0.00000000000E+00 0. -1.
         -4    1    5    5    0  503  0.73571551511E+02  0.11194724890E+03  0.13181795324E+03  0.18793864032E+03  0.00000000000E+00 0.  1.
         -1    1    6    6    0  502  0.76853072750E+02 -0.45556038200E+03  0.13909642195E+04  0.14656817923E+04  0.00000000000E+00 0.  1.
<mgrwt>
<rscale>  0 0.12574814E+04</rscale>
<asrwt>0</asrwt>
<pdfrwt beam="1">  1        2 0.50217944E+00 0.12574814E+04</pdfrwt>
<pdfrwt beam="2">  1       -2 0.18631915E-01 0.12574814E+04</pdfrwt>
<totfact> 0.28485956E+01</totfact>
</mgrwt>
</event>
<event>
11    1  0.2404191E-008  0.1443039E+04  0.7818608E-02  0.8923241E-01
          1   -1    0    0  501    0  0.00000000000E+00  0.00000000000E+00  0.61251979431E+03  0.61251979431E+03  0.00000000000E+00 0. -1.
         -1   -1    0    0    0  501 -0.00000000000E+00 -0.00000000000E+00 -0.84991619194E+03  0.84991619194E+03  0.00000000000E+00 0.  1.
         23    2    1    2    0    0  0.25080901599E+03  0.11408713909E+03 -0.42876565359E+03  0.51758837071E+03  0.90203647331E+02 0.  0.
        254    2    1    2    0    0 -0.25080901599E+03 -0.11408713909E+03  0.19136925596E+03  0.94484761554E+03  0.88328578991E+03 0.  0.
        -24    2    4    4    0    0 -0.14897216703E+03  0.37033573541E+03  0.44589365977E+02  0.40979577237E+03  0.81259461129E+02 0.  0.
         13    1    3    3    0    0  0.16437540253E+03  0.99890378103E+02 -0.35196865922E+03  0.40109761614E+03  0.00000000000E+00 0. -1.
        -13    1    3    3    0    0  0.86433613459E+02  0.14196760987E+02 -0.76796994363E+02  0.11649075457E+03  0.00000000000E+00 0.  1.
          2    1    4    4  502    0 -0.22670838615E+02 -0.34679007972E+03  0.55579687429E+02  0.35194662659E+03  0.00000000000E+00 0. -1.
          1    1    5    5  503    0 -0.53469773298E+02  0.50407293497E+02  0.80717903845E+01  0.73926082638E+02  0.00000000000E+00 0. -1.
         -2    1    5    5    0  503 -0.95502393728E+02  0.31992844191E+03  0.36517575592E+02  0.33586968973E+03  0.00000000000E+00 0.  1.
         -1    1    4    4    0  502 -0.79166010352E+02 -0.13763279478E+03  0.91200202553E+02  0.18310521658E+03  0.00000000000E+00 0.  1.
<mgrwt>
<rscale>  0 0.14430391E+04</rscale>
<asrwt>0</asrwt>
<pdfrwt beam="1">  1        1 0.94233815E-01 0.14430391E+04</pdfrwt>
<pdfrwt beam="2">  1       -1 0.13075634E+00 0.14430391E+04</pdfrwt>
<totfact> 0.16144944E+01</totfact>
</mgrwt>
</event>
<event>
11    1  0.2404191E-008  0.1642422E+04  0.7818608E-02  0.8794902E-01
         -2   -1    0    0    0  501 -0.00000000000E+00  0.00000000000E+00  0.17216772720E+03  0.17216772720E+03  0.00000000000E+00 0.  1.
          2   -1    0    0  501    0  0.00000000000E+00 -0.00000000000E+00 -0.39170359526E+04  0.39170359526E+04  0.00000000000E+00 0. -1.
         23    2    1    2    0    0  0.24459778212E+03  0.95182092078E+02 -0.25763058116E+04  0.25911809014E+04  0.89325939696E+02 0.  0.
        254    2    1    2    0    0 -0.24459778212E+03 -0.95182092078E+02 -0.11685624138E+04  0.14980227784E+04  0.89980354735E+03 0.  0.
        -24    2    4    4    0    0 -0.15399067548E+03  0.37001034479E+03 -0.74230878112E+03  0.84748548361E+03  0.81169791252E+02 0.  0.
         13    1    3    3    0    0  0.60351359209E+02 -0.60663395941E+01 -0.84144085014E+03  0.84362420029E+03  0.00000000000E+00 0.  1.
        -13    1    3    3    0    0  0.18424642291E+03  0.10124843167E+03 -0.17348649614E+04  0.17475567011E+04  0.00000000000E+00 0. -1.
          4    1    4    4  502    0  0.17710448122E+02 -0.14257841854E+02 -0.44067738793E+02  0.49587414021E+02  0.00000000000E+00 0. -1.
          1    1    5    5  503    0 -0.50204649282E+02  0.10977942044E+03 -0.15230384154E+03  0.19434116422E+03  0.00000000000E+00 0. -1.
         -2    1    5    5    0  503 -0.10378602620E+03  0.26023092435E+03 -0.59000493958E+03  0.65314431939E+03  0.00000000000E+00 0.  1.
         -3    1    4    4    0  502 -0.10831755476E+03 -0.45093459502E+03 -0.38218589393E+03  0.60094988074E+03  0.00000000000E+00 0.  1.
<mgrwt>
<rscale>  0 0.16424216E+04</rscale>
<asrwt>0</asrwt>
<pdfrwt beam="1">  1        2 0.60262095E+00 0.16424216E+04</pdfrwt>
<pdfrwt beam="2">  1       -2 0.26487341E-01 0.16424216E+04</pdfrwt>
<totfact> 0.50052754E+00</totfact>
</mgrwt>
</event>
<event>
11    1  0.2404191E-008  0.1400420E+04  0.7818608E-02  0.8953514E-01
         -1   -1    0    0    0  501 -0.00000000000E+00  0.00000000000E+00  0.24626426009E+03  0.24626426009E+03  0.00000000000E+00 0.  1.
          1   -1    0    0  501    0  0.00000000000E+00 -0.00000000000E+00 -0.19909274667E+04  0.19909274667E+04  0.00000000000E+00 0. -1.
         23    2    1    2    0    0 -0.12022270805E+03  0.32886904323E+03 -0.81067196357E+03  0.89102821661E+03  0.11888609320E+03 0.  0.
        254    2    1    2    0    0  0.12022270805E+03 -0.32886904323E+03 -0.93399124299E+03  0.13461635101E+04  0.90399568966E+03 0.  0.
        -24    2    4    4    0    0  0.21618983537E+03 -0.49303937670E+03 -0.39895892396E+03  0.67488426070E+03  0.80465336833E+02 0.  0.
         13    1    3    3    0    0 -0.75507696405E+02  0.29838436777E+03 -0.74402878325E+03  0.80517915612E+03  0.00000000000E+00 0. -1.
        -13    1    3    3    0    0 -0.44715011648E+02  0.30484675452E+02 -0.66643180325E+02  0.85849060495E+02  0.00000000000E+00 0.  1.
          4    1    4    4  502    0 -0.22523253254E+03  0.51618814504E+02 -0.26670813078E+03  0.35288443257E+03  0.00000000000E+00 0. -1.
          1    1    5    5  503    0  0.13775543098E+03 -0.22471670977E+03 -0.17121763130E+03  0.31430818584E+03  0.00000000000E+00 0. -1.
         -2    1    5    5    0  503  0.78434404398E+02 -0.26832266693E+03 -0.22774129265E+03  0.36057607486E+03  0.00000000000E+00 0.  1.
         -3    1    4    4    0  502  0.12926540522E+03  0.11255151897E+03 -0.26832418825E+03  0.31839481687E+03  0.00000000000E+00 0.  1.
<mgrwt>
<rscale>  0 0.14004203E+04</rscale>
<asrwt>0</asrwt>
<pdfrwt beam="1">  1        1 0.30629653E+00 0.14004203E+04</pdfrwt>
<pdfrwt beam="2">  1       -1 0.37886809E-01 0.14004203E+04</pdfrwt>
<totfact> 0.19836793E+01</totfact>
</mgrwt>
</event>
<event>
12    1  0.2404191E-008  0.2899687E+04  0.7818608E-02  0.8272971E-01
          1   -1    0    0  501    0  0.00000000000E+00  0.00000000000E+00  0.19771721543E+04  0.19771721543E+04  0.00000000000E+00 0. -1.
         -1   -1    0    0    0  501 -0.00000000000E+00 -0.00000000000E+00 -0.10631576710E+04  0.10631576710E+04  0.00000000000E+00 0.  1.
         23    2    1    2    0    0  0.64859156345E+03 -0.36596607201E+03 -0.71390286051E+03  0.10357621386E+04  0.92432307510E+02 0.  0.
        254    2    1    2    0    0 -0.64859156345E+03  0.36596607201E+03  0.16279173438E+04  0.20045676867E+04  0.90198367514E+03 0.  0.
        -24    2    4    4    0    0 -0.86112131910E+03  0.36205073445E+03  0.12961716713E+04  0.15997187159E+04  0.80176729320E+02 0.  0.
         24    2    4    4    0    0  0.21252975565E+03  0.39153375680E+01  0.33174567244E+03  0.40484897076E+03  0.93076694388E+02 0.  0.
         13    1    3    3    0    0  0.78356311858E+02 -0.31523600436E+02 -0.46668597893E+02  0.96495632138E+02  0.00000000000E+00 0. -1.
        -13    1    3    3    0    0  0.57023525159E+03 -0.33444247158E+03 -0.66723426261E+03  0.93926650646E+03  0.00000000000E+00 0.  1.
          2    1    6    6  502    0  0.16813203001E+03  0.34255077411E+02  0.28923334212E+03  0.33630003872E+03  0.00000000000E+00 0. -1.
          3    1    5    5  503    0 -0.61219781586E+03  0.24470410958E+03  0.97182916576E+03  0.11743586311E+04  0.00000000000E+00 0. -1.
         -4    1    5    5    0  503 -0.24892350324E+03  0.11734662487E+03  0.32434250557E+03  0.42536008482E+03  0.00000000000E+00 0.  1.
         -1    1    6    6    0  502  0.44397725637E+02 -0.30339739843E+02  0.42512330317E+02  0.68548932044E+02  0.00000000000E+00 0.  1.
<mgrwt>
<rscale>  0 0.28996867E+04</rscale>
<asrwt>0</asrwt>
<pdfrwt beam="1">  1        1 0.30418033E+00 0.28996867E+04</pdfrwt>
<pdfrwt beam="2">  1       -1 0.16356272E+00 0.28996867E+04</pdfrwt>
<totfact> 0.72818557E-01</totfact>
</mgrwt>
</event>
<event>
11    1  0.2404191E-008  0.1345139E+04  0.7818608E-02  0.8994516E-01
          2   -1    0    0  501    0  0.00000000000E+00  0.00000000000E+00  0.23270428467E+04  0.23270428467E+04  0.00000000000E+00 0.  1.
         -2   -1    0    0    0  501 -0.00000000000E+00 -0.00000000000E+00 -0.19438824561E+03  0.19438824561E+03  0.00000000000E+00 0. -1.
         23    2    1    2    0    0 -0.27729184417E+03  0.16808981318E+03  0.31629113947E+03  0.46177877154E+03  0.89747405568E+02 0.  0.
        254    2    1    2    0    0  0.27729184417E+03 -0.16808981318E+03  0.18163634616E+04  0.20596523208E+04  0.91533955755E+03 0.  0.
        -24    2    4    4    0    0 -0.30468610872E+03  0.22582854551E+02  0.54781927460E+03  0.63246428121E+03  0.81003081524E+02 0.  0.
         11    1    3    3    0    0 -0.23988434430E+03  0.11530511970E+03  0.21767167280E+03  0.34383241035E+03  0.00000000000E+00 0.  1.
        -11    1    3    3    0    0 -0.37407499864E+02  0.52784693480E+02  0.98619466669E+02  0.11794636119E+03  0.00000000000E+00 0. -1.
          4    1    4    4  502    0  0.53023884987E+03 -0.11786763661E+03  0.11905598189E+04  0.13086170946E+04  0.00000000000E+00 0. -1.
          1    1    5    5  503    0 -0.29564027187E+03  0.58102704427E+01  0.49865404424E+03  0.57973509936E+03  0.00000000000E+00 0. -1.
         -2    1    5    5    0  503 -0.90458368461E+01  0.16772584108E+02  0.49165230362E+02  0.52729181849E+02  0.00000000000E+00 0.  1.
         -3    1    4    4    0  502  0.51739103010E+02 -0.72805031116E+02  0.77984368079E+02  0.11857094501E+03  0.00000000000E+00 0.  1.
<mgrwt>
<rscale>  0 0.13451391E+04</rscale>
<asrwt>0</asrwt>
<pdfrwt beam="1">  1        2 0.35800657E+00 0.13451391E+04</pdfrwt>
<pdfrwt beam="2">  1       -2 0.29905886E-01 0.13451391E+04</pdfrwt>
<totfact> 0.44224915E+01</totfact>
</mgrwt>
</event>
<event>
12    1  0.2404191E-008  0.2149461E+04  0.7818608E-02  0.8539763E-01
          2   -1    0    0  501    0  0.00000000000E+00  0.00000000000E+00  0.30902585008E+04  0.30902585008E+04  0.00000000000E+00 0. -1.
         -2   -1    0    0    0  501 -0.00000000000E+00 -0.00000000000E+00 -0.37376995108E+03  0.37376995108E+03  0.00000000000E+00 0.  1.
         23    2    1    2    0    0 -0.23185370003E+02 -0.43394713724E+03 -0.11821862471E+03  0.45954991652E+03  0.91448363802E+02 0.  0.
        254    2    1    2    0    0  0.23185370003E+02  0.43394713724E+03  0.28347071744E+04  0.30044785353E+04  0.89581182475E+03 0.  0.
        -24    2    4    4    0    0 -0.24462669804E+03 -0.52913101830E+02  0.18565845058E+04  0.18749819825E+04  0.77520255948E+02 0.  0.
         24    2    4    4    0    0  0.26781206805E+03  0.48686023907E+03  0.97812266864E+03  0.11294965528E+04  0.10140173410E+03 0.  0.
         11    1    3    3    0    0 -0.49498996495E+02 -0.28751760053E+03 -0.50491147092E+02  0.29608424004E+03  0.00000000000E+00 0.  1.
        -11    1    3    3    0    0  0.26313626492E+02 -0.14642953672E+03 -0.67727477616E+02  0.16346567648E+03  0.00000000000E+00 0. -1.
          4    1    6    6  502    0  0.20241643051E+03  0.43543811591E+03  0.80307301321E+03  0.93568425693E+03  0.00000000000E+00 0. -1.
          3    1    5    5  503    0 -0.14045814938E+03 -0.49889731820E+01  0.12288240544E+04  0.12368354532E+04  0.00000000000E+00 0. -1.
         -4    1    5    5    0  503 -0.10416854867E+03 -0.47924128648E+02  0.62776045131E+03  0.63814652931E+03  0.00000000000E+00 0.  1.
         -3    1    6    6    0  502  0.65395637541E+02  0.51422123169E+02  0.17504965544E+03  0.19381229587E+03  0.00000000000E+00 0.  1.
<mgrwt>
<rscale>  0 0.21494611E+04</rscale>
<asrwt>0</asrwt>
<pdfrwt beam="1">  1        2 0.47542437E+00 0.21494611E+04</pdfrwt>
<pdfrwt beam="2">  1       -2 0.57503071E-01 0.21494611E+04</pdfrwt>
<totfact> 0.39764890E+00</totfact>
</mgrwt>
</event>
<event>
11    1  0.2404191E-008  0.1568770E+04  0.7818608E-02  0.8839967E-01
         -2   -1    0    0    0  501 -0.00000000000E+00  0.00000000000E+00  0.19325802374E+03  0.19325802374E+03  0.00000000000E+00 0.  1.
          2   -1    0    0  501    0  0.00000000000E+00 -0.00000000000E+00 -0.31836172914E+04  0.31836172914E+04  0.00000000000E+00 0. -1.
         23    2    1    2    0    0  0.45044333843E+03  0.83818213554E+02 -0.48361902132E+03  0.67210747569E+03  0.88974193154E+02 0.  0.
        254    2    1    2    0    0 -0.45044333843E+03 -0.83818213554E+02 -0.25067402464E+04  0.27047678395E+04  0.90669603979E+03 0.  0.
        -24    2    4    4    0    0 -0.28346910260E+03  0.14608946789E+03 -0.17802142397E+04  0.18101636323E+04  0.76372585006E+02 0.  0.
         11    1    3    3    0    0  0.95874037336E+02  0.28324857908E+01 -0.15307576519E+03  0.18064341643E+03  0.00000000000E+00 0. -1.
        -11    1    3    3    0    0  0.35456930109E+03  0.80985727763E+02 -0.33054325613E+03  0.49146405926E+03  0.00000000000E+00 0.  1.
          2    1    4    4  502    0 -0.23925702372E+02 -0.33466993586E+03 -0.55094553410E+03  0.64507161366E+03  0.00000000000E+00 0. -1.
          1    1    5    5  503    0 -0.28367016612E+03  0.13172393596E+03 -0.17241401864E+04  0.17522783286E+04  0.00000000000E+00 0. -1.
         -2    1    5    5    0  503  0.20106351451E+00  0.14365531932E+02 -0.56074053279E+02  0.57885303708E+02  0.00000000000E+00 0.  1.
         -3    1    4    4    0  502 -0.14304853345E+03  0.10476225442E+03 -0.17558047259E+03  0.24953259352E+03  0.00000000000E+00 0.  1.
<mgrwt>
<rscale>  0 0.15687697E+04</rscale>
<asrwt>0</asrwt>
<pdfrwt beam="1">  1        2 0.48978722E+00 0.15687697E+04</pdfrwt>
<pdfrwt beam="2">  1       -2 0.29732007E-01 0.15687697E+04</pdfrwt>
<totfact> 0.13433361E+01</totfact>
</mgrwt>
</event>
<event>
11    1  0.2404191E-008  0.1291789E+04  0.7818608E-02  0.9036102E-01
          1   -1    0    0  501    0  0.00000000000E+00  0.00000000000E+00  0.65977335154E+03  0.65977335154E+03  0.00000000000E+00 0. -1.
         -1   -1    0    0    0  501 -0.00000000000E+00 -0.00000000000E+00 -0.63230780693E+03  0.63230780693E+03  0.00000000000E+00 0.  1.
         23    2    1    2    0    0 -0.27233673419E+03 -0.71667499803E+01  0.16913134617E+03  0.33855235516E+03  0.10859846147E+03 0.  0.
        254    2    1    2    0    0  0.27233673419E+03  0.71667499803E+01 -0.14166580157E+03  0.95352880331E+03  0.90273435756E+03 0.  0.
        -24    2    4    4    0    0  0.41792829335E+03 -0.30253707946E+03 -0.17210039245E+03  0.54947392060E+03  0.78168417559E+02 0.  0.
         11    1    3    3    0    0 -0.17252912531E+03 -0.56154773343E+02  0.11578936366E+03  0.21523669387E+03  0.00000000000E+00 0. -1.
        -11    1    3    3    0    0 -0.99807608874E+02  0.48988023362E+02  0.53341982516E+02  0.12331566130E+03  0.00000000000E+00 0.  1.
          4    1    4    4  502    0  0.28163491348E+02 -0.23806509446E+01 -0.30631006435E+02  0.41678631204E+02  0.00000000000E+00 0. -1.
          1    1    5    5  503    0  0.20251144179E+02 -0.11864596675E+01  0.33636171204E+01  0.20562841419E+02  0.00000000000E+00 0. -1.
         -2    1    5    5    0  503  0.39767714917E+03 -0.30135061980E+03 -0.17546400957E+03  0.52891107918E+03  0.00000000000E+00 0.  1.
         -3    1    4    4    0  502 -0.17375505051E+03  0.31208448039E+03  0.61065597318E+02  0.36237625150E+03  0.00000000000E+00 0.  1.
<mgrwt>
<rscale>  0 0.12917892E+04</rscale>
<asrwt>0</asrwt>
<pdfrwt beam="1">  1        1 0.10150359E+00 0.12917892E+04</pdfrwt>
<pdfrwt beam="2">  1       -1 0.97278124E-01 0.12917892E+04</pdfrwt>
<totfact> 0.29738213E+01</totfact>
</mgrwt>
</event>
<event>
11    1  0.2404191E-008  0.1152325E+04  0.7818608E-02  0.9155641E-01
         -4   -1    0    0    0  501 -0.00000000000E+00  0.00000000000E+00  0.15204100272E+03  0.15204100272E+03  0.00000000000E+00 0.  1.
          4   -1    0    0  501    0  0.00000000000E+00 -0.00000000000E+00 -0.21833812532E+04  0.21833812532E+04  0.00000000000E+00 0. -1.
         23    2    1    2    0    0  0.17098708105E+03  0.12548255825E+03 -0.45941561018E+03  0.51468685786E+03  0.94113784628E+02 0.  0.
        254    2    1    2    0    0 -0.17098708105E+03 -0.12548255825E+03 -0.15719246403E+04  0.18207353980E+04  0.89395070371E+03 0.  0.
        -24    2    4    4    0    0  0.33709744285E+03  0.63097590301E+01 -0.42598290279E+03  0.54913370613E+03  0.80074307452E+02 0.  0.
         11    1    3    3    0    0  0.10873512550E+03  0.89053015640E+02 -0.39011991731E+03  0.41466530720E+03  0.00000000000E+00 0. -1.
        -11    1    3    3    0    0  0.62251955558E+02  0.36429542605E+02 -0.69295692877E+02  0.10002155066E+03  0.00000000000E+00 0.  1.
          2    1    4    4  502    0 -0.21646779965E+03  0.13073066582E+02 -0.35144519925E+03  0.41296845089E+03  0.00000000000E+00 0. -1.
          1    1    5    5  503    0  0.16803697965E+03 -0.28854007105E+02 -0.24980362731E+03  0.30244145296E+03  0.00000000000E+00 0. -1.
         -2    1    5    5    0  503  0.16906046320E+03  0.35163766135E+02 -0.17617927548E+03  0.24669225317E+03  0.00000000000E+00 0.  1.
         -1    1    4    4    0  502 -0.29161672425E+03 -0.14486538386E+03 -0.79449653823E+03  0.85863324101E+03  0.00000000000E+00 0.  1.
<mgrwt>
<rscale>  0 0.11523254E+04</rscale>
<asrwt>0</asrwt>
<pdfrwt beam="1">  1        4 0.33590479E+00 0.11523254E+04</pdfrwt>
<pdfrwt beam="2">  1       -4 0.23390924E-01 0.11523254E+04</pdfrwt>
<totfact> 0.63719735E-01</totfact>
</mgrwt>
</event>
<event>
11    1  0.2404191E-008  0.1481845E+04  0.7818608E-02  0.8896616E-01
         -2   -1    0    0    0  501 -0.00000000000E+00  0.00000000000E+00  0.10784056768E+04  0.10784056768E+04  0.00000000000E+00 0.  1.
          2   -1    0    0  501    0  0.00000000000E+00 -0.00000000000E+00 -0.50905346488E+03  0.50905346488E+03  0.00000000000E+00 0. -1.
         23    2    1    2    0    0 -0.43465080341E+02 -0.27523743886E+02 -0.25840977626E+03  0.27884096340E+03  0.91268289773E+02 0.  0.
        254    2    1    2    0    0  0.43465080341E+02  0.27523743886E+02  0.82776198814E+03  0.13086181782E+04  0.10122474291E+04 0.  0.
        -24    2    4    4    0    0  0.49029442316E+03 -0.14158061538E+03  0.41787051000E+03  0.66430253802E+03  0.79046864909E+02 0.  0.
         13    1    3    3    0    0 -0.58076056900E+02 -0.29668909835E+02 -0.25562530640E+03  0.26381313437E+03  0.00000000000E+00 0. -1.
        -13    1    3    3    0    0  0.14610976559E+02  0.21451659491E+01 -0.27844698609E+01  0.15027829030E+02  0.00000000000E+00 0.  1.
          4    1    4    4  502    0 -0.20239761535E+03  0.13911280621E+03  0.15791916337E+03  0.29198566696E+03  0.00000000000E+00 0. -1.
          3    1    5    5  503    0  0.25805999032E+03 -0.94653001677E+02  0.26832760001E+03  0.38412738806E+03  0.00000000000E+00 0. -1.
         -2    1    5    5    0  503  0.23223443284E+03 -0.46927613707E+02  0.14954290999E+03  0.28017514996E+03  0.00000000000E+00 0.  1.
         -3    1    4    4    0  502 -0.24443172747E+03  0.29991553064E+02  0.25197231478E+03  0.35232997327E+03  0.00000000000E+00 0.  1.
<mgrwt>
<rscale>  0 0.14818450E+04</rscale>
<asrwt>0</asrwt>
<pdfrwt beam="1">  1        2 0.78315918E-01 0.14818450E+04</pdfrwt>
<pdfrwt beam="2">  1       -2 0.16590857E+00 0.14818450E+04</pdfrwt>
<totfact> 0.13290825E+01</totfact>
</mgrwt>
</event>
<event>
12    1  0.2404191E-008  0.2037122E+04  0.7818608E-02  0.8589459E-01
         -2   -1    0    0    0  501 -0.00000000000E+00  0.00000000000E+00  0.63841915297E+03  0.63841915297E+03  0.00000000000E+00 0. -1.
          2   -1    0    0  501    0  0.00000000000E+00 -0.00000000000E+00 -0.16250558208E+04  0.16250558208E+04  0.00000000000E+00 0.  1.
         23    2    1    2    0    0  0.88662370332E+01  0.30007677671E+03 -0.12130167128E+04  0.12529197223E+04  0.90959347461E+02 0.  0.
        254    2    1    2    0    0 -0.88662370332E+01 -0.30007677671E+03  0.22638004497E+03  0.10105552515E+04  0.93800283020E+03 0.  0.
        -24    2    4    4    0    0  0.29941777138E+03 -0.39571700823E+03  0.38862960367E+03  0.63529812321E+03  0.79547370031E+02 0.  0.
         24    2    4    4    0    0 -0.30828400842E+03  0.95640231525E+02 -0.16224955869E+03  0.37525712828E+03  0.10152294959E+03 0.  0.
         11    1    3    3    0    0 -0.49125650578E+01  0.56347897233E+02 -0.40199408213E+03  0.40595376693E+03  0.00000000000E+00 0. -1.
        -11    1    3    3    0    0  0.13778802091E+02  0.24372887948E+03 -0.81102263069E+03  0.84696595538E+03  0.00000000000E+00 0.  1.
          4    1    6    6  502    0 -0.49738869169E+02 -0.21906390289E+02 -0.26942144495E+02  0.60660730228E+02  0.00000000000E+00 0. -1.
          3    1    5    5  503    0  0.14836640456E+03 -0.19766886661E+03  0.24384438823E+03  0.34719685554E+03  0.00000000000E+00 0. -1.
         -4    1    5    5    0  503  0.15105136683E+03 -0.19804814162E+03  0.14478521544E+03  0.28810126766E+03  0.00000000000E+00 0.  1.
         -3    1    6    6    0  502 -0.25854513925E+03  0.11754662181E+03 -0.13530741420E+03  0.31459639805E+03  0.00000000000E+00 0.  1.
<mgrwt>
<rscale>  0 0.20371222E+04</rscale>
<asrwt>0</asrwt>
<pdfrwt beam="1">  1        2 0.25000859E+00 0.20371222E+04</pdfrwt>
<pdfrwt beam="2">  1       -2 0.98218331E-01 0.20371222E+04</pdfrwt>
<totfact> 0.86205724E+00</totfact>
</mgrwt>
</event>
<event>
11    1  0.2404191E-008  0.2458838E+04  0.7818608E-02  0.8417798E-01
         -1   -1    0    0    0  501 -0.00000000000E+00  0.00000000000E+00  0.98009964514E+03  0.98009964514E+03  0.00000000000E+00 0.  1.
          1   -1    0    0  501    0  0.00000000000E+00 -0.00000000000E+00 -0.15421607726E+04  0.15421607726E+04  0.00000000000E+00 0. -1.
         23    2    1    2    0    0 -0.96625316318E+02 -0.78953069093E+02 -0.12955600933E+04  0.13046496750E+04  0.89804122067E+02 0.  0.
        254    2    1    2    0    0  0.96625316318E+02  0.78953069093E+02  0.73349896585E+03  0.12176107427E+04  0.96383875672E+03 0.  0.
        -24    2    4    4    0    0  0.33183305253E+02 -0.38859460170E+03  0.87327067683E+02  0.40761621560E+03  0.80112834481E+02 0.  0.
         11    1    3    3    0    0  0.10098300932E+02 -0.31913000125E+02 -0.42423816637E+03  0.42555662028E+03  0.00000000000E+00 0. -1.
        -11    1    3    3    0    0 -0.10672361725E+03 -0.47040068968E+02 -0.87132192692E+03  0.87909305475E+03  0.00000000000E+00 0.  1.
          2    1    4    4  502    0  0.60238457223E+01  0.24973859852E+03  0.43283792079E+03  0.49975425960E+03  0.00000000000E+00 0. -1.
          1    1    5    5  503    0 -0.42228104865E+00 -0.25579721477E+03  0.24674748210E+02  0.25698489567E+03  0.00000000000E+00 0. -1.
         -4    1    5    5    0  503  0.33605586302E+02 -0.13279738693E+03  0.62652319473E+02  0.15063131993E+03  0.00000000000E+00 0.  1.
         -1    1    4    4    0  502  0.57418165343E+02  0.21780907228E+03  0.21333397738E+03  0.31024026750E+03  0.00000000000E+00 0.  1.
<mgrwt>
<rscale>  0 0.24588381E+04</rscale>
<asrwt>0</asrwt>
<pdfrwt beam="1">  1        1 0.23725550E+00 0.24588381E+04</pdfrwt>
<pdfrwt beam="2">  1       -1 0.15078456E+00 0.24588381E+04</pdfrwt>
<totfact> 0.18760554E+00</totfact>
</mgrwt>
</event>
<event>
12    1  0.2404191E-008  0.1482345E+04  0.7818608E-02  0.8896279E-01
          2   -1    0    0  501    0  0.00000000000E+00  0.00000000000E+00  0.21178744177E+04  0.21178744177E+04  0.00000000000E+00 0. -1.
         -2   -1    0    0    0  501 -0.00000000000E+00 -0.00000000000E+00 -0.25938113890E+03  0.25938113890E+03  0.00000000000E+00 0.  1.
         23    2    1    2    0    0 -0.14153302186E+03 -0.60642798158E+02 -0.10840469237E+03  0.20910782612E+03  0.90914027363E+02 0.  0.
        254    2    1    2    0    0  0.14153302186E+03  0.60642798158E+02  0.19668979711E+04  0.21681477304E+04  0.89914837873E+03 0.  0.
        -24    2    4    4    0    0  0.49804275441E+03 -0.88650037514E+02  0.97321764508E+03  0.11000033764E+04  0.83363235788E+02 0.  0.
         24    2    4    4    0    0 -0.35650973254E+03  0.14929283567E+03  0.99368032605E+03  0.10681443540E+04  0.64375697866E+02 0.  0.
         11    1    3    3    0    0 -0.74863009355E+02 -0.15350956145E+02 -0.30805849897E+01  0.76482756410E+02  0.00000000000E+00 0. -1.
        -11    1    3    3    0    0 -0.66670012508E+02 -0.45291842014E+02 -0.10532410738E+03  0.13262506971E+03  0.00000000000E+00 0.  1.
          2    1    6    6  502    0 -0.21710536517E+03  0.94433773791E+02  0.69070109409E+03  0.73015099712E+03  0.00000000000E+00 0. -1.
          1    1    5    5  503    0  0.46256965925E+03 -0.76772380544E+02  0.84429790563E+03  0.96576583162E+03  0.00000000000E+00 0. -1.
         -2    1    5    5    0  503  0.35473095156E+02 -0.11877656970E+02  0.12891973945E+03  0.13423754481E+03  0.00000000000E+00 0.  1.
         -1    1    6    6    0  502 -0.13940436737E+03  0.54859061882E+02  0.30297923196E+03  0.33799335690E+03  0.00000000000E+00 0.  1.
<mgrwt>
<rscale>  0 0.14823450E+04</rscale>
<asrwt>0</asrwt>
<pdfrwt beam="1">  1        2 0.32582682E+00 0.14823450E+04</pdfrwt>
<pdfrwt beam="2">  1       -2 0.39904792E-01 0.14823450E+04</pdfrwt>
<totfact> 0.33036170E+01</totfact>
</mgrwt>
</event>
<event>
11    1  0.2404191E-008  0.1652622E+04  0.7818608E-02  0.8788857E-01
          2   -1    0    0  501    0  0.00000000000E+00  0.00000000000E+00  0.21306581586E+04  0.21306581586E+04  0.00000000000E+00 0.  1.
         -2   -1    0    0    0  501 -0.00000000000E+00 -0.00000000000E+00 -0.32045974803E+03  0.32045974803E+03  0.00000000000E+00 0. -1.
         23    2    1    2    0    0  0.13865844487E+03 -0.50751703240E+03  0.27497713848E+03  0.59931353791E+03  0.82247112539E+02 0.  0.
        254    2    1    2    0    0 -0.13865844487E+03  0.50751703240E+03  0.15352212721E+04  0.18518043687E+04  0.89189425563E+03 0.  0.
        -24    2    4    4    0    0 -0.11940459554E+03  0.46064303134E+01  0.12776524705E+04  0.12855281153E+04  0.76863666051E+02 0.  0.
         11    1    3    3    0    0  0.52927951272E+01 -0.10651906480E+03  0.29752370039E+02  0.11072275452E+03  0.00000000000E+00 0.  1.
        -11    1    3    3    0    0  0.13336564975E+03 -0.40099796760E+03  0.24522476844E+03  0.48859078339E+03  0.00000000000E+00 0. -1.
          2    1    4    4  502    0 -0.93770566496E+00  0.94552667007E+02  0.62520206978E+02  0.11335723361E+03  0.00000000000E+00 0. -1.
          3    1    5    5  503    0 -0.36667533813E+02  0.27367294565E+00  0.13547677901E+03  0.14035148943E+03  0.00000000000E+00 0. -1.
         -4    1    5    5    0  503 -0.82737061723E+02  0.43327573678E+01  0.11421756915E+04  0.11451766258E+04  0.00000000000E+00 0.  1.
         -1    1    4    4    0  502 -0.18316143671E+02  0.40835793508E+03  0.19504859459E+03  0.45291901982E+03  0.00000000000E+00 0.  1.
<mgrwt>
<rscale>  0 0.16526224E+04</rscale>
<asrwt>0</asrwt>
<pdfrwt beam="1">  1        2 0.32779355E+00 0.16526224E+04</pdfrwt>
<pdfrwt beam="2">  1       -2 0.49301501E-01 0.16526224E+04</pdfrwt>
<totfact> 0.21017482E+01</totfact>
</mgrwt>
</event>
<event>
12    1  0.2404191E-008  0.3968681E+04  0.7818608E-02  0.8010895E-01
         -1   -1    0    0    0  501 -0.00000000000E+00  0.00000000000E+00  0.22216722993E+04  0.22216722993E+04  0.00000000000E+00 0.  1.
          1   -1    0    0  501    0  0.00000000000E+00 -0.00000000000E+00 -0.17723615303E+04  0.17723615303E+04  0.00000000000E+00 0. -1.
         23    2    1    2    0    0  0.92244020255E+03 -0.21093291810E+03 -0.14270992646E+04  0.17156397227E+04  0.10685843038E+03 0.  0.
        254    2    1    2    0    0 -0.92244020255E+03  0.21093291810E+03  0.18764100335E+04  0.22783941069E+04  0.88021387702E+03 0.  0.
        -24    2    4    4    0    0  0.26038472439E+02 -0.32048937614E+02  0.86401501199E+03  0.86873298718E+03  0.80435847852E+02 0.  0.
         24    2    4    4    0    0 -0.94847867498E+03  0.24298185571E+03  0.10123950215E+04  0.14096611197E+04  0.59571920753E+02 0.  0.
         13    1    3    3    0    0  0.38392727181E+02 -0.30343112524E+02 -0.57139345753E+02  0.75230384892E+02  0.00000000000E+00 0.  1.
        -13    1    3    3    0    0  0.88404747536E+03 -0.18058980557E+03 -0.13699599188E+04  0.16404093378E+04  0.00000000000E+00 0. -1.
          4    1    6    6  502    0 -0.33966078664E+02  0.19986649779E+02  0.46476913714E+02  0.60936558629E+02  0.00000000000E+00 0. -1.
          1    1    5    5  503    0  0.28697180108E+02 -0.41159487166E+02  0.26884020551E+03  0.27348251796E+03  0.00000000000E+00 0. -1.
         -2    1    5    5    0  503 -0.26587076688E+01  0.91105495518E+01  0.59517480648E+03  0.59525046922E+03  0.00000000000E+00 0.  1.
         -3    1    6    6    0  502 -0.91451259632E+03  0.22299520593E+03  0.96591810777E+03  0.13487245611E+04  0.00000000000E+00 0.  1.
<mgrwt>
<rscale>  0 0.39686806E+04</rscale>
<asrwt>0</asrwt>
<pdfrwt beam="1">  1        1 0.27267101E+00 0.39686806E+04</pdfrwt>
<pdfrwt beam="2">  1       -1 0.34179574E+00 0.39686806E+04</pdfrwt>
<totfact> 0.58755777E-02</totfact>
</mgrwt>
</event>
<event>
11    1  0.2404191E-008  0.2930012E+04  0.7818608E-02  0.8264004E-01
         -1   -1    0    0    0  501 -0.00000000000E+00  0.00000000000E+00  0.26067180363E+04  0.26067180363E+04  0.00000000000E+00 0.  1.
          1   -1    0    0  501    0  0.00000000000E+00 -0.00000000000E+00 -0.82335047459E+03  0.82335047459E+03  0.00000000000E+00 0. -1.
         23    2    1    2    0    0  0.12776597883E+04  0.61366837089E+02  0.40504706712E+03  0.13448232577E+04  0.91137503736E+02 0.  0.
        254    2    1    2    0    0 -0.12776597883E+04 -0.61366837089E+02  0.13783204946E+04  0.20852452532E+04  0.90127684809E+03 0.  0.
        -24    2    4    4    0    0  0.30471111344E+02  0.37613701449E+02  0.48139995041E+03  0.49056652576E+03  0.81032862299E+02 0.  0.
         13    1    3    3    0    0  0.49408173616E+03  0.50504661484E+02  0.19445430646E+03  0.53336662826E+03  0.00000000000E+00 0.  1.
        -13    1    3    3    0    0  0.78357805212E+03  0.10862175605E+02  0.21059276066E+03  0.81145662944E+03  0.00000000000E+00 0. -1.
          4    1    4    4  502    0 -0.98677792788E+02  0.38362418007E+01  0.11135796749E+03  0.14883756402E+03  0.00000000000E+00 0. -1.
          1    1    5    5  503    0  0.67514889102E+01 -0.25780282862E+02  0.12858723951E+03  0.13131977670E+03  0.00000000000E+00 0. -1.
         -2    1    5    5    0  503  0.23719622434E+02  0.63393984312E+02  0.35281271090E+03  0.35924674906E+03  0.00000000000E+00 0.  1.
         -3    1    4    4    0  502 -0.12094531068E+04 -0.10281678034E+03  0.78556257671E+03  0.14458411634E+04  0.00000000000E+00 0.  1.
<mgrwt>
<rscale>  0 0.29300120E+04</rscale>
<asrwt>0</asrwt>
<pdfrwt beam="1">  1        1 0.12666930E+00 0.29300120E+04</pdfrwt>
<pdfrwt beam="2">  1       -1 0.40103354E+00 0.29300120E+04</pdfrwt>
<totfact> 0.12708316E-01</totfact>
</mgrwt>
</event>
<event>
12    1  0.2404191E-008  0.1214758E+04  0.7818608E-02  0.9100037E-01
         -1   -1    0    0    0  501 -0.00000000000E+00  0.00000000000E+00  0.82144923196E+03  0.82144923196E+03  0.00000000000E+00 0.  1.
          1   -1    0    0  501    0  0.00000000000E+00 -0.00000000000E+00 -0.44909525264E+03  0.44909525264E+03  0.00000000000E+00 0. -1.
         23    2    1    2    0    0  0.20331152408E+03 -0.13098809598E+03 -0.35893126196E+02  0.26051169664E+03  0.89914239510E+02 0.  0.
        254    2    1    2    0    0 -0.20331152408E+03  0.13098809598E+03  0.40824710551E+03  0.10100327880E+04  0.89163169329E+03 0.  0.
        -24    2    4    4    0    0 -0.49009750848E+03  0.30628559937E+03  0.27800209136E+03  0.64626425947E+03  0.79786553230E+02 0.  0.
         24    2    4    4    0    0  0.28678598440E+03 -0.17529750339E+03  0.13024501415E+03  0.36376852849E+03  0.48870881581E+02 0.  0.
         13    1    3    3    0    0  0.16665123211E+02 -0.59262187212E+01  0.22264269932E+02  0.28434910156E+02  0.00000000000E+00 0.  1.
        -13    1    3    3    0    0  0.18664640087E+03 -0.12506187726E+03 -0.58157396128E+02  0.23207678649E+03  0.00000000000E+00 0. -1.
          4    1    6    6  502    0  0.49992682723E+02 -0.16129955779E+02  0.34366501269E+02  0.62773403674E+02  0.00000000000E+00 0. -1.
          3    1    5    5  503    0 -0.97821190127E+02  0.25965933455E+02  0.44606755084E+02  0.11060279172E+03  0.00000000000E+00 0. -1.
         -4    1    5    5    0  503 -0.39227631835E+03  0.28031966591E+03  0.23339533628E+03  0.53566146775E+03  0.00000000000E+00 0.  1.
         -3    1    6    6    0  502  0.23679330167E+03 -0.15916754761E+03  0.95878512878E+02  0.30099512481E+03  0.00000000000E+00 0.  1.
<mgrwt>
<rscale>  0 0.12147575E+04</rscale>
<asrwt>0</asrwt>
<pdfrwt beam="1">  1        1 0.69091577E-01 0.12147575E+04</pdfrwt>
<pdfrwt beam="2">  1       -1 0.12637680E+00 0.12147575E+04</pdfrwt>
<totfact> 0.27650613E+01</totfact>
</mgrwt>
</event>
<event>
12    1  0.2404191E-008  0.1885870E+04  0.7818608E-02  0.8661922E-01
          1   -1    0    0  501    0  0.00000000000E+00  0.00000000000E+00  0.66639471115E+03  0.66639471115E+03  0.00000000000E+00 0. -1.
         -1   -1    0    0    0  501 -0.00000000000E+00 -0.00000000000E+00 -0.13342337999E+04  0.13342337999E+04  0.00000000000E+00 0.  1.
         23    2    1    2    0    0  0.24217403123E+03 -0.12541126071E+03 -0.10004905951E+04  0.10408149330E+04  0.89095724304E+02 0.  0.
        254    2    1    2    0    0 -0.24217403123E+03  0.12541126071E+03  0.33265150636E+03  0.95981357806E+03  0.85802612678E+03 0.  0.
        -24    2    4    4    0    0  0.27828702893E+03  0.12443449229E+03  0.29808337301E+03  0.43362050548E+03  0.79028046722E+02 0.  0.
         24    2    4    4    0    0 -0.52046106016E+03  0.97676842428E+00  0.34568133354E+02  0.52619307259E+03  0.69307464072E+02 0.  0.
         13    1    3    3    0    0  0.15310454617E+03 -0.12516438283E+03 -0.70104275971E+03  0.72840104045E+03  0.00000000000E+00 0.  1.
        -13    1    3    3    0    0  0.89069485064E+02 -0.24687787806E+00 -0.29944783538E+03  0.31241389250E+03  0.00000000000E+00 0. -1.
          4    1    6    6  502    0 -0.40483044509E+03 -0.68039108109E+01  0.54698438479E+02  0.40856566381E+03  0.00000000000E+00 0. -1.
          1    1    5    5  503    0  0.10699243264E+03  0.46718356968E+02  0.63377969807E+02  0.13284108016E+03  0.00000000000E+00 0. -1.
         -2    1    5    5    0  503  0.17129459628E+03  0.77716135319E+02  0.23470540320E+03  0.30077942532E+03  0.00000000000E+00 0.  1.
         -3    1    6    6    0  502 -0.11563061507E+03  0.77806792351E+01 -0.20130305125E+02  0.11762740878E+03  0.00000000000E+00 0.  1.
<mgrwt>
<rscale>  0 0.18858699E+04</rscale>
<asrwt>0</asrwt>
<pdfrwt beam="1">  1        1 0.10252226E+00 0.18858699E+04</pdfrwt>
<pdfrwt beam="2">  1       -1 0.20526674E+00 0.18858699E+04</pdfrwt>
<totfact> 0.38058233E+00</totfact>
</mgrwt>
</event>
<event>
11    1  0.2404191E-008  0.1946451E+04  0.7818608E-02  0.8632074E-01
         -2   -1    0    0    0  501 -0.00000000000E+00  0.00000000000E+00  0.57169043190E+03  0.57169043190E+03  0.00000000000E+00 0.  1.
          2   -1    0    0  501    0  0.00000000000E+00 -0.00000000000E+00 -0.16567843772E+04  0.16567843772E+04  0.00000000000E+00 0. -1.
         23    2    1    2    0    0  0.39182211093E+03 -0.58214485296E+03 -0.76937317022E+03  0.10452123270E+04  0.90091825202E+02 0.  0.
        254    2    1    2    0    0 -0.39182211093E+03  0.58214485296E+03 -0.31572077510E+03  0.11832624822E+04  0.89889559873E+03 0.  0.
        -24    2    4    4    0    0 -0.24571325903E+03 -0.38529222853E+02  0.20371494609E+03  0.33075345062E+03  0.77708166600E+02 0.  0.
         13    1    3    3    0    0  0.13818370684E+03 -0.22507129498E+03 -0.35327089499E+03  0.44108066146E+03  0.00000000000E+00 0. -1.
        -13    1    3    3    0    0  0.25363840409E+03 -0.35707355798E+03 -0.41610227523E+03  0.60413166552E+03  0.00000000000E+00 0.  1.
          4    1    4    4  502    0 -0.10359037615E+03  0.14146635636E+03 -0.54861321953E+02  0.18372114918E+03  0.00000000000E+00 0. -1.
          3    1    5    5  503    0 -0.46371735777E+02 -0.38354998212E+02  0.60232723270E+02  0.85143553598E+02  0.00000000000E+00 0. -1.
         -4    1    5    5    0  503 -0.19934152326E+03 -0.17422464137E+00  0.14348222282E+03  0.24560989702E+03  0.00000000000E+00 0.  1.
         -3    1    4    4    0  502 -0.42518475752E+02  0.47920771945E+03 -0.46457439923E+03  0.66878788236E+03  0.00000000000E+00 0.  1.
<mgrwt>
<rscale>  0 0.19464509E+04</rscale>
<asrwt>0</asrwt>
<pdfrwt beam="1">  1        2 0.25488991E+00 0.19464509E+04</pdfrwt>
<pdfrwt beam="2">  1       -2 0.87952373E-01 0.19464509E+04</pdfrwt>
<totfact> 0.10778312E+01</totfact>
</mgrwt>
</event>
<event>
11    1  0.2404191E-008  0.2911892E+04  0.7818608E-02  0.8269348E-01
         -1   -1    0    0    0  501 -0.00000000000E+00  0.00000000000E+00  0.18245334829E+04  0.18245334829E+04  0.00000000000E+00 0.  1.
          1   -1    0    0  501    0  0.00000000000E+00 -0.00000000000E+00 -0.11618196231E+04  0.11618196231E+04  0.00000000000E+00 0. -1.
         23    2    1    2    0    0 -0.80633320936E+03  0.10003211268E+04  0.47035582185E+02  0.12890768423E+04  0.93226381620E+02 0.  0.
        254    2    1    2    0    0  0.80633320936E+03 -0.10003211268E+04  0.61567827760E+03  0.16972762637E+04  0.92242689285E+03 0.  0.
        -24    2    4    4    0    0  0.21623743120E+03 -0.15384406001E+03 -0.16177454903E+03  0.32072698590E+03  0.79171796247E+02 0.  0.
         13    1    3    3    0    0 -0.55336062515E+03  0.65073528366E+03  0.69127313499E+02  0.85699648560E+03  0.00000000000E+00 0. -1.
        -13    1    3    3    0    0 -0.25297258421E+03  0.34958584313E+03 -0.22091731315E+02  0.43208035673E+03  0.00000000000E+00 0.  1.
          2    1    4    4  502    0  0.61023034547E+03 -0.59723073816E+03  0.45195781496E+03  0.96609083198E+03  0.00000000000E+00 0. -1.
          1    1    5    5  503    0  0.16398963807E+02 -0.39749885371E+02 -0.46567064770E+02  0.63383522482E+02  0.00000000000E+00 0. -1.
         -2    1    5    5    0  503  0.19983846739E+03 -0.11409417463E+03 -0.11520748426E+03  0.25734346342E+03  0.00000000000E+00 0.  1.
         -1    1    4    4    0  502 -0.20134567309E+02 -0.24924632863E+03  0.32549501167E+03  0.41045844583E+03  0.00000000000E+00 0.  1.
<mgrwt>
<rscale>  0 0.29118920E+04</rscale>
<asrwt>0</asrwt>
<pdfrwt beam="1">  1        1 0.17874148E+00 0.29118920E+04</pdfrwt>
<pdfrwt beam="2">  1       -1 0.28069746E+00 0.29118920E+04</pdfrwt>
<totfact> 0.43053860E-01</totfact>
</mgrwt>
</event>
<event>
11    1  0.2404191E-008  0.1856064E+04  0.7818608E-02  0.8677041E-01
          2   -1    0    0  501    0  0.00000000000E+00  0.00000000000E+00  0.30065746618E+04  0.30065746618E+04  0.00000000000E+00 0.  1.
         -2   -1    0    0    0  501 -0.00000000000E+00 -0.00000000000E+00 -0.28645329638E+03  0.28645329638E+03  0.00000000000E+00 0. -1.
         23    2    1    2    0    0  0.58302559367E+03  0.28306894386E+03  0.53990375314E+03  0.84832183734E+03  0.90038920434E+02 0.  0.
        254    2    1    2    0    0 -0.58302559367E+03 -0.28306894386E+03  0.21802176123E+04  0.24447061209E+04  0.89620997013E+03 0.  0.
        -24    2    4    4    0    0  0.21915128557E+03 -0.14554513131E+03  0.56357670548E+03  0.62696958144E+03  0.79129525958E+02 0.  0.
         13    1    3    3    0    0  0.15164340558E+03  0.41193871541E+02  0.16386087946E+03  0.22703093473E+03  0.00000000000E+00 0.  1.
        -13    1    3    3    0    0  0.43138218809E+03  0.24187507232E+03  0.37604287368E+03  0.62129090260E+03  0.00000000000E+00 0. -1.
          2    1    4    4  502    0 -0.48292712289E+03 -0.39232585904E+02  0.11068720460E+04  0.12082729527E+04  0.00000000000E+00 0. -1.
          1    1    5    5  503    0  0.21050230010E+03 -0.14088341716E+03  0.56272775283E+03  0.61710767244E+03  0.00000000000E+00 0. -1.
         -2    1    5    5    0  503  0.86489854716E+01 -0.46617141460E+01  0.84895264388E+00  0.98619089966E+01  0.00000000000E+00 0.  1.
         -1    1    4    4    0  502 -0.31924975636E+03 -0.98291226648E+02  0.50976886078E+03  0.60946358676E+03  0.00000000000E+00 0.  1.
<mgrwt>
<rscale>  0 0.18560638E+04</rscale>
<asrwt>0</asrwt>
<pdfrwt beam="1">  1        2 0.46254993E+00 0.18560638E+04</pdfrwt>
<pdfrwt beam="2">  1       -2 0.44069740E-01 0.18560638E+04</pdfrwt>
<totfact> 0.79420272E+00</totfact>
</mgrwt>
</event>
<event>
12    1  0.2404191E-008  0.1906373E+04  0.7818608E-02  0.8651691E-01
          1   -1    0    0  501    0  0.00000000000E+00  0.00000000000E+00  0.12136088504E+04  0.12136088504E+04  0.00000000000E+00 0.  1.
         -1   -1    0    0    0  501 -0.00000000000E+00 -0.00000000000E+00 -0.74864674055E+03  0.74864674055E+03  0.00000000000E+00 0. -1.
         23    2    1    2    0    0  0.65289616305E+03  0.23380122275E+03  0.41696134407E+03  0.81432355672E+03  0.91267086613E+02 0.  0.
        254    2    1    2    0    0 -0.65289616305E+03 -0.23380122275E+03  0.48000765776E+02  0.11479320342E+04  0.91351380406E+03 0.  0.
        -24    2    4    4    0    0 -0.73223575023E+02 -0.27484247438E+03 -0.33325241123E+03  0.44649436397E+03  0.86023077153E+02 0.  0.
         24    2    4    4    0    0 -0.57967258802E+03  0.41041251628E+02  0.38125317701E+03  0.70143767025E+03  0.94636814342E+02 0.  0.
         11    1    3    3    0    0  0.10900319996E+03  0.17635118395E+02  0.36676640455E+02  0.11635235690E+03  0.00000000000E+00 0. -1.
        -11    1    3    3    0    0  0.54389296309E+03  0.21616610436E+03  0.38028470362E+03  0.69797119982E+03  0.00000000000E+00 0.  1.
          2    1    6    6  502    0 -0.49194215525E+02 -0.21147722295E+02  0.22835819133E+02  0.58213156888E+02  0.00000000000E+00 0. -1.
          1    1    5    5  503    0 -0.31834735458E+02 -0.18407525111E+03 -0.15722995165E+03  0.24416880667E+03  0.00000000000E+00 0. -1.
         -2    1    5    5    0  503 -0.41388839565E+02 -0.90767223267E+02 -0.17602245958E+03  0.20232555730E+03  0.00000000000E+00 0.  1.
         -1    1    6    6    0  502 -0.53047837250E+03  0.62188973923E+02  0.35841735788E+03  0.64322451337E+03  0.00000000000E+00 0.  1.
<mgrwt>
<rscale>  0 0.19063728E+04</rscale>
<asrwt>0</asrwt>
<pdfrwt beam="1">  1        1 0.18670905E+00 0.19063728E+04</pdfrwt>
<pdfrwt beam="2">  1       -1 0.11517642E+00 0.19063728E+04</pdfrwt>
<totfact> 0.66793824E+00</totfact>
</mgrwt>
</event>
<event>
12    1  0.2577273E-008  0.2377500E+04  0.7818608E-02  0.8447975E-01
          2   -1    0    0  501    0  0.00000000000E+00  0.00000000000E+00  0.14320415188E+04  0.14320415188E+04  0.00000000000E+00 0. -1.
         -2   -1    0    0    0  501 -0.00000000000E+00 -0.00000000000E+00 -0.98679201587E+03  0.98679201587E+03  0.00000000000E+00 0.  1.
         23    2    1    2    0    0  0.92454841351E+03 -0.56840843368E+02  0.61463630643E+03  0.11165827086E+04  0.10468288109E+03 0.  0.
        254    2    1    2    0    0 -0.92454841351E+03  0.56840843368E+02 -0.16938680351E+03  0.13022508261E+04  0.89952469359E+03 0.  0.
        -24    2    4    4    0    0 -0.95515308262E+03 -0.21404466334E+03 -0.35615954595E+02  0.98277066984E+03  0.80231939691E+02 0.  0.
         24    2    4    4    0    0  0.30604669110E+02  0.27088550671E+03 -0.13377084892E+03  0.31948015622E+03  0.99284070617E+02 0.  0.
         11    1    3    3    0    0  0.66155909173E+03 -0.66391761899E+02  0.39170547695E+03  0.77168742284E+03  0.00000000000E+00 0. -1.
        -11    1    3    3    0    0  0.26298932178E+03  0.95509185309E+01  0.22293082948E+03  0.34489528577E+03  0.00000000000E+00 0.  1.
          4    1    6    6  502    0  0.12103029757E+01  0.24505927424E+03 -0.13603316041E+03  0.28028652028E+03  0.00000000000E+00 0. -1.
          1    1    5    5  503    0 -0.88486908713E+03 -0.21017236574E+03 -0.50255186581E+02  0.91087392567E+03  0.00000000000E+00 0. -1.
         -2    1    5    5    0  503 -0.70283995486E+02 -0.38722976003E+01  0.14639231986E+02  0.71896744178E+02  0.00000000000E+00 0.  1.
         -3    1    6    6    0  502  0.29394366135E+02  0.25826232474E+02  0.22623114895E+01  0.39193635932E+02  0.00000000000E+00 0.  1.
<mgrwt>
<rscale>  0 0.23775005E+04</rscale>
<asrwt>0</asrwt>
<pdfrwt beam="1">  1        2 0.22031408E+00 0.23775005E+04</pdfrwt>
<pdfrwt beam="2">  1       -2 0.15181416E+00 0.23775005E+04</pdfrwt>
<totfact> 0.36274309E+00</totfact>
</mgrwt>
</event>
<event>
12    1  0.2404191E-008  0.2066190E+04  0.7818608E-02  0.8576285E-01
          2   -1    0    0  501    0  0.00000000000E+00  0.00000000000E+00  0.25782835343E+04  0.25782835343E+04  0.00000000000E+00 0. -1.
         -2   -1    0    0    0  501 -0.00000000000E+00 -0.00000000000E+00 -0.41395176205E+03  0.41395176205E+03  0.00000000000E+00 0.  1.
         23    2    1    2    0    0 -0.34516395202E+03  0.34337296840E+03  0.18616860492E+04  0.19266103090E+04  0.94388493983E+02 0.  0.
        254    2    1    2    0    0  0.34516395202E+03 -0.34337296840E+03  0.30264572307E+03  0.10656249874E+04  0.89828671970E+03 0.  0.
        -24    2    4    4    0    0  0.21522392957E+03  0.27035587794E+03 -0.21000109505E+02  0.35388849199E+03  0.73364975046E+02 0.  0.
         24    2    4    4    0    0  0.12994002244E+03 -0.61372884633E+03  0.32364583257E+03  0.71173649537E+03  0.90965420065E+02 0.  0.
         11    1    3    3    0    0 -0.21908452796E+03  0.27295887844E+03  0.12469825318E+04  0.12951718088E+04  0.00000000000E+00 0. -1.
        -11    1    3    3    0    0 -0.12607942406E+03  0.70414089955E+02  0.61470351740E+03  0.63143850020E+03  0.00000000000E+00 0.  1.
          2    1    6    6  502    0  0.93586418875E+02 -0.49727977261E+03  0.29746309397E+03  0.58696667906E+03  0.00000000000E+00 0. -1.
          3    1    5    5  503    0  0.99960751476E+02  0.14709774366E+03 -0.44955844135E+02  0.18344188712E+03  0.00000000000E+00 0. -1.
         -4    1    5    5    0  503  0.11526317810E+03  0.12325813427E+03  0.23955734630E+02  0.17044660487E+03  0.00000000000E+00 0.  1.
         -1    1    6    6    0  502  0.36353603570E+02 -0.11644907372E+03  0.26182738604E+02  0.12476981631E+03  0.00000000000E+00 0.  1.
<mgrwt>
<rscale>  0 0.20661897E+04</rscale>
<asrwt>0</asrwt>
<pdfrwt beam="1">  1        2 0.39665899E+00 0.20661897E+04</pdfrwt>
<pdfrwt beam="2">  1       -2 0.63684888E-01 0.20661897E+04</pdfrwt>
<totfact> 0.66097580E+00</totfact>
</mgrwt>
</event>
<event>
12    1  0.2404191E-008  0.1248677E+04  0.7818608E-02  0.9071285E-01
         -2   -1    0    0    0  501 -0.00000000000E+00  0.00000000000E+00  0.91501751200E+03  0.91501751200E+03  0.00000000000E+00 0.  1.
          2   -1    0    0  501    0  0.00000000000E+00 -0.00000000000E+00 -0.42600149655E+03  0.42600149655E+03  0.00000000000E+00 0. -1.
         23    2    1    2    0    0 -0.43587658963E+01 -0.48214262352E+02 -0.18829347627E+03  0.21435422290E+03  0.90275609856E+02 0.  0.
        254    2    1    2    0    0  0.43587658963E+01  0.48214262352E+02  0.67730949172E+03  0.11266647856E+04  0.89904492530E+03 0.  0.
        -24    2    4    4    0    0  0.21588621596E+03  0.16856753136E+03 -0.10310068133E+03  0.30255721403E+03  0.76741425567E+02 0.  0.
         24    2    4    4    0    0 -0.21152745007E+03 -0.12035326901E+03  0.78041017304E+03  0.82410757162E+03  0.10432871091E+03 0.  0.
         11    1    3    3    0    0 -0.29942038389E+02  0.26067266151E+00 -0.13362937509E+03  0.13694306664E+03  0.00000000000E+00 0. -1.
        -11    1    3    3    0    0  0.25583272493E+02 -0.48474935014E+02 -0.54664101179E+02  0.77411156262E+02  0.00000000000E+00 0.  1.
          4    1    6    6  502    0 -0.10128363061E+03 -0.56445931154E+01  0.23482664503E+03  0.25580029022E+03  0.00000000000E+00 0. -1.
          3    1    5    5  503    0  0.30271065039E+01 -0.39758002582E+01 -0.13302901203E+02  0.14210472965E+02  0.00000000000E+00 0. -1.
         -4    1    5    5    0  503  0.21285910946E+03  0.17254333162E+03 -0.89797780122E+02  0.28834674106E+03  0.00000000000E+00 0.  1.
         -3    1    6    6    0  502 -0.11024381946E+03 -0.11470867589E+03  0.54558352801E+03  0.56830728140E+03  0.00000000000E+00 0.  1.
<mgrwt>
<rscale>  0 0.12486774E+04</rscale>
<asrwt>0</asrwt>
<pdfrwt beam="1">  1        2 0.65538692E-01 0.12486774E+04</pdfrwt>
<pdfrwt beam="2">  1       -2 0.14077192E+00 0.12486774E+04</pdfrwt>
<totfact> 0.25761514E+01</totfact>
</mgrwt>
</event>
<event>
12    1  0.2404191E-008  0.3209577E+04  0.7818608E-02  0.8186293E-01
         -2   -1    0    0    0  501 -0.00000000000E+00  0.00000000000E+00  0.36065806669E+04  0.36065806669E+04  0.00000000000E+00 0.  1.
          2   -1    0    0  501    0  0.00000000000E+00 -0.00000000000E+00 -0.71406844519E+03  0.71406844519E+03  0.00000000000E+00 0. -1.
         23    2    1    2    0    0 -0.12353512630E+04  0.16695334032E+03  0.26930802989E+03  0.12786299775E+04  0.91660480980E+02 0.  0.
        254    2    1    2    0    0  0.12353512630E+04 -0.16695334032E+03  0.26232041918E+04  0.30420191346E+04  0.90482817279E+03 0.  0.
        -24    2    4    4    0    0 -0.13906563184E+02  0.33181157486E+02 -0.38790942639E+02  0.93277551127E+02  0.76821758648E+02 0.  0.
         24    2    4    4    0    0  0.12492578261E+04 -0.20013449781E+03  0.26619951345E+04  0.29487415835E+04  0.90332145649E+02 0.  0.
         11    1    3    3    0    0 -0.11923350829E+04  0.16489009011E+03  0.27633445194E+03  0.12349949073E+04  0.00000000000E+00 0.  1.
        -11    1    3    3    0    0 -0.43016180065E+02  0.20632502106E+01 -0.70264220500E+01  0.43635070249E+02  0.00000000000E+00 0. -1.
          4    1    6    6  502    0  0.21485674325E+03 -0.44820042087E+02  0.38973001912E+03  0.44728262217E+03  0.00000000000E+00 0. -1.
          1    1    5    5  503    0 -0.33536226115E+02 -0.46156304472E+01  0.25168788117E+01  0.33945797758E+02  0.00000000000E+00 0. -1.
         -2    1    5    5    0  503  0.19629662931E+02  0.37796787933E+02 -0.41307821451E+02  0.59331753370E+02  0.00000000000E+00 0.  1.
         -3    1    6    6    0  502  0.10344010829E+04 -0.15531445572E+03  0.22722651154E+04  0.25014589613E+04  0.00000000000E+00 0.  1.
<mgrwt>
<rscale>  0 0.32095766E+04</rscale>
<asrwt>0</asrwt>
<pdfrwt beam="1">  1        2 0.10985669E+00 0.32095766E+04</pdfrwt>
<pdfrwt beam="2">  1       -2 0.55485855E+00 0.32095766E+04</pdfrwt>
<totfact> 0.26930110E-02</totfact>
</mgrwt>
</event>
<event>
11    1  0.2404191E-008  0.1323206E+04  0.7818608E-02  0.9011362E-01
         -1   -1    0    0    0  501 -0.00000000000E+00  0.00000000000E+00  0.19982593540E+03  0.19982593540E+03  0.00000000000E+00 0.  1.
          1   -1    0    0  501    0  0.00000000000E+00 -0.00000000000E+00 -0.21904998613E+04  0.21904998613E+04  0.00000000000E+00 0. -1.
         23    2    1    2    0    0  0.21283913183E+03  0.99652348007E+02 -0.89013830486E+02  0.26705215363E+03  0.90345471615E+02 0.  0.
        254    2    1    2    0    0 -0.21283913183E+03 -0.99652348007E+02 -0.19016600954E+04  0.21232736430E+04  0.91473972163E+03 0.  0.
        -24    2    4    4    0    0 -0.43848584929E+03 -0.32970282819E+03 -0.83751581959E+03  0.10041596111E+04  0.77006373587E+02 0.  0.
         11    1    3    3    0    0  0.71252505908E+02  0.17107252378E+02 -0.71240304873E+02  0.10219960235E+03  0.00000000000E+00 0. -1.
        -11    1    3    3    0    0  0.14158662592E+03  0.82545095628E+02 -0.17773525613E+02  0.16485255128E+03  0.00000000000E+00 0.  1.
          2    1    4    4  502    0  0.22965165154E+03  0.20042017918E+03 -0.85219143163E+03  0.90506263066E+03  0.00000000000E+00 0. -1.
          3    1    5    5  503    0 -0.40609179171E+03 -0.30450958261E+03 -0.73038112910E+03  0.88943421507E+03  0.00000000000E+00 0. -1.
         -4    1    5    5    0  503 -0.32394057581E+02 -0.25193245583E+02 -0.10713469049E+03  0.11472539604E+03  0.00000000000E+00 0.  1.
         -1    1    4    4    0  502 -0.40049340752E+01  0.29630301002E+02 -0.21195284415E+03  0.21405140126E+03  0.00000000000E+00 0.  1.
<mgrwt>
<rscale>  0 0.13232062E+04</rscale>
<asrwt>0</asrwt>
<pdfrwt beam="1">  1        1 0.33699999E+00 0.13232062E+04</pdfrwt>
<pdfrwt beam="2">  1       -1 0.30742450E-01 0.13232062E+04</pdfrwt>
<totfact> 0.21244692E+01</totfact>
</mgrwt>
</event>
<event>
12    1  0.2404191E-008  0.1395472E+04  0.7818608E-02  0.8957103E-01
          1   -1    0    0  501    0  0.00000000000E+00  0.00000000000E+00  0.32785892537E+03  0.32785892537E+03  0.00000000000E+00 0. -1.
         -1   -1    0    0    0  501 -0.00000000000E+00 -0.00000000000E+00 -0.14848924094E+04  0.14848924094E+04  0.00000000000E+00 0.  1.
         23    2    1    2    0    0 -0.28881635418E+03  0.16169795027E+03 -0.57171941284E+02  0.34830521382E+03  0.92123707796E+02 0.  0.
        254    2    1    2    0    0  0.28881635418E+03 -0.16169795027E+03 -0.10998615428E+04  0.14644461210E+04  0.90848550590E+03 0.  0.
        -24    2    4    4    0    0  0.31758181208E+03 -0.43169676661E+03 -0.30273489483E+03  0.62054959752E+03  0.78823097994E+02 0.  0.
         24    2    4    4    0    0 -0.28765457895E+02  0.26999881633E+03 -0.79712664795E+03  0.84389652346E+03  0.54987608221E+02 0.  0.
         11    1    3    3    0    0 -0.61453833996E+02  0.71338601737E+02  0.97391009395E+01  0.94660550905E+02  0.00000000000E+00 0.  1.
        -11    1    3    3    0    0 -0.22736252019E+03  0.90359348536E+02 -0.66911042223E+02  0.25364466291E+03  0.00000000000E+00 0. -1.
          4    1    6    6  502    0  0.23222621660E+01  0.18847495816E+03 -0.50553355524E+03  0.53952977511E+03  0.00000000000E+00 0. -1.
          1    1    5    5  503    0  0.96269956029E+02 -0.19588917147E+03 -0.11862305703E+03  0.24841880282E+03  0.00000000000E+00 0. -1.
         -2    1    5    5    0  503  0.22131185605E+03 -0.23580759513E+03 -0.18411183779E+03  0.37213079470E+03  0.00000000000E+00 0.  1.
         -3    1    6    6    0  502 -0.31087720061E+02  0.81523858174E+02 -0.29159309271E+03  0.30436674836E+03  0.00000000000E+00 0.  1.
<mgrwt>
<rscale>  0 0.13954716E+04</rscale>
<asrwt>0</asrwt>
<pdfrwt beam="1">  1        1 0.50439834E-01 0.13954716E+04</pdfrwt>
<pdfrwt beam="2">  1       -1 0.22844499E+00 0.13954716E+04</pdfrwt>
<totfact> 0.73617010E+00</totfact>
</mgrwt>
</event>
<event>
12    1  0.2404191E-008  0.3842439E+04  0.7818608E-02  0.8037109E-01
          2   -1    0    0  501    0  0.00000000000E+00  0.00000000000E+00  0.16253032286E+04  0.16253032286E+04  0.00000000000E+00 0. -1.
         -2   -1    0    0    0  501 -0.00000000000E+00 -0.00000000000E+00 -0.22710121668E+04  0.22710121668E+04  0.00000000000E+00 0.  1.
         23    2    1    2    0    0 -0.53894890025E+03 -0.73882274036E+03  0.12826621761E+04  0.15793610286E+04  0.11328743026E+03 0.  0.
        254    2    1    2    0    0  0.53894890025E+03  0.73882274036E+03 -0.19283711143E+04  0.23169543668E+04  0.90185221881E+03 0.  0.
        -24    2    4    4    0    0 -0.10819024467E+03 -0.39176248697E+00 -0.82908222930E+03  0.83974025938E+03  0.77981265510E+02 0.  0.
         24    2    4    4    0    0  0.64713914492E+03  0.73921450285E+03 -0.10992888851E+04  0.14772141075E+04  0.92186291562E+02 0.  0.
         13    1    3    3    0    0 -0.28604232336E+02 -0.74076021227E+01  0.37413511280E+02  0.47674369456E+02  0.00000000000E+00 0.  1.
        -13    1    3    3    0    0 -0.51034466792E+03 -0.73141513824E+03  0.12452486648E+04  0.15316866591E+04  0.00000000000E+00 0. -1.
          2    1    6    6  502    0  0.52915913128E+03  0.56100074523E+03 -0.82217229267E+03  0.11272526342E+04  0.00000000000E+00 0. -1.
          3    1    5    5  503    0 -0.49536241821E+02 -0.38145387312E+02 -0.44574013335E+03  0.45010351732E+03  0.00000000000E+00 0. -1.
         -4    1    5    5    0  503 -0.58654002845E+02  0.37753624825E+02 -0.38334209595E+03  0.38963674206E+03  0.00000000000E+00 0.  1.
         -1    1    6    6    0  502  0.11798001364E+03  0.17821375762E+03 -0.27711659238E+03  0.34996147330E+03  0.00000000000E+00 0.  1.
<mgrwt>
<rscale>  0 0.38424385E+04</rscale>
<asrwt>0</asrwt>
<pdfrwt beam="1">  1        2 0.25004665E+00 0.38424385E+04</pdfrwt>
<pdfrwt beam="2">  1       -2 0.34938648E+00 0.38424385E+04</pdfrwt>
<totfact> 0.13534576E-01</totfact>
</mgrwt>
</event>
<event>
11    1  0.2404191E-008  0.2021744E+04  0.7818608E-02  0.8596521E-01
          2   -1    0    0  501    0  0.00000000000E+00  0.00000000000E+00  0.24627006281E+04  0.24627006281E+04  0.00000000000E+00 0. -1.
         -2   -1    0    0    0  501 -0.00000000000E+00 -0.00000000000E+00 -0.41493570355E+03  0.41493570355E+03  0.00000000000E+00 0.  1.
         23    2    1    2    0    0  0.72285124832E+03 -0.54407033218E+02  0.33917393110E+03  0.80541921413E+03  0.90482608764E+02 0.  0.
        254    2    1    2    0    0 -0.72285124832E+03  0.54407033218E+02  0.17085909935E+04  0.20722171175E+04  0.92158914209E+03 0.  0.
        -24    2    4    4    0    0 -0.44131642407E+03 -0.38836351107E+03  0.97248756974E+03  0.11388355475E+04  0.75019517974E+02 0.  0.
         13    1    3    3    0    0  0.71752728532E+03 -0.59618308547E+02  0.32617447192E+03  0.79043629347E+03  0.00000000000E+00 0.  1.
        -13    1    3    3    0    0  0.53239629930E+01  0.52112753290E+01  0.12999459179E+02  0.14982920658E+02  0.00000000000E+00 0. -1.
          2    1    4    4  502    0  0.21300328258E+02 -0.91522658955E+01  0.67804880593E+02  0.71658703499E+02  0.00000000000E+00 0. -1.
          1    1    5    5  503    0 -0.13072650887E+03 -0.92050018463E+02  0.21159100688E+03  0.26520441213E+03  0.00000000000E+00 0. -1.
         -2    1    5    5    0  503 -0.31058991520E+03 -0.29631349261E+03  0.76089656286E+03  0.87363113538E+03  0.00000000000E+00 0.  1.
         -1    1    4    4    0  502 -0.30283515251E+03  0.45192281018E+03  0.66829854312E+03  0.86172286653E+03  0.00000000000E+00 0.  1.
<mgrwt>
<rscale>  0 0.20217442E+04</rscale>
<asrwt>0</asrwt>
<pdfrwt beam="1">  1        2 0.37887701E+00 0.20217442E+04</pdfrwt>
<pdfrwt beam="2">  1       -2 0.63836263E-01 0.20217442E+04</pdfrwt>
<totfact> 0.77038313E+00</totfact>
</mgrwt>
</event>
<event>
11    1  0.2404191E-008  0.2208014E+04  0.7818608E-02  0.8515100E-01
          1   -1    0    0  501    0  0.00000000000E+00  0.00000000000E+00  0.11583245756E+04  0.11583245756E+04  0.00000000000E+00 0. -1.
         -1   -1    0    0    0  501 -0.00000000000E+00 -0.00000000000E+00 -0.10522363090E+04  0.10522363090E+04  0.00000000000E+00 0.  1.
         23    2    1    2    0    0  0.39647849196E+02  0.34115880425E+02  0.96166280166E+03  0.96737406346E+03  0.91002139080E+02 0.  0.
        254    2    1    2    0    0 -0.39647849196E+02 -0.34115880425E+02 -0.85557453508E+03  0.12431868211E+04  0.90042758830E+03 0.  0.
        -24    2    4    4    0    0  0.11619219126E+03 -0.27228596916E+03  0.16161844688E+02  0.30701031979E+03  0.79711084081E+02 0.  0.
         13    1    3    3    0    0  0.46856610054E+02  0.81715544513E+01  0.88203629495E+03  0.88331780340E+03  0.00000000000E+00 0. -1.
        -13    1    3    3    0    0 -0.72087608583E+01  0.25944325973E+02  0.79626506715E+02  0.84056260058E+02  0.00000000000E+00 0.  1.
          4    1    4    4  502    0 -0.32946786861E+02  0.48324541515E+02 -0.32306524470E+02  0.66816641643E+02  0.00000000000E+00 0. -1.
          1    1    5    5  503    0  0.85497354477E+01 -0.76281412952E+02  0.31268226802E+02  0.82883375568E+02  0.00000000000E+00 0. -1.
         -2    1    5    5    0  503  0.10764245582E+03 -0.19600455621E+03 -0.15106382114E+02  0.22412694423E+03  0.00000000000E+00 0.  1.
         -3    1    4    4    0  502 -0.12289325360E+03  0.18984554722E+03 -0.83942985530E+03  0.86935985964E+03  0.00000000000E+00 0.  1.
<mgrwt>
<rscale>  0 0.22080137E+04</rscale>
<asrwt>0</asrwt>
<pdfrwt beam="1">  1        1 0.17820378E+00 0.22080137E+04</pdfrwt>
<pdfrwt beam="2">  1       -1 0.16188251E+00 0.22080137E+04</pdfrwt>
<totfact> 0.29552083E+00</totfact>
</mgrwt>
</event>
<event>
11    1  0.2404191E-008  0.3473305E+04  0.7818608E-02  0.8120146E-01
         -2   -1    0    0    0  501 -0.00000000000E+00  0.00000000000E+00  0.14330817948E+04  0.14330817948E+04  0.00000000000E+00 0. -1.
          2   -1    0    0  501    0  0.00000000000E+00 -0.00000000000E+00 -0.21045285866E+04  0.21045285866E+04  0.00000000000E+00 0.  1.
         23    2    1    2    0    0  0.97377138482E+03  0.12696852983E+04 -0.11013931630E+03  0.16059427290E+04  0.81178280278E+02 0.  0.
        254    2    1    2    0    0 -0.97377138482E+03 -0.12696852983E+04 -0.56130747550E+03  0.19316676524E+04  0.92517153592E+03 0.  0.
        -24    2    4    4    0    0 -0.17140363655E+02 -0.41423199884E+03  0.80606448836E+02  0.42960117497E+03  0.78599166754E+02 0.  0.
         11    1    3    3    0    0  0.82765048353E+03  0.10368477866E+04 -0.10777318044E+03  0.13310423412E+04  0.00000000000E+00 0.  1.
        -11    1    3    3    0    0  0.14612090129E+03  0.23283751163E+03 -0.23661358680E+01  0.27490038781E+03  0.00000000000E+00 0. -1.
          4    1    4    4  502    0 -0.53820414808E+03 -0.49058026512E+03 -0.60308759392E+03  0.94554076986E+03  0.00000000000E+00 0. -1.
          1    1    5    5  503    0 -0.96024682803E+01 -0.36512079538E+03  0.95876887917E+02  0.37762121266E+03  0.00000000000E+00 0. -1.
         -2    1    5    5    0  503 -0.75378953751E+01 -0.49111203460E+02 -0.15270439082E+02  0.51979962310E+02  0.00000000000E+00 0.  1.
         -3    1    4    4    0  502 -0.41842687309E+03 -0.36487303431E+03 -0.38826330418E+02  0.55652570760E+03  0.00000000000E+00 0.  1.
<mgrwt>
<rscale>  0 0.34733048E+04</rscale>
<asrwt>0</asrwt>
<pdfrwt beam="1">  1        2 0.32377363E+00 0.34733048E+04</pdfrwt>
<pdfrwt beam="2">  1       -2 0.22047412E+00 0.34733048E+04</pdfrwt>
<totfact> 0.47220935E-01</totfact>
</mgrwt>
</event>
<event>
11    1  0.2404191E-008  0.2063948E+04  0.7818608E-02  0.8577293E-01
         -1   -1    0    0    0  501 -0.00000000000E+00  0.00000000000E+00  0.28563707299E+03  0.28563707299E+03  0.00000000000E+00 0.  1.
          1   -1    0    0  501    0  0.00000000000E+00 -0.00000000000E+00 -0.37284040374E+04  0.37284040374E+04  0.00000000000E+00 0. -1.
         23    2    1    2    0    0  0.60880692713E+03  0.39204554424E+03 -0.58927863071E+03  0.93808963710E+03  0.91745732100E+02 0.  0.
        254    2    1    2    0    0 -0.60880692713E+03 -0.39204554424E+03 -0.28534883337E+04  0.30759514732E+04  0.89147978782E+03 0.  0.
        -24    2    4    4    0    0 -0.58953749551E+03  0.10893165679E+03 -0.12012717476E+04  0.13449177723E+04  0.79557767376E+02 0.  0.
         11    1    3    3    0    0  0.30951675932E+03  0.18966453939E+03 -0.23729850062E+03  0.43368633849E+03  0.00000000000E+00 0.  1.
        -11    1    3    3    0    0  0.29929016781E+03  0.20238100485E+03 -0.35198013009E+03  0.50440329861E+03  0.00000000000E+00 0. -1.
          2    1    4    4  502    0  0.17750220446E+02 -0.45280428101E+03 -0.15059479586E+04  0.15726493701E+04  0.00000000000E+00 0. -1.
          3    1    5    5  503    0 -0.46780082333E+03  0.10728962571E+03 -0.89997492745E+03  0.10199527166E+04  0.00000000000E+00 0. -1.
         -4    1    5    5    0  503 -0.12173667218E+03  0.16420310769E+01 -0.30129682012E+03  0.32496505571E+03  0.00000000000E+00 0.  1.
         -1    1    4    4    0  502 -0.37019652065E+02 -0.48172920009E+02 -0.14626862746E+03  0.15838433079E+03  0.00000000000E+00 0.  1.
<mgrwt>
<rscale>  0 0.20639481E+04</rscale>
<asrwt>0</asrwt>
<pdfrwt beam="1">  1        1 0.57360061E+00 0.20639481E+04</pdfrwt>
<pdfrwt beam="2">  1       -1 0.43944166E-01 0.20639481E+04</pdfrwt>
<totfact> 0.77621577E-01</totfact>
</mgrwt>
</event>
<event>
12    1  0.2404191E-008  0.2193444E+04  0.7818608E-02  0.8521162E-01
          1   -1    0    0  501    0  0.00000000000E+00  0.00000000000E+00  0.37505892491E+03  0.37505892491E+03  0.00000000000E+00 0. -1.
         -1   -1    0    0    0  501 -0.00000000000E+00 -0.00000000000E+00 -0.32069618748E+04  0.32069618748E+04  0.00000000000E+00 0.  1.
         23    2    1    2    0    0  0.46318205968E+03 -0.23458342475E+03  0.34752013050E+02  0.52772959701E+03  0.87885275078E+02 0.  0.
        254    2    1    2    0    0 -0.46318205968E+03  0.23458342475E+03 -0.28666549629E+04  0.30542912027E+04  0.91728788873E+03 0.  0.
        -24    2    4    4    0    0  0.20663586170E+02 -0.23016338123E+03 -0.24223412862E+03  0.34464135684E+03  0.81842079168E+02 0.  0.
         24    2    4    4    0    0 -0.48384564585E+03  0.46474680598E+03 -0.26244208343E+04  0.27096498459E+04  0.67241125332E+02 0.  0.
         11    1    3    3    0    0  0.23328936781E+03 -0.12420816930E+03 -0.26019257378E+02  0.26557221280E+03  0.00000000000E+00 0.  1.
        -11    1    3    3    0    0  0.22989269187E+03 -0.11037525545E+03  0.60771270428E+02  0.26215738421E+03  0.00000000000E+00 0. -1.
          2    1    6    6  502    0 -0.79870522346E+02  0.10323493713E+03 -0.58734343178E+03  0.60167188686E+03  0.00000000000E+00 0. -1.
          3    1    5    5  503    0  0.38978330620E+01 -0.21175554111E+03 -0.18121300494E+03  0.27873599598E+03  0.00000000000E+00 0. -1.
         -4    1    5    5    0  503  0.16765753108E+02 -0.18407840117E+02 -0.61021123677E+02  0.65905360858E+02  0.00000000000E+00 0.  1.
         -1    1    6    6    0  502 -0.40397512350E+03  0.36151186884E+03 -0.20370774025E+04  0.21079779590E+04  0.00000000000E+00 0.  1.
<mgrwt>
<rscale>  0 0.21934445E+04</rscale>
<asrwt>0</asrwt>
<pdfrwt beam="1">  1        1 0.57701374E-01 0.21934445E+04</pdfrwt>
<pdfrwt beam="2">  1       -1 0.49337874E+00 0.21934445E+04</pdfrwt>
<totfact> 0.97778579E-02</totfact>
</mgrwt>
</event>
<event>
12    1  0.2404191E-008  0.1035283E+04  0.7818608E-02  0.9270671E-01
          2   -1    0    0  501    0  0.00000000000E+00  0.00000000000E+00  0.10137173841E+04  0.10137173841E+04  0.00000000000E+00 0. -1.
         -2   -1    0    0    0  501 -0.00000000000E+00 -0.00000000000E+00 -0.26432696344E+03  0.26432696344E+03  0.00000000000E+00 0.  1.
         23    2    1    2    0    0  0.61773167789E+02  0.52487281927E+02  0.15732537642E+03  0.20036636310E+03  0.93939163147E+02 0.  0.
        254    2    1    2    0    0 -0.61773167789E+02 -0.52487281927E+02  0.59206504429E+03  0.10776779845E+04  0.89681546740E+03 0.  0.
        -24    2    4    4    0    0 -0.10455828134E+03  0.40772638488E+03  0.33682866932E+03  0.54580782337E+03  0.85319332280E+02 0.  0.
         24    2    4    4    0    0  0.42785113556E+02 -0.46021366680E+03  0.25523637497E+03  0.53187016111E+03  0.64133268425E+02 0.  0.
         11    1    3    3    0    0  0.84485194746E+02  0.33305542454E+02  0.13695700575E+03  0.16432963431E+03  0.00000000000E+00 0. -1.
        -11    1    3    3    0    0 -0.22712026957E+02  0.19181739473E+02  0.20368370665E+02  0.36036728782E+02  0.00000000000E+00 0.  1.
          2    1    6    6  502    0 -0.60328627312E+01 -0.22677173311E+03  0.10474484148E+03  0.24986655676E+03  0.00000000000E+00 0. -1.
          3    1    5    5  503    0 -0.20792545794E+02  0.14141398958E+02  0.87827012776E+01  0.26635408141E+02  0.00000000000E+00 0. -1.
         -4    1    5    5    0  503 -0.83765735550E+02  0.39358498592E+03  0.32804596804E+03  0.51917241523E+03  0.00000000000E+00 0.  1.
         -1    1    6    6    0  502  0.48817976287E+02 -0.23344193369E+03  0.15049153349E+03  0.28200360435E+03  0.00000000000E+00 0.  1.
<mgrwt>
<rscale>  0 0.10352832E+04</rscale>
<asrwt>0</asrwt>
<pdfrwt beam="1">  1        2 0.15595652E+00 0.10352832E+04</pdfrwt>
<pdfrwt beam="2">  1       -2 0.40665687E-01 0.10352832E+04</pdfrwt>
<totfact> 0.14072314E+02</totfact>
</mgrwt>
</event>
<event>
12    1  0.2404191E-008  0.1579721E+04  0.7818608E-02  0.8833104E-01
          2   -1    0    0  501    0  0.00000000000E+00  0.00000000000E+00  0.82227175556E+03  0.82227175556E+03  0.00000000000E+00 0. -1.
         -2   -1    0    0    0  501 -0.00000000000E+00 -0.00000000000E+00 -0.75872637106E+03  0.75872637106E+03  0.00000000000E+00 0.  1.
         23    2    1    2    0    0  0.20439717142E+02 -0.88151980406E+02  0.54003623985E+03  0.55498004727E+03  0.90416584915E+02 0.  0.
        254    2    1    2    0    0 -0.20439717142E+02  0.88151980406E+02 -0.47649085535E+03  0.10260180793E+04  0.90414656458E+03 0.  0.
        -24    2    4    4    0    0 -0.34072750768E+03 -0.16853761539E+03 -0.47038777747E+03  0.61006775744E+03  0.80111454719E+02 0.  0.
         24    2    4    4    0    0  0.32028779054E+03  0.25668959580E+03 -0.61030778745E+01  0.41595032191E+03  0.67108906862E+02 0.  0.
         11    1    3    3    0    0  0.15956812615E+02 -0.19645776196E+02  0.37997408407E+03  0.38081607234E+03  0.00000000000E+00 0. -1.
        -11    1    3    3    0    0  0.44829045262E+01 -0.68506204210E+02  0.16006215579E+03  0.17416397493E+03  0.00000000000E+00 0.  1.
          2    1    6    6  502    0  0.32083675302E+03  0.25242482140E+03 -0.12287098214E+02  0.40841827252E+03  0.00000000000E+00 0. -1.
          1    1    5    5  503    0 -0.34458209800E+03 -0.16701446262E+03 -0.46945289151E+03  0.60581900790E+03  0.00000000000E+00 0. -1.
         -2    1    5    5    0  503  0.38545903159E+01 -0.15231527728E+01 -0.93488595966E+00  0.42487495372E+01  0.00000000000E+00 0.  1.
         -1    1    6    6    0  502 -0.54896248002E+00  0.42647743987E+01  0.61840203397E+01  0.75320493917E+01  0.00000000000E+00 0.  1.
<mgrwt>
<rscale>  0 0.15797206E+04</rscale>
<asrwt>0</asrwt>
<pdfrwt beam="1">  1        2 0.12650335E+00 0.15797206E+04</pdfrwt>
<pdfrwt beam="2">  1       -2 0.11672713E+00 0.15797206E+04</pdfrwt>
<totfact> 0.18128338E+01</totfact>
</mgrwt>
</event>
<event>
12    1  0.2404191E-008  0.1263610E+04  0.7818608E-02  0.9058932E-01
         -1   -1    0    0    0  501 -0.00000000000E+00  0.00000000000E+00  0.43883535007E+03  0.43883535007E+03  0.00000000000E+00 0.  1.
          1   -1    0    0  501    0  0.00000000000E+00 -0.00000000000E+00 -0.90962877807E+03  0.90962877807E+03  0.00000000000E+00 0. -1.
         23    2    1    2    0    0  0.19538767133E+03 -0.17876363180E+03  0.31589376986E+02  0.28189788639E+03  0.91300336557E+02 0.  0.
        254    2    1    2    0    0 -0.19538767133E+03  0.17876363180E+03 -0.50238280499E+03  0.10665662418E+04  0.90279692464E+03 0.  0.
        -24    2    4    4    0    0 -0.13043706630E+03 -0.10847123219E+03 -0.68735048408E+03  0.71199978091E+03  0.75585471956E+02 0.  0.
         24    2    4    4    0    0 -0.64950605033E+02  0.28723486399E+03  0.18496767909E+03  0.35456646084E+03  0.69151172520E+02 0.  0.
         13    1    3    3    0    0  0.86866158439E+02 -0.12250920910E+03 -0.15342810395E+02  0.15096237156E+03  0.00000000000E+00 0. -1.
        -13    1    3    3    0    0  0.10852151289E+03 -0.56254422696E+02  0.46932187381E+02  0.13093551483E+03  0.00000000000E+00 0.  1.
          2    1    6    6  502    0 -0.35234433431E+02  0.60324741220E+02  0.20690121084E+02  0.72860282822E+02  0.00000000000E+00 0. -1.
          3    1    5    5  503    0  0.88720248081E+01 -0.16498507731E+02 -0.64113288490E+02  0.66793916957E+02  0.00000000000E+00 0. -1.
         -4    1    5    5    0  503 -0.13930909110E+03 -0.91972724460E+02 -0.62323719559E+03  0.64520586395E+03  0.00000000000E+00 0.  1.
         -1    1    6    6    0  502 -0.29716171602E+02  0.22691012277E+03  0.16427755801E+03  0.28170617802E+03  0.00000000000E+00 0.  1.
<mgrwt>
<rscale>  0 0.12636095E+04</rscale>
<asrwt>0</asrwt>
<pdfrwt beam="1">  1        1 0.13994289E+00 0.12636095E+04</pdfrwt>
<pdfrwt beam="2">  1       -1 0.67513132E-01 0.12636095E+04</pdfrwt>
<totfact> 0.39121860E+01</totfact>
</mgrwt>
</event>
<event>
12    1  0.2404191E-008  0.1468116E+04  0.7818608E-02  0.8905937E-01
          2   -1    0    0  501    0  0.00000000000E+00  0.00000000000E+00  0.41375848638E+04  0.41375848638E+04  0.00000000000E+00 0.  1.
         -2   -1    0    0    0  501 -0.00000000000E+00 -0.00000000000E+00 -0.13023080943E+03  0.13023080943E+03  0.00000000000E+00 0. -1.
         23    2    1    2    0    0 -0.11745954333E+03 -0.17369553247E+03  0.24100921791E+04  0.24209150770E+04  0.91206447267E+02 0.  0.
        254    2    1    2    0    0  0.11745954333E+03  0.17369553247E+03  0.15972618753E+04  0.18469005962E+04  0.90323276723E+03 0.  0.
        -24    2    4    4    0    0  0.33692504936E+03 -0.15013636979E+03  0.12760330774E+04  0.13312296824E+04  0.88615090081E+02 0.  0.
         24    2    4    4    0    0 -0.21946550603E+03  0.32383190226E+03  0.32122879790E+03  0.51567091387E+03  0.98470003346E+02 0.  0.
         11    1    3    3    0    0 -0.77425782548E+02 -0.10844125730E+03  0.19455078412E+04  0.19500653882E+04  0.00000000000E+00 0.  1.
        -11    1    3    3    0    0 -0.40033760784E+02 -0.65254275173E+02  0.46458433785E+03  0.47084968876E+03  0.00000000000E+00 0. -1.
          4    1    6    6  502    0 -0.48955824484E+02  0.15615250768E+03  0.11673001295E+03  0.20101287105E+03  0.00000000000E+00 0. -1.
          3    1    5    5  503    0  0.10062183248E+02 -0.19368397064E+02  0.14614504549E+03  0.14776588463E+03  0.00000000000E+00 0. -1.
         -4    1    5    5    0  503  0.32686286611E+03 -0.13076797272E+03  0.11298880319E+04  0.11834637977E+04  0.00000000000E+00 0.  1.
         -3    1    6    6    0  502 -0.17050968154E+03  0.16767939458E+03  0.20449878495E+03  0.31465804283E+03  0.00000000000E+00 0.  1.
<mgrwt>
<rscale>  0 0.14681158E+04</rscale>
<asrwt>0</asrwt>
<pdfrwt beam="1">  1        2 0.63655142E+00 0.14681158E+04</pdfrwt>
<pdfrwt beam="2">  1       -2 0.20035512E-01 0.14681158E+04</pdfrwt>
<totfact> 0.55847282E+00</totfact>
</mgrwt>
</event>
<event>
11    1  0.2404191E-008  0.1463163E+04  0.7818608E-02  0.8909326E-01
         -2   -1    0    0    0  501 -0.00000000000E+00  0.00000000000E+00  0.14553289325E+04  0.14553289325E+04  0.00000000000E+00 0.  1.
          2   -1    0    0  501    0  0.00000000000E+00 -0.00000000000E+00 -0.36775977640E+03  0.36775977640E+03  0.00000000000E+00 0. -1.
         23    2    1    2    0    0  0.13903899012E+03  0.24201967745E+02  0.87928300219E+03  0.89505755378E+03  0.89843478469E+02 0.  0.
        254    2    1    2    0    0 -0.13903899012E+03 -0.24201967745E+02  0.20828615387E+03  0.92803115508E+03  0.89327550447E+03 0.  0.
        -24    2    4    4    0    0 -0.32145626451E+03 -0.22040541611E+03 -0.18305843828E+03  0.43793330510E+03  0.79765346147E+02 0.  0.
         11    1    3    3    0    0  0.89203333974E+02 -0.10648520787E+02  0.70000835606E+03  0.70574947704E+03  0.00000000000E+00 0.  1.
        -11    1    3    3    0    0  0.49835656150E+02  0.34850488532E+02  0.17927464613E+03  0.18930807674E+03  0.00000000000E+00 0. -1.
          4    1    4    4  502    0  0.17305281423E+03  0.15765502551E+03  0.24662035709E+03  0.34003526892E+03  0.00000000000E+00 0. -1.
          3    1    5    5  503    0 -0.28481835928E+03 -0.16613489447E+03 -0.17070440423E+03  0.37129812087E+03  0.00000000000E+00 0. -1.
         -4    1    5    5    0  503 -0.36637905238E+02 -0.54270521646E+02 -0.12354034045E+02  0.66635184228E+02  0.00000000000E+00 0.  1.
         -3    1    4    4    0  502  0.93644601592E+01  0.38548422857E+02  0.14472423506E+03  0.15006258106E+03  0.00000000000E+00 0.  1.
<mgrwt>
<rscale>  0 0.14631629E+04</rscale>
<asrwt>0</asrwt>
<pdfrwt beam="1">  1        2 0.56578428E-01 0.14631629E+04</pdfrwt>
<pdfrwt beam="2">  1       -2 0.22389676E+00 0.14631629E+04</pdfrwt>
<totfact> 0.79058032E+00</totfact>
</mgrwt>
</event>
<event>
11    1  0.2404191E-008  0.1483347E+04  0.7818608E-02  0.8895603E-01
          2   -1    0    0  501    0  0.00000000000E+00  0.00000000000E+00  0.17719064122E+04  0.17719064122E+04  0.00000000000E+00 0. -1.
         -2   -1    0    0    0  501 -0.00000000000E+00 -0.00000000000E+00 -0.31044494902E+03  0.31044494902E+03  0.00000000000E+00 0.  1.
         23    2    1    2    0    0  0.11956380373E+03  0.45267456518E+03  0.49171739287E+03  0.68528489009E+03  0.92841914131E+02 0.  0.
        254    2    1    2    0    0 -0.11956380373E+03 -0.45267456518E+03  0.96974407029E+03  0.13970664711E+04  0.89004572786E+03 0.  0.
        -24    2    4    4    0    0 -0.48455556079E+03 -0.14764041216E+03  0.50368173935E+03  0.71860838123E+03  0.78172426257E+02 0.  0.
         11    1    3    3    0    0  0.51155458269E+02  0.21721368526E+03  0.30073313300E+03  0.37448509084E+03  0.00000000000E+00 0. -1.
        -11    1    3    3    0    0  0.68408345463E+02  0.23546087991E+03  0.19098425986E+03  0.31079979925E+03  0.00000000000E+00 0.  1.
          4    1    4    4  502    0  0.22427094626E+03 -0.18032732489E+03  0.19144794963E+03  0.34564102600E+03  0.00000000000E+00 0. -1.
          3    1    5    5  503    0 -0.14953550455E+03 -0.26251403831E+02  0.19523909479E+03  0.24732227449E+03  0.00000000000E+00 0. -1.
         -4    1    5    5    0  503 -0.33502005624E+03 -0.12138900833E+03  0.30844264456E+03  0.47128610675E+03  0.00000000000E+00 0.  1.
         -3    1    4    4    0  502  0.14072081080E+03 -0.12470682812E+03  0.27461438132E+03  0.33281706386E+03  0.00000000000E+00 0.  1.
<mgrwt>
<rscale>  0 0.14833468E+04</rscale>
<asrwt>0</asrwt>
<pdfrwt beam="1">  1        2 0.27260098E+00 0.14833468E+04</pdfrwt>
<pdfrwt beam="2">  1       -2 0.47760762E-01 0.14833468E+04</pdfrwt>
<totfact> 0.35941030E+01</totfact>
</mgrwt>
</event>
<event>
12    1  0.2404191E-008  0.1315904E+04  0.7818608E-02  0.9017047E-01
          1   -1    0    0  501    0  0.00000000000E+00  0.00000000000E+00  0.13234587442E+04  0.13234587442E+04  0.00000000000E+00 0. -1.
         -1   -1    0    0    0  501 -0.00000000000E+00 -0.00000000000E+00 -0.32709831310E+03  0.32709831310E+03  0.00000000000E+00 0.  1.
         23    2    1    2    0    0 -0.18371552748E+03 -0.18640575669E+03 -0.89983321972E+01  0.27745448440E+03  0.91659804542E+02 0.  0.
        254    2    1    2    0    0  0.18371552748E+03  0.18640575669E+03  0.10053587633E+04  0.13731025729E+04  0.89786743544E+03 0.  0.
        -24    2    4    4    0    0  0.41184644032E+03  0.37845351345E+03  0.40416802334E+03  0.69422705826E+03  0.75860827080E+02 0.  0.
         24    2    4    4    0    0 -0.22813091284E+03 -0.19204775676E+03  0.60119074000E+03  0.67887551468E+03  0.10254562054E+03 0.  0.
         13    1    3    3    0    0 -0.11683722647E+02 -0.63466090553E+02  0.93855977376E+01  0.65211528658E+02  0.00000000000E+00 0. -1.
        -13    1    3    3    0    0 -0.17203180483E+03 -0.12293966614E+03 -0.18383929935E+02  0.21224295574E+03  0.00000000000E+00 0.  1.
          4    1    6    6  502    0 -0.77312440484E+01 -0.22274577135E+02  0.12639735378E+03  0.12857768066E+03  0.00000000000E+00 0. -1.
          1    1    5    5  503    0  0.78786865505E+02  0.81877006261E+02  0.12083013170E+03  0.16586480958E+03  0.00000000000E+00 0. -1.
         -2    1    5    5    0  503  0.33305957482E+03  0.29657650718E+03  0.28333789164E+03  0.52836224868E+03  0.00000000000E+00 0.  1.
         -3    1    6    6    0  502 -0.22039966880E+03 -0.16977317962E+03  0.47479338622E+03  0.55029783402E+03  0.00000000000E+00 0.  1.
<mgrwt>
<rscale>  0 0.13159044E+04</rscale>
<asrwt>0</asrwt>
<pdfrwt beam="1">  1        1 0.20360903E+00 0.13159044E+04</pdfrwt>
<pdfrwt beam="2">  1       -1 0.50322818E-01 0.13159044E+04</pdfrwt>
<totfact> 0.33858275E+01</totfact>
</mgrwt>
</event>
<event>
12    1  0.2404191E-008  0.1788816E+04  0.7818608E-02  0.8712270E-01
         -1   -1    0    0    0  501 -0.00000000000E+00  0.00000000000E+00  0.89480656383E+03  0.89480656383E+03  0.00000000000E+00 0.  1.
          1   -1    0    0  501    0  0.00000000000E+00 -0.00000000000E+00 -0.89400993989E+03  0.89400993989E+03  0.00000000000E+00 0. -1.
         23    2    1    2    0    0 -0.51768635476E+03 -0.12202761071E+03 -0.40397076039E+03  0.67505084213E+03  0.98037566963E+02 0.  0.
        254    2    1    2    0    0  0.51768635476E+03  0.12202761071E+03  0.40476738434E+03  0.11137656616E+04  0.89092503267E+03 0.  0.
        -24    2    4    4    0    0  0.18159896778E+03 -0.15521905163E+03 -0.22719473744E+03  0.33905906253E+03  0.79198864107E+02 0.  0.
         24    2    4    4    0    0  0.33608738698E+03  0.27724666233E+03  0.63196212177E+03  0.77470659907E+03  0.10475565767E+03 0.  0.
         13    1    3    3    0    0 -0.37428620768E+03 -0.11648267215E+03 -0.25187263133E+03  0.46593797933E+03  0.00000000000E+00 0. -1.
        -13    1    3    3    0    0 -0.14340014708E+03 -0.55449385597E+01 -0.15209812906E+03  0.20911286280E+03  0.00000000000E+00 0.  1.
          4    1    6    6  502    0  0.16728120898E+03  0.11329416095E+03  0.37715220365E+03  0.42785786717E+03  0.00000000000E+00 0. -1.
          1    1    5    5  503    0  0.12049392511E+03 -0.65994352224E+02 -0.16348536752E+03  0.21354509104E+03  0.00000000000E+00 0. -1.
         -2    1    5    5    0  503  0.61105042661E+02 -0.89224699402E+02 -0.63709369917E+02  0.12551397148E+03  0.00000000000E+00 0.  1.
         -3    1    6    6    0  502  0.16880617801E+03  0.16395250138E+03  0.25480991813E+03  0.34684873190E+03  0.00000000000E+00 0.  1.
<mgrwt>
<rscale>  0 0.17888163E+04</rscale>
<asrwt>0</asrwt>
<pdfrwt beam="1">  1        1 0.13753999E+00 0.17888163E+04</pdfrwt>
<pdfrwt beam="2">  1       -1 0.13766255E+00 0.17888163E+04</pdfrwt>
<totfact> 0.76146112E+00</totfact>
</mgrwt>
</event>
<event>
11    1  0.2404191E-008  0.1428290E+04  0.7818608E-02  0.8933591E-01
         -3   -1    0    0    0  501 -0.00000000000E+00  0.00000000000E+00  0.14768863661E+04  0.14768863661E+04  0.00000000000E+00 0.  1.
          3   -1    0    0  501    0  0.00000000000E+00 -0.00000000000E+00 -0.34532338701E+03  0.34532338701E+03  0.00000000000E+00 0. -1.
         23    2    1    2    0    0 -0.16899834544E+03  0.23002304822E+02  0.84256895223E+03  0.86448190394E+03  0.91197457101E+02 0.  0.
        254    2    1    2    0    0  0.16899834544E+03 -0.23002304822E+02  0.28899402688E+03  0.95772784920E+03  0.89701479295E+03 0.  0.
        -24    2    4    4    0    0  0.30781914844E+02 -0.30787696682E+03 -0.18520010606E+03  0.36955782084E+03  0.80858831774E+02 0.  0.
         13    1    3    3    0    0 -0.23875436462E+02 -0.26276318570E+02  0.96258365465E+02  0.10259704823E+03  0.00000000000E+00 0. -1.
        -13    1    3    3    0    0 -0.14512290898E+03  0.49278623393E+02  0.74631058676E+03  0.76188485570E+03  0.00000000000E+00 0.  1.
          4    1    4    4  502    0  0.37412596325E+02  0.21185308479E+03  0.23549557474E+03  0.31896645219E+03  0.00000000000E+00 0. -1.
          3    1    5    5  503    0 -0.25051303997E+02 -0.11641638581E+03 -0.85451274083E+02  0.14656828770E+03  0.00000000000E+00 0. -1.
         -4    1    5    5    0  503  0.55833218841E+02 -0.19146058101E+03 -0.99748831974E+02  0.22298953313E+03  0.00000000000E+00 0.  1.
         -3    1    4    4    0  502  0.10080383427E+03  0.73021577214E+02  0.23869855819E+03  0.26920357618E+03  0.00000000000E+00 0.  1.
<mgrwt>
<rscale>  0 0.14282904E+04</rscale>
<asrwt>0</asrwt>
<pdfrwt beam="1">  1        3 0.53126676E-01 0.14282904E+04</pdfrwt>
<pdfrwt beam="2">  1       -3 0.22721328E+00 0.14282904E+04</pdfrwt>
<totfact> 0.88872790E-01</totfact>
</mgrwt>
</event>
<event>
11    1  0.2404191E-008  0.2051962E+04  0.7818608E-02  0.8582705E-01
         -1   -1    0    0    0  501 -0.00000000000E+00  0.00000000000E+00  0.35214675550E+03  0.35214675550E+03  0.00000000000E+00 0.  1.
          1   -1    0    0  501    0  0.00000000000E+00 -0.00000000000E+00 -0.29891998978E+04  0.29891998978E+04  0.00000000000E+00 0. -1.
         23    2    1    2    0    0 -0.79376282522E+03  0.22392198284E+03 -0.10638834036E+04  0.13492217617E+04  0.91383743523E+02 0.  0.
        254    2    1    2    0    0  0.79376282522E+03 -0.22392198284E+03 -0.15731697387E+04  0.19921248916E+04  0.90194128413E+03 0.  0.
        -24    2    4    4    0    0 -0.16960207350E+02 -0.24566487250E+02  0.91672240997E+02  0.12548503557E+03  0.80321438319E+02 0.  0.
         13    1    3    3    0    0 -0.79538818085E+03  0.22224026236E+03 -0.10537059803E+04  0.13387790652E+04  0.00000000000E+00 0. -1.
        -13    1    3    3    0    0  0.16253556340E+01  0.16817204757E+01 -0.10177423284E+02  0.10442696462E+02  0.00000000000E+00 0.  1.
          2    1    4    4  502    0  0.63514413535E+02  0.20175756687E+01 -0.73874696576E+02  0.97445482874E+02  0.00000000000E+00 0. -1.
          1    1    5    5  503    0 -0.31397851129E+01 -0.39177443055E+02  0.88915683614E+01  0.40296281252E+02  0.00000000000E+00 0. -1.
         -2    1    5    5    0  503 -0.13820422237E+02  0.14610955805E+02  0.82780672636E+02  0.85188754319E+02  0.00000000000E+00 0.  1.
         -1    1    4    4    0  502  0.74720861903E+03 -0.20137307126E+03 -0.15909672831E+04  0.17691943732E+04  0.00000000000E+00 0.  1.
<mgrwt>
<rscale>  0 0.20519620E+04</rscale>
<asrwt>0</asrwt>
<pdfrwt beam="1">  1        1 0.45987692E+00 0.20519620E+04</pdfrwt>
<pdfrwt beam="2">  1       -1 0.54176422E-01 0.20519620E+04</pdfrwt>
<totfact> 0.19369951E+00</totfact>
</mgrwt>
</event>
<event>
12    1  0.2404191E-008  0.1276845E+04  0.7818608E-02  0.9048131E-01
          1   -1    0    0  501    0  0.00000000000E+00  0.00000000000E+00  0.23666152123E+04  0.23666152123E+04  0.00000000000E+00 0. -1.
         -1   -1    0    0    0  501 -0.00000000000E+00 -0.00000000000E+00 -0.17222208496E+03  0.17222208496E+03  0.00000000000E+00 0.  1.
         23    2    1    2    0    0  0.28665460586E+03  0.14233751839E+02  0.29631652984E+03  0.42209961441E+03  0.89393153430E+02 0.  0.
        254    2    1    2    0    0 -0.28665460586E+03 -0.14233751839E+02  0.18980765975E+04  0.21167376828E+04  0.89191377680E+03 0.  0.
        -24    2    4    4    0    0 -0.77243712384E+02  0.33822184783E+03  0.30522245921E+03  0.46948333537E+03  0.83025557108E+02 0.  0.
         24    2    4    4    0    0 -0.20941089347E+03 -0.35245559967E+03  0.15928541383E+04  0.16472543474E+04  0.90469372479E+02 0.  0.
         11    1    3    3    0    0  0.13965454735E+02 -0.20485019609E+02  0.34447027591E+02  0.42441343807E+02  0.00000000000E+00 0. -1.
        -11    1    3    3    0    0  0.27268915112E+03  0.34718771447E+02  0.26186950225E+03  0.37965827061E+03  0.00000000000E+00 0.  1.
          2    1    6    6  502    0 -0.21873802999E+03 -0.33792901909E+03  0.15234512253E+04  0.15757366479E+04  0.00000000000E+00 0. -1.
          1    1    5    5  503    0 -0.93103393406E+02  0.27697969227E+03  0.26530125515E+03  0.39467803052E+03  0.00000000000E+00 0. -1.
         -4    1    5    5    0  503  0.15859681022E+02  0.61242155568E+02  0.39921204063E+02  0.74805304856E+02  0.00000000000E+00 0.  1.
         -1    1    6    6    0  502  0.93271365153E+01 -0.14526580581E+02  0.69402912987E+02  0.71517699557E+02  0.00000000000E+00 0.  1.
<mgrwt>
<rscale>  0 0.12768452E+04</rscale>
<asrwt>0</asrwt>
<pdfrwt beam="1">  1        1 0.36409463E+00 0.12768452E+04</pdfrwt>
<pdfrwt beam="2">  1       -1 0.26495707E-01 0.12768452E+04</pdfrwt>
<totfact> 0.20971422E+01</totfact>
</mgrwt>
</event>
<event>
11    1  0.2404191E-008  0.1645671E+04  0.7818608E-02  0.8792972E-01
          1   -1    0    0  501    0  0.00000000000E+00  0.00000000000E+00  0.23566849202E+04  0.23566849202E+04  0.00000000000E+00 0. -1.
         -1   -1    0    0    0  501 -0.00000000000E+00 -0.00000000000E+00 -0.28729262927E+03  0.28729262927E+03  0.00000000000E+00 0.  1.
         23    2    1    2    0    0  0.20028069521E+03 -0.43086147115E+03  0.12436607301E+04  0.13345887437E+04  0.93172630832E+02 0.  0.
        254    2    1    2    0    0 -0.20028069521E+03  0.43086147115E+03  0.82573156080E+03  0.13093888057E+04  0.89828306774E+03 0.  0.
        -24    2    4    4    0    0  0.11847171520E+03  0.13128019214E+03 -0.14309810166E+03  0.24033679735E+03  0.77554324900E+02 0.  0.
         13    1    3    3    0    0  0.20428361260E+03 -0.43356668444E+03  0.12333508003E+04  0.13232029553E+04  0.00000000000E+00 0. -1.
        -13    1    3    3    0    0 -0.40029173921E+01  0.27052132952E+01  0.10309929789E+02  0.11385788460E+02  0.00000000000E+00 0.  1.
          2    1    4    4  502    0 -0.40011477919E+02  0.70448787467E+02  0.27935140145E+03  0.29086277780E+03  0.00000000000E+00 0. -1.
          1    1    5    5  503    0  0.20890929079E+02  0.80167746836E+02 -0.65081279453E+02  0.10535118170E+03  0.00000000000E+00 0. -1.
         -2    1    5    5    0  503  0.97580786119E+02  0.51112445307E+02 -0.78016822208E+02  0.13498561565E+03  0.00000000000E+00 0.  1.
         -1    1    4    4    0  502 -0.27874093249E+03  0.22913249154E+03  0.68947826101E+03  0.77818923054E+03  0.00000000000E+00 0.  1.
<mgrwt>
<rscale>  0 0.16456709E+04</rscale>
<asrwt>0</asrwt>
<pdfrwt beam="1">  1        1 0.36256690E+00 0.16456709E+04</pdfrwt>
<pdfrwt beam="2">  1       -1 0.44198868E-01 0.16456709E+04</pdfrwt>
<totfact> 0.82485032E+00</totfact>
</mgrwt>
</event>
<event>
11    1  0.2404191E-008  0.1737519E+04  0.7818608E-02  0.8740250E-01
          1   -1    0    0  501    0  0.00000000000E+00  0.00000000000E+00  0.14462028386E+04  0.14462028386E+04  0.00000000000E+00 0. -1.
         -1   -1    0    0    0  501 -0.00000000000E+00 -0.00000000000E+00 -0.52187934465E+03  0.52187934465E+03  0.00000000000E+00 0.  1.
         23    2    1    2    0    0 -0.61857025448E+03  0.11436738284E+03  0.38993566863E+03  0.74527253751E+03  0.87591503693E+02 0.  0.
        254    2    1    2    0    0  0.61857025448E+03 -0.11436738284E+03  0.53438782534E+03  0.12228096458E+04  0.90221063167E+03 0.  0.
        -24    2    4    4    0    0  0.52447217060E+03 -0.36487948431E+03  0.59768781641E+03  0.87866309543E+03  0.81301990005E+02 0.  0.
         11    1    3    3    0    0 -0.50133290807E+03  0.10099598402E+03  0.35382327120E+03  0.62187280110E+03  0.00000000000E+00 0.  1.
        -11    1    3    3    0    0 -0.11723734641E+03  0.13371398824E+02  0.36112397427E+02  0.12339973642E+03  0.00000000000E+00 0. -1.
          4    1    4    4  502    0 -0.33747941616E+01  0.21736614918E+03  0.10226380346E+02  0.21763274317E+03  0.00000000000E+00 0. -1.
          3    1    5    5  503    0  0.52266737916E+03 -0.35131468125E+03  0.59002696303E+03  0.86298030777E+03  0.00000000000E+00 0. -1.
         -4    1    5    5    0  503  0.18047914428E+01 -0.13564803062E+02  0.76608533821E+01  0.15682787660E+02  0.00000000000E+00 0.  1.
         -3    1    4    4    0  502  0.97472878040E+02  0.33145952299E+02 -0.73526371422E+02  0.12651380716E+03  0.00000000000E+00 0.  1.
<mgrwt>
<rscale>  0 0.17375194E+04</rscale>
<asrwt>0</asrwt>
<pdfrwt beam="1">  1        1 0.22249274E+00 0.17375194E+04</pdfrwt>
<pdfrwt beam="2">  1       -1 0.80289131E-01 0.17375194E+04</pdfrwt>
<totfact> 0.10470692E+01</totfact>
</mgrwt>
</event>
<event>
11    1  0.2404191E-008  0.1457365E+04  0.7818608E-02  0.8913311E-01
         -1   -1    0    0    0  501 -0.00000000000E+00  0.00000000000E+00  0.49963537614E+03  0.49963537614E+03  0.00000000000E+00 0.  1.
          1   -1    0    0  501    0  0.00000000000E+00 -0.00000000000E+00 -0.10627311186E+04  0.10627311186E+04  0.00000000000E+00 0. -1.
         23    2    1    2    0    0  0.41077033305E+03  0.12615698950E+02 -0.14630029535E+02  0.42158656880E+03  0.92896581470E+02 0.  0.
        254    2    1    2    0    0 -0.41077033305E+03 -0.12615698950E+02 -0.54846571293E+03  0.11407799259E+04  0.91196095246E+03 0.  0.
        -24    2    4    4    0    0 -0.28976464974E+03 -0.80338465918E+02 -0.66067847365E+03  0.73035995728E+03  0.80695726677E+02 0.  0.
         13    1    3    3    0    0  0.38206067867E+03 -0.55344368997E+00  0.89561450676E+01  0.38216603855E+03  0.00000000000E+00 0.  1.
        -13    1    3    3    0    0  0.28709654386E+02  0.13169142640E+02 -0.23586174603E+02  0.39420530251E+02  0.00000000000E+00 0. -1.
          4    1    4    4  502    0  0.45840503066E+02 -0.88201863230E+02 -0.67218299405E+02  0.11999675068E+03  0.00000000000E+00 0. -1.
          3    1    5    5  503    0 -0.82600964190E+01  0.45317985314E+01 -0.28965796627E+01  0.98568029565E+01  0.00000000000E+00 0. -1.
         -4    1    5    5    0  503 -0.28150455333E+03 -0.84870264449E+02 -0.65778189399E+03  0.72050315433E+03  0.00000000000E+00 0.  1.
         -3    1    4    4    0  502 -0.16684618637E+03  0.15592463020E+03  0.17943106012E+03  0.29042321799E+03  0.00000000000E+00 0.  1.
<mgrwt>
<rscale>  0 0.14573648E+04</rscale>
<asrwt>0</asrwt>
<pdfrwt beam="1">  1        1 0.16349709E+00 0.14573648E+04</pdfrwt>
<pdfrwt beam="2">  1       -1 0.76866981E-01 0.14573648E+04</pdfrwt>
<totfact> 0.22305032E+01</totfact>
</mgrwt>
</event>
<event>
12    1  0.6609857E-008  0.1695851E+04  0.7818608E-02  0.8763734E-01
          2   -1    0    0  501    0  0.00000000000E+00  0.00000000000E+00  0.12840043547E+04  0.12840043547E+04  0.00000000000E+00 0. -1.
         -2   -1    0    0    0  501 -0.00000000000E+00 -0.00000000000E+00 -0.55994978734E+03  0.55994978734E+03  0.00000000000E+00 0.  1.
         23    2    1    2    0    0 -0.47776187037E+03 -0.35779036649E+03  0.16266237537E+03  0.62742996941E+03  0.10458951680E+03 0.  0.
        254    2    1    2    0    0  0.47776187037E+03  0.35779036649E+03  0.56139219195E+03  0.12165241726E+04  0.89916601256E+03 0.  0.
        -24    2    4    4    0    0 -0.14869555010E+02 -0.24380209117E+03  0.29135978142E+03  0.38845400339E+03  0.79658189767E+02 0.  0.
         24    2    4    4    0    0  0.49263142538E+03  0.60159245766E+03  0.27003241053E+03  0.82807016919E+03  0.90462677252E+02 0.  0.
         11    1    3    3    0    0 -0.18775958570E+02  0.59057747951E+01  0.14165478475E+00  0.19683365114E+02  0.00000000000E+00 0.  1.
        -11    1    3    3    0    0 -0.45898591180E+03 -0.36369614129E+03  0.16252072058E+03  0.60774660430E+03  0.00000000000E+00 0. -1.
          2    1    6    6  502    0  0.35406056491E+02  0.13521912248E+02  0.13155911356E+02  0.40118685805E+02  0.00000000000E+00 0. -1.
          3    1    5    5  503    0 -0.77516095655E+01 -0.52767125353E+02  0.20963063652E+02  0.57305383748E+02  0.00000000000E+00 0. -1.
         -4    1    5    5    0  503 -0.71179454441E+01 -0.19103496582E+03  0.27039671777E+03  0.33114861964E+03  0.00000000000E+00 0.  1.
         -1    1    6    6    0  502  0.45722536889E+03  0.58807054541E+03  0.25687649918E+03  0.78795148338E+03  0.00000000000E+00 0.  1.
<mgrwt>
<rscale>  0 0.16958514E+04</rscale>
<asrwt>0</asrwt>
<pdfrwt beam="1">  1        2 0.19753913E+00 0.16958514E+04</pdfrwt>
<pdfrwt beam="2">  1       -2 0.86146121E-01 0.16958514E+04</pdfrwt>
<totfact> 0.18791556E+01</totfact>
</mgrwt>
</event>
<event>
11    1  0.2404191E-008  0.3352664E+04  0.7818608E-02  0.8149623E-01
          2   -1    0    0  501    0  0.00000000000E+00  0.00000000000E+00  0.23945375668E+04  0.23945375668E+04  0.00000000000E+00 0.  1.
         -2   -1    0    0    0  501 -0.00000000000E+00 -0.00000000000E+00 -0.11735414649E+04  0.11735414649E+04  0.00000000000E+00 0. -1.
         23    2    1    2    0    0  0.15512658279E+04  0.85867770456E+02  0.47677218882E+03  0.16277195812E+04  0.91435069818E+02 0.  0.
        254    2    1    2    0    0 -0.15512658279E+04 -0.85867770456E+02  0.74422391301E+03  0.19403594506E+04  0.89293147658E+03 0.  0.
        -24    2    4    4    0    0 -0.26923740952E+03  0.33430897993E+03  0.20361871107E+03  0.48200711556E+03  0.81357256651E+02 0.  0.
         11    1    3    3    0    0  0.59118554052E+03  0.46967636686E+02  0.13811944186E+03  0.60891976683E+03  0.00000000000E+00 0. -1.
        -11    1    3    3    0    0  0.96008028739E+03  0.38900133770E+02  0.33865274696E+03  0.10187998143E+04  0.00000000000E+00 0.  1.
          4    1    4    4  502    0 -0.14932724902E+03 -0.82109297782E+02  0.42607972168E+02  0.17565876970E+03  0.00000000000E+00 0. -1.
          3    1    5    5  503    0 -0.56634626366E+02  0.12922608231E+03  0.75519517931E+02  0.16003143080E+03  0.00000000000E+00 0. -1.
         -2    1    5    5    0  503 -0.21260278316E+03  0.20508289761E+03  0.12809919314E+03  0.32197568477E+03  0.00000000000E+00 0.  1.
         -3    1    4    4    0  502 -0.11327011694E+04 -0.33806745260E+03  0.49799722977E+03  0.12826935653E+04  0.00000000000E+00 0.  1.
<mgrwt>
<rscale>  0 0.33526641E+04</rscale>
<asrwt>0</asrwt>
<pdfrwt beam="1">  1        2 0.36839039E+00 0.33526641E+04</pdfrwt>
<pdfrwt beam="2">  1       -2 0.18054484E+00 0.33526641E+04</pdfrwt>
<totfact> 0.59857830E-01</totfact>
</mgrwt>
</event>
<event>
11    1  0.2404191E-008  0.2076578E+04  0.7818608E-02  0.8571632E-01
         -2   -1    0    0    0  501 -0.00000000000E+00  0.00000000000E+00  0.11087920915E+04  0.11087920915E+04  0.00000000000E+00 0. -1.
          2   -1    0    0  501    0  0.00000000000E+00 -0.00000000000E+00 -0.97226847766E+03  0.97226847766E+03  0.00000000000E+00 0.  1.
         23    2    1    2    0    0  0.79093264803E+03  0.24091935954E+03  0.15580719486E+03  0.84622557730E+03  0.90582858132E+02 0.  0.
        254    2    1    2    0    0 -0.79093264803E+03 -0.24091935954E+03 -0.19283581059E+02  0.12348349918E+04  0.91696728895E+03 0.  0.
        -24    2    4    4    0    0 -0.33343400871E+03 -0.48580309294E+03  0.22076694099E+03  0.63420458831E+03  0.79338101337E+02 0.  0.
         13    1    3    3    0    0  0.66348407271E+03  0.19749126381E+03  0.16371739521E+03  0.71134892951E+03  0.00000000000E+00 0.  1.
        -13    1    3    3    0    0  0.12744857532E+03  0.43428095726E+02 -0.79102003487E+01  0.13487664779E+03  0.00000000000E+00 0. -1.
          4    1    4    4  502    0 -0.89364940327E+02  0.73027450930E+02  0.21573870819E+02  0.11740755108E+03  0.00000000000E+00 0. -1.
          3    1    5    5  503    0 -0.92817661791E+02 -0.19487402548E+03  0.61444544618E+02  0.22442467825E+03  0.00000000000E+00 0. -1.
         -4    1    5    5    0  503 -0.24061634692E+03 -0.29092906747E+03  0.15932239637E+03  0.40977991006E+03  0.00000000000E+00 0.  1.
         -3    1    4    4    0  502 -0.36813369899E+03  0.17185628248E+03 -0.26162439287E+03  0.48322285242E+03  0.00000000000E+00 0.  1.
<mgrwt>
<rscale>  0 0.20765776E+04</rscale>
<asrwt>0</asrwt>
<pdfrwt beam="1">  1        2 0.14957977E+00 0.20765776E+04</pdfrwt>
<pdfrwt beam="2">  1       -2 0.17058340E+00 0.20765776E+04</pdfrwt>
<totfact> 0.51158401E+00</totfact>
</mgrwt>
</event>
<event>
12    1  0.2404191E-008  0.2252502E+04  0.7818608E-02  0.8496888E-01
         -2   -1    0    0    0  501 -0.00000000000E+00  0.00000000000E+00  0.12665159119E+04  0.12665159119E+04  0.00000000000E+00 0.  1.
          2   -1    0    0  501    0  0.00000000000E+00 -0.00000000000E+00 -0.10015199178E+04  0.10015199178E+04  0.00000000000E+00 0. -1.
         23    2    1    2    0    0  0.42612914413E+03 -0.59603011331E+03 -0.49145894677E+03  0.88694234161E+03  0.91087197433E+02 0.  0.
        254    2    1    2    0    0 -0.42612914413E+03  0.59603011331E+03  0.75645494090E+03  0.13810934881E+04  0.89350836688E+03 0.  0.
        -24    2    4    4    0    0  0.34357521266E+02 -0.60447848969E+02 -0.13924523723E+03  0.17500769739E+03  0.80025473084E+02 0.  0.
         24    2    4    4    0    0 -0.46048666540E+03  0.65647796228E+03  0.89570017813E+03  0.12060857907E+04  0.96710089317E+02 0.  0.
         11    1    3    3    0    0  0.31354549910E+02 -0.47285327237E+02 -0.11501171536E+02  0.57890300731E+02  0.00000000000E+00 0. -1.
        -11    1    3    3    0    0  0.39477459422E+03 -0.54874478607E+03 -0.47995777523E+03  0.82905204088E+03  0.00000000000E+00 0.  1.
          2    1    6    6  502    0 -0.70205252673E+02  0.13504913331E+03  0.12441133061E+03  0.19658388818E+03  0.00000000000E+00 0. -1.
          1    1    5    5  503    0  0.12359001094E+01 -0.55607622094E+02 -0.35472706339E+02  0.65970053654E+02  0.00000000000E+00 0. -1.
         -2    1    5    5    0  503  0.33121621157E+02 -0.48402268752E+01 -0.10377253089E+03  0.10903764374E+03  0.00000000000E+00 0.  1.
         -1    1    6    6    0  502 -0.39028141272E+03  0.52142882897E+03  0.77128884752E+03  0.10095019025E+04  0.00000000000E+00 0.  1.
<mgrwt>
<rscale>  0 0.22525016E+04</rscale>
<asrwt>0</asrwt>
<pdfrwt beam="1">  1        2 0.15407999E+00 0.22525016E+04</pdfrwt>
<pdfrwt beam="2">  1       -2 0.19484860E+00 0.22525016E+04</pdfrwt>
<totfact> 0.32896015E+00</totfact>
</mgrwt>
</event>
<event>
11    1  0.2404191E-008  0.1381587E+04  0.7818608E-02  0.8967256E-01
          1   -1    0    0  501    0  0.00000000000E+00  0.00000000000E+00  0.13876440923E+04  0.13876440923E+04  0.00000000000E+00 0. -1.
         -1   -1    0    0    0  501 -0.00000000000E+00 -0.00000000000E+00 -0.34388915673E+03  0.34388915673E+03  0.00000000000E+00 0.  1.
         23    2    1    2    0    0 -0.90115776549E+02 -0.11746591383E+03  0.75408874641E+03  0.77376641843E+03  0.90252638331E+02 0.  0.
        254    2    1    2    0    0  0.90115776549E+02  0.11746591383E+03  0.28966618919E+03  0.95776683065E+03  0.90082834471E+03 0.  0.
        -24    2    4    4    0    0  0.19485610220E+03 -0.33509846495E+03  0.71261442532E+02  0.40201597410E+03  0.79238680364E+02 0.  0.
         11    1    3    3    0    0 -0.79767249945E+02 -0.85129445363E+02  0.70174235592E+03  0.71137343971E+03  0.00000000000E+00 0. -1.
        -11    1    3    3    0    0 -0.10348526603E+02 -0.32336468467E+02  0.52346390494E+02  0.62392978720E+02  0.00000000000E+00 0.  1.
          2    1    4    4  502    0 -0.10611289948E+03  0.67364254966E+02  0.59452439567E+02  0.13904129909E+03  0.00000000000E+00 0. -1.
          1    1    5    5  503    0  0.50632694272E+02 -0.32868597392E+02  0.43787299025E+01  0.60524273637E+02  0.00000000000E+00 0. -1.
         -2    1    5    5    0  503  0.14422340792E+03 -0.30222986755E+03  0.66882712629E+02  0.34149170046E+03  0.00000000000E+00 0.  1.
         -3    1    4    4    0  502  0.13725738335E+01  0.38520012381E+03  0.15895230710E+03  0.41670955745E+03  0.00000000000E+00 0.  1.
<mgrwt>
<rscale>  0 0.13815871E+04</rscale>
<asrwt>0</asrwt>
<pdfrwt beam="1">  1        1 0.21348370E+00 0.13815871E+04</pdfrwt>
<pdfrwt beam="2">  1       -1 0.52906025E-01 0.13815871E+04</pdfrwt>
<totfact> 0.27563943E+01</totfact>
</mgrwt>
</event>
<event>
11    1  0.2404191E-008  0.2263958E+04  0.7818608E-02  0.8492269E-01
          2   -1    0    0  501    0  0.00000000000E+00  0.00000000000E+00  0.11108032334E+04  0.11108032334E+04  0.00000000000E+00 0.  1.
         -2   -1    0    0    0  501 -0.00000000000E+00 -0.00000000000E+00 -0.11535589297E+04  0.11535589297E+04  0.00000000000E+00 0. -1.
         23    2    1    2    0    0 -0.26842540954E+03  0.68134577954E+03  0.59362418965E+03  0.94717160219E+03  0.91978767547E+02 0.  0.
        254    2    1    2    0    0  0.26842540954E+03 -0.68134577954E+03 -0.63637988601E+03  0.13171905609E+04  0.89091376837E+03 0.  0.
        -24    2    4    4    0    0 -0.11596434682E+03  0.51684664352E+02 -0.38873874912E+03  0.41689073937E+03  0.81000242227E+02 0.  0.
         13    1    3    3    0    0 -0.19632263735E+03  0.42635697443E+03  0.33311842183E+03  0.57557860500E+03  0.00000000000E+00 0. -1.
        -13    1    3    3    0    0 -0.72102772187E+02  0.25498880512E+03  0.26050576782E+03  0.37159299719E+03  0.00000000000E+00 0.  1.
          4    1    4    4  502    0  0.35877133035E+03 -0.74759806671E+03 -0.21566551446E+03  0.85681465379E+03  0.00000000000E+00 0. -1.
          1    1    5    5  503    0 -0.11767331104E+03  0.40607080603E+02 -0.26650635412E+03  0.29414550806E+03  0.00000000000E+00 0. -1.
         -2    1    5    5    0  503  0.17089642256E+01  0.11077583749E+02 -0.12223239501E+03  0.12274523131E+03  0.00000000000E+00 0.  1.
         -3    1    4    4    0  502  0.25618426009E+02  0.14567622810E+02 -0.31975622428E+02  0.43485167761E+02  0.00000000000E+00 0.  1.
<mgrwt>
<rscale>  0 0.22639585E+04</rscale>
<asrwt>0</asrwt>
<pdfrwt beam="1">  1        2 0.17089281E+00 0.22639585E+04</pdfrwt>
<pdfrwt beam="2">  1       -2 0.17747060E+00 0.22639585E+04</pdfrwt>
<totfact> 0.36830684E+00</totfact>
</mgrwt>
</event>
<event>
12    1  0.2404191E-008  0.1561725E+04  0.7818608E-02  0.8844413E-01
         -2   -1    0    0    0  501 -0.00000000000E+00  0.00000000000E+00  0.32422795759E+03  0.32422795759E+03  0.00000000000E+00 0. -1.
          2   -1    0    0  501    0  0.00000000000E+00 -0.00000000000E+00 -0.18806104798E+04  0.18806104798E+04  0.00000000000E+00 0.  1.
         23    2    1    2    0    0 -0.33086137786E+03 -0.36800607701E+03 -0.28883291715E+03  0.58018954038E+03  0.91091847386E+02 0.  0.
        254    2    1    2    0    0  0.33086137786E+03  0.36800607701E+03 -0.12675496051E+04  0.16246488970E+04  0.88763974295E+03 0.  0.
        -24    2    4    4    0    0 -0.29902940169E+03  0.14642912051E+03 -0.48899543611E+03  0.59667812096E+03  0.77770001242E+02 0.  0.
         24    2    4    4    0    0  0.62989077955E+03  0.22157695650E+03 -0.77855416898E+03  0.10279707761E+04  0.68691925545E+02 0.  0.
         13    1    3    3    0    0 -0.31215083831E+03 -0.31455415372E+03 -0.27616293034E+03  0.52215747201E+03  0.00000000000E+00 0. -1.
        -13    1    3    3    0    0 -0.18710539544E+02 -0.53451923289E+02 -0.12669986815E+02  0.58032068369E+02  0.00000000000E+00 0.  1.
          2    1    6    6  502    0  0.57281627508E+03  0.20177589569E+03 -0.73527133027E+03  0.95365398662E+03  0.00000000000E+00 0. -1.
          3    1    5    5  503    0 -0.17286251081E+03  0.12138288321E+03 -0.27142223009E+03  0.34392626966E+03  0.00000000000E+00 0. -1.
         -4    1    5    5    0  503 -0.12616689088E+03  0.25046237306E+02 -0.21757320602E+03  0.25275185130E+03  0.00000000000E+00 0.  1.
         -1    1    6    6    0  502  0.57074504471E+02  0.19801060810E+02 -0.43282838711E+02  0.74316789467E+02  0.00000000000E+00 0.  1.
<mgrwt>
<rscale>  0 0.15617253E+04</rscale>
<asrwt>0</asrwt>
<pdfrwt beam="1">  1        2 0.28932469E+00 0.15617253E+04</pdfrwt>
<pdfrwt beam="2">  1       -2 0.49881224E-01 0.15617253E+04</pdfrwt>
<totfact> 0.28468577E+01</totfact>
</mgrwt>
</event>
<event>
12    1  0.2404191E-008  0.1841320E+04  0.7818608E-02  0.8684629E-01
         -2   -1    0    0    0  501 -0.00000000000E+00  0.00000000000E+00  0.60268367481E+03  0.60268367481E+03  0.00000000000E+00 0.  1.
          2   -1    0    0  501    0  0.00000000000E+00 -0.00000000000E+00 -0.14064015433E+04  0.14064015433E+04  0.00000000000E+00 0. -1.
         23    2    1    2    0    0 -0.35370061859E+02  0.56749441524E+03  0.14191289899E+03  0.59281487140E+03  0.89382594785E+02 0.  0.
        254    2    1    2    0    0  0.35370061859E+02 -0.56749441524E+03 -0.94563076748E+03  0.14162703467E+04  0.88786440069E+03 0.  0.
        -24    2    4    4    0    0 -0.23178575897E+03 -0.44540204793E+03 -0.10357892497E+03  0.51863071721E+03  0.78368391414E+02 0.  0.
         24    2    4    4    0    0  0.26715582083E+03 -0.12209236730E+03 -0.84205184251E+03  0.89763962951E+03  0.10211180266E+03 0.  0.
         11    1    3    3    0    0 -0.15277867600E+02  0.29099553612E+03  0.26760237845E+02  0.29262249676E+03  0.00000000000E+00 0. -1.
        -11    1    3    3    0    0 -0.20092194259E+02  0.27649887911E+03  0.11515266114E+03  0.30019237463E+03  0.00000000000E+00 0.  1.
          4    1    6    6  502    0  0.23427132407E+03 -0.13308580209E+03 -0.79336402886E+03  0.83786715313E+03  0.00000000000E+00 0. -1.
          1    1    5    5  503    0 -0.16610948605E+03 -0.34867407792E+03 -0.10987136987E+03  0.40154413442E+03  0.00000000000E+00 0. -1.
         -2    1    5    5    0  503 -0.65676272918E+02 -0.96727970017E+02  0.62924448964E+01  0.11708658280E+03  0.00000000000E+00 0.  1.
         -3    1    6    6    0  502  0.32884496757E+02  0.10993434786E+02 -0.48687813650E+02  0.59772476386E+02  0.00000000000E+00 0.  1.
<mgrwt>
<rscale>  0 0.18413205E+04</rscale>
<asrwt>0</asrwt>
<pdfrwt beam="1">  1        2 0.21636947E+00 0.18413205E+04</pdfrwt>
<pdfrwt beam="2">  1       -2 0.92720565E-01 0.18413205E+04</pdfrwt>
<totfact> 0.13318455E+01</totfact>
</mgrwt>
</event>
<event>
12    1  0.2404191E-008  0.2083766E+04  0.7818608E-02  0.8568429E-01
         -3   -1    0    0    0  501 -0.00000000000E+00  0.00000000000E+00  0.92571207347E+03  0.92571207347E+03  0.00000000000E+00 0.  1.
          3   -1    0    0  501    0  0.00000000000E+00 -0.00000000000E+00 -0.11726322819E+04  0.11726322819E+04  0.00000000000E+00 0. -1.
         23    2    1    2    0    0  0.38262786245E+03 -0.42798900952E+03 -0.72312254242E+03  0.92762843727E+03  0.89496552422E+02 0.  0.
        254    2    1    2    0    0 -0.38262786245E+03  0.42798900952E+03  0.47620233404E+03  0.11707159180E+04  0.90234606690E+03 0.  0.
        -24    2    4    4    0    0 -0.55040095360E+03  0.31859307451E+03  0.63855275368E+03  0.90464872391E+03  0.78720630015E+02 0.  0.
         24    2    4    4    0    0  0.16777309115E+03  0.10939593501E+03 -0.16235041964E+03  0.26606719414E+03  0.65717671372E+02 0.  0.
         11    1    3    3    0    0  0.20744119817E+03 -0.16587172889E+03 -0.34112090946E+03  0.43232945309E+03  0.00000000000E+00 0. -1.
        -11    1    3    3    0    0  0.17518666428E+03 -0.26211728063E+03 -0.38200163296E+03  0.49529898418E+03  0.00000000000E+00 0.  1.
          2    1    6    6  502    0  0.30898027720E+02  0.33184235890E+02 -0.78116044532E+01  0.46009811918E+02  0.00000000000E+00 0. -1.
          3    1    5    5  503    0 -0.24218240907E+03  0.10736823115E+03  0.30257777951E+03  0.40216112315E+03  0.00000000000E+00 0. -1.
         -4    1    5    5    0  503 -0.30821854453E+03  0.21122484336E+03  0.33597497417E+03  0.50248760075E+03  0.00000000000E+00 0.  1.
         -1    1    6    6    0  502  0.13687506343E+03  0.76211699117E+02 -0.15453881519E+03  0.22005738222E+03  0.00000000000E+00 0.  1.
<mgrwt>
<rscale>  0 0.20837657E+04</rscale>
<asrwt>0</asrwt>
<pdfrwt beam="1">  1        3 0.18040497E+00 0.20837657E+04</pdfrwt>
<pdfrwt beam="2">  1       -3 0.14241724E+00 0.20837657E+04</pdfrwt>
<totfact> 0.17534293E-01</totfact>
</mgrwt>
</event>
<event>
12    1  0.2404191E-008  0.1415447E+04  0.7818608E-02  0.8942712E-01
         -1   -1    0    0    0  501 -0.00000000000E+00  0.00000000000E+00  0.42984907912E+03  0.42984907912E+03  0.00000000000E+00 0.  1.
          1   -1    0    0  501    0  0.00000000000E+00 -0.00000000000E+00 -0.11652294206E+04  0.11652294206E+04  0.00000000000E+00 0. -1.
         23    2    1    2    0    0 -0.26318647453E+03  0.39208944388E+03 -0.47294708376E+03  0.67450943423E+03  0.91009782144E+02 0.  0.
        254    2    1    2    0    0  0.26318647453E+03 -0.39208944388E+03 -0.26243325776E+03  0.92056906553E+03  0.74536899402E+03 0.  0.
        -24    2    4    4    0    0  0.45518107149E+03 -0.46327986709E+03 -0.17977065286E+03  0.67822141780E+03  0.76477191622E+02 0.  0.
         24    2    4    4    0    0 -0.19199459696E+03  0.71190423211E+02 -0.82662604907E+02  0.24234764773E+03  0.99846254259E+02 0.  0.
         13    1    3    3    0    0 -0.22336259899E+03  0.36776222846E+03 -0.44963736037E+03  0.62234529254E+03  0.00000000000E+00 0. -1.
        -13    1    3    3    0    0 -0.39823875541E+02  0.24327215423E+02 -0.23309723391E+02  0.52164141687E+02  0.00000000000E+00 0.  1.
          4    1    6    6  502    0 -0.30755377423E+02 -0.25371059981E+02 -0.14035063587E+02  0.42267800213E+02  0.00000000000E+00 0. -1.
          3    1    5    5  503    0  0.13314558451E+03 -0.18689845265E+03 -0.57081941111E+02  0.23646802379E+03  0.00000000000E+00 0. -1.
         -4    1    5    5    0  503  0.32203548699E+03 -0.27638141445E+03 -0.12268871175E+03  0.44175339401E+03  0.00000000000E+00 0.  1.
         -3    1    6    6    0  502 -0.16123921954E+03  0.96561483192E+02 -0.68627541320E+02  0.20007984751E+03  0.00000000000E+00 0.  1.
<mgrwt>
<rscale>  0 0.14154473E+04</rscale>
<asrwt>0</asrwt>
<pdfrwt beam="1">  1        1 0.17926606E+00 0.14154473E+04</pdfrwt>
<pdfrwt beam="2">  1       -1 0.66130628E-01 0.14154473E+04</pdfrwt>
<totfact> 0.25580095E+01</totfact>
</mgrwt>
</event>
<event>
12    1  0.2404191E-008  0.1830147E+04  0.7818608E-02  0.8690430E-01
         -1   -1    0    0    0  501 -0.00000000000E+00  0.00000000000E+00  0.17496065218E+04  0.17496065218E+04  0.00000000000E+00 0.  1.
          1   -1    0    0  501    0  0.00000000000E+00 -0.00000000000E+00 -0.47859862792E+03  0.47859862792E+03  0.00000000000E+00 0. -1.
         23    2    1    2    0    0  0.71319052849E+02 -0.63215047554E+03  0.80107389329E+03  0.10271647299E+04  0.92991229374E+02 0.  0.
        254    2    1    2    0    0 -0.71319052849E+02  0.63215047554E+03  0.46993400058E+03  0.12010404199E+04  0.90385811618E+03 0.  0.
        -24    2    4    4    0    0  0.45876272188E+01  0.40118353815E+01  0.55050722360E+03  0.55622887361E+03  0.79342393819E+02 0.  0.
         24    2    4    4    0    0 -0.75906680067E+02  0.62813864016E+03 -0.80573223015E+02  0.64481154624E+03  0.94709611747E+02 0.  0.
         11    1    3    3    0    0  0.58309319818E+02 -0.49023646798E+03  0.55499684447E+03  0.74280096169E+03  0.00000000000E+00 0.  1.
        -11    1    3    3    0    0  0.13009733030E+02 -0.14191400757E+03  0.24607704881E+03  0.28436376818E+03  0.00000000000E+00 0. -1.
          2    1    6    6  502    0 -0.17508778290E+02  0.84861102128E+02  0.20728100967E+02  0.89093311428E+02  0.00000000000E+00 0. -1.
          1    1    5    5  503    0  0.71336008258E+01 -0.30256620973E+02  0.10787260867E+03  0.11226242058E+03  0.00000000000E+00 0. -1.
         -4    1    5    5    0  503 -0.25459736071E+01  0.34268456354E+02  0.44263461493E+03  0.44396645303E+03  0.00000000000E+00 0.  1.
         -1    1    6    6    0  502 -0.58397901778E+02  0.54327753804E+03 -0.10130132398E+03  0.55571823482E+03  0.00000000000E+00 0.  1.
<mgrwt>
<rscale>  0 0.18301467E+04</rscale>
<asrwt>0</asrwt>
<pdfrwt beam="1">  1        1 0.73630559E-01 0.18301467E+04</pdfrwt>
<pdfrwt beam="2">  1       -1 0.26917023E+00 0.18301467E+04</pdfrwt>
<totfact> 0.23187261E+00</totfact>
</mgrwt>
</event>
<event>
12    1  0.2404191E-008  0.2692330E+04  0.7818608E-02  0.8337498E-01
          1   -1    0    0  501    0  0.00000000000E+00  0.00000000000E+00  0.21325871980E+04  0.21325871980E+04  0.00000000000E+00 0. -1.
         -1   -1    0    0    0  501 -0.00000000000E+00 -0.00000000000E+00 -0.84974723659E+03  0.84974723659E+03  0.00000000000E+00 0.  1.
         23    2    1    2    0    0 -0.67396372989E+03  0.73560799285E+03  0.12985729607E+04  0.16401346076E+04  0.91670979503E+02 0.  0.
        254    2    1    2    0    0  0.67396372989E+03 -0.73560799285E+03 -0.15732999331E+02  0.13421998269E+04  0.89772301954E+03 0.  0.
        -24    2    4    4    0    0  0.25779887290E+03 -0.33131467052E+03 -0.44527657346E+03  0.61713422502E+03  0.79710445077E+02 0.  0.
         24    2    4    4    0    0  0.41616485699E+03 -0.40429332233E+03  0.42954357412E+03  0.72506560191E+03  0.67573414425E+02 0.  0.
         13    1    3    3    0    0 -0.60468613791E+03  0.61601423666E+03  0.11360732861E+04  0.14268081078E+04  0.00000000000E+00 0. -1.
        -13    1    3    3    0    0 -0.69277591978E+02  0.11959375619E+03  0.16249967461E+03  0.21332649980E+03  0.00000000000E+00 0.  1.
          4    1    6    6  502    0  0.42599675451E+02 -0.73857677600E+02  0.68275122791E+02  0.10922994681E+03  0.00000000000E+00 0. -1.
          3    1    5    5  503    0  0.31443155023E+02 -0.72073068633E+02 -0.50722693280E+02  0.93573451542E+02  0.00000000000E+00 0. -1.
         -4    1    5    5    0  503  0.22635571788E+03 -0.25924160189E+03 -0.39455388018E+03  0.52356077348E+03  0.00000000000E+00 0.  1.
         -3    1    6    6    0  502  0.37356518153E+03 -0.33043564473E+03  0.36126845133E+03  0.61583565510E+03  0.00000000000E+00 0.  1.
<mgrwt>
<rscale>  0 0.26923299E+04</rscale>
<asrwt>0</asrwt>
<pdfrwt beam="1">  1        1 0.32809033E+00 0.26923299E+04</pdfrwt>
<pdfrwt beam="2">  1       -1 0.13073035E+00 0.26923299E+04</pdfrwt>
<totfact> 0.10576804E+00</totfact>
</mgrwt>
</event>
<event>
12    1  0.2404191E-008  0.2138336E+04  0.7818608E-02  0.8544542E-01
         -3   -1    0    0    0  501 -0.00000000000E+00  0.00000000000E+00  0.85460073569E+03  0.85460073569E+03  0.00000000000E+00 0.  1.
          3   -1    0    0  501    0  0.00000000000E+00 -0.00000000000E+00 -0.13376069112E+04  0.13376069112E+04  0.00000000000E+00 0. -1.
         23    2    1    2    0    0  0.97394284853E+02  0.57085257262E+03  0.48702925614E+03  0.76214604932E+03  0.91163576964E+02 0.  0.
        254    2    1    2    0    0 -0.97394284853E+02 -0.57085257262E+03 -0.97003543167E+03  0.14300615976E+04  0.87678339847E+03 0.  0.
        -24    2    4    4    0    0 -0.42483352311E+03 -0.29569665255E+03 -0.80825502421E+03  0.96310613082E+03  0.79857387774E+02 0.  0.
         24    2    4    4    0    0  0.32743923826E+03 -0.27515592008E+03 -0.16178040746E+03  0.46695546677E+03  0.94590023818E+02 0.  0.
         13    1    3    3    0    0  0.83906549184E+02  0.47504781826E+03  0.44625270202E+03  0.65715463377E+03  0.00000000000E+00 0.  1.
        -13    1    3    3    0    0  0.13487735669E+02  0.95804754368E+02  0.40776554115E+02  0.10499141555E+03  0.00000000000E+00 0. -1.
          4    1    6    6  502    0  0.33267613866E+03 -0.26558827469E+03 -0.15115454856E+03  0.45172806248E+03  0.00000000000E+00 0. -1.
          1    1    5    5  503    0 -0.26874363699E+03 -0.16880361798E+03 -0.42681982215E+03  0.53187683203E+03  0.00000000000E+00 0. -1.
         -2    1    5    5    0  503 -0.15608988612E+03 -0.12689303457E+03 -0.38143520206E+03  0.43122929879E+03  0.00000000000E+00 0.  1.
         -3    1    6    6    0  502 -0.52369003974E+01 -0.95676453856E+01 -0.10625858902E+02  0.15227404290E+02  0.00000000000E+00 0.  1.
<mgrwt>
<rscale>  0 0.21383357E+04</rscale>
<asrwt>0</asrwt>
<pdfrwt beam="1">  1        3 0.20578568E+00 0.21383357E+04</pdfrwt>
<pdfrwt beam="2">  1       -3 0.13147704E+00 0.21383357E+04</pdfrwt>
<totfact> 0.14663823E-01</totfact>
</mgrwt>
</event>
<event>
12    1  0.2404191E-008  0.2794620E+04  0.7818608E-02  0.8304941E-01
         -1   -1    0    0    0  501 -0.00000000000E+00  0.00000000000E+00  0.76358666277E+03  0.76358666277E+03  0.00000000000E+00 0.  1.
          1   -1    0    0  501    0  0.00000000000E+00 -0.00000000000E+00 -0.25569785196E+04  0.25569785196E+04  0.00000000000E+00 0. -1.
         23    2    1    2    0    0  0.43843774904E+03 -0.15184850885E+03  0.57835522237E+03  0.74682312522E+03  0.89243418280E+02 0.  0.
        254    2    1    2    0    0 -0.43843774904E+03  0.15184850885E+03 -0.23717470792E+04  0.25737420571E+04  0.88525608702E+03 0.  0.
        -24    2    4    4    0    0 -0.29050635389E+03  0.49581335767E+03 -0.10871024050E+04  0.12322133365E+04  0.79581658754E+02 0.  0.
         24    2    4    4    0    0 -0.14793139515E+03 -0.34396484881E+03 -0.12846446742E+04  0.13415287207E+04  0.95874159474E+02 0.  0.
         11    1    3    3    0    0  0.69404859034E+02 -0.48631424767E+02  0.14835956240E+03  0.17085844927E+03  0.00000000000E+00 0. -1.
        -11    1    3    3    0    0  0.36903289001E+03 -0.10321708409E+03  0.42999565997E+03  0.57596467595E+03  0.00000000000E+00 0.  1.
          4    1    6    6  502    0 -0.16411823422E+01 -0.10663212501E+03 -0.40157050478E+03  0.41549004064E+03  0.00000000000E+00 0. -1.
          1    1    5    5  503    0 -0.10592318893E+03  0.14703193327E+03 -0.41480252165E+03  0.45265797609E+03  0.00000000000E+00 0. -1.
         -4    1    5    5    0  503 -0.18458316496E+03  0.34878142440E+03 -0.67229988331E+03  0.77955536038E+03  0.00000000000E+00 0.  1.
         -3    1    6    6    0  502 -0.14629021280E+03 -0.23733272380E+03 -0.88307416946E+03  0.92603868003E+03  0.00000000000E+00 0.  1.
<mgrwt>
<rscale>  0 0.27946196E+04</rscale>
<asrwt>0</asrwt>
<pdfrwt beam="1">  1        1 0.39338130E+00 0.27946196E+04</pdfrwt>
<pdfrwt beam="2">  1       -1 0.11747487E+00 0.27946196E+04</pdfrwt>
<totfact> 0.69801471E-01</totfact>
</mgrwt>
</event>
<event>
12    1  0.2404191E-008  0.1472823E+04  0.7818608E-02  0.8902729E-01
         -1   -1    0    0    0  501 -0.00000000000E+00  0.00000000000E+00  0.36552790037E+03  0.36552790037E+03  0.00000000000E+00 0.  1.
          1   -1    0    0  501    0  0.00000000000E+00 -0.00000000000E+00 -0.14836121848E+04  0.14836121848E+04  0.00000000000E+00 0. -1.
         23    2    1    2    0    0 -0.29400628427E+03  0.23731342688E+03 -0.66220202892E+03  0.76775829707E+03  0.90465009012E+02 0.  0.
        254    2    1    2    0    0  0.29400628427E+03 -0.23731342688E+03 -0.45588225549E+03  0.10813817881E+04  0.90487600418E+03 0.  0.
        -24    2    4    4    0    0 -0.14802338246E+03 -0.57621929820E+02  0.19804681609E+03  0.26582444526E+03  0.78796483289E+02 0.  0.
         24    2    4    4    0    0  0.44202966674E+03 -0.17969149706E+03 -0.65392907158E+03  0.81555734282E+03  0.99152853604E+02 0.  0.
         13    1    3    3    0    0 -0.26611447012E+02  0.31410204949E+02 -0.14055528334E+03  0.14646008931E+03  0.00000000000E+00 0.  1.
        -13    1    3    3    0    0 -0.26739483726E+03  0.20590322193E+03 -0.52164674558E+03  0.62129820776E+03  0.00000000000E+00 0. -1.
          2    1    6    6  502    0  0.41505279041E+03 -0.16302153127E+03 -0.64201172000E+03  0.78168016932E+03  0.00000000000E+00 0. -1.
          3    1    5    5  503    0 -0.56812072307E+02 -0.51495951777E+02  0.13337321618E+03  0.15384361997E+03  0.00000000000E+00 0. -1.
         -4    1    5    5    0  503 -0.91211310153E+02 -0.61259780435E+01  0.64673599911E+02  0.11198082529E+03  0.00000000000E+00 0.  1.
         -1    1    6    6    0  502  0.26976876329E+02 -0.16669965787E+02 -0.11917351577E+02  0.33877173501E+02  0.00000000000E+00 0.  1.
<mgrwt>
<rscale>  0 0.14728227E+04</rscale>
<asrwt>0</asrwt>
<pdfrwt beam="1">  1        1 0.22824803E+00 0.14728227E+04</pdfrwt>
<pdfrwt beam="2">  1       -1 0.56235062E-01 0.14728227E+04</pdfrwt>
<totfact> 0.20829301E+01</totfact>
</mgrwt>
</event>
<event>
12    1  0.2404191E-008  0.1419651E+04  0.7818608E-02  0.8939715E-01
          1   -1    0    0  501    0  0.00000000000E+00  0.00000000000E+00  0.19066487621E+04  0.19066487621E+04  0.00000000000E+00 0. -1.
         -1   -1    0    0    0  501 -0.00000000000E+00 -0.00000000000E+00 -0.26426079764E+03  0.26426079764E+03  0.00000000000E+00 0.  1.
         23    2    1    2    0    0 -0.37282752749E+03  0.10767569195E+03  0.51099492110E+03  0.64812889772E+03  0.91437622336E+02 0.  0.
        254    2    1    2    0    0  0.37282752749E+03 -0.10767569195E+03  0.11313930433E+04  0.15227806620E+04  0.94245228321E+03 0.  0.
        -24    2    4    4    0    0  0.18930179035E+03  0.39153461154E+03  0.73066635792E+03  0.85412510179E+03  0.80757928663E+02 0.  0.
         24    2    4    4    0    0  0.18352573715E+03 -0.49921030349E+03  0.40072668543E+03  0.66865556021E+03  0.60214271396E+02 0.  0.
         11    1    3    3    0    0 -0.15202821224E+02 -0.50275525523E+01  0.23055473884E+01  0.16177688543E+02  0.00000000000E+00 0.  1.
        -11    1    3    3    0    0 -0.35762470627E+03  0.11270324451E+03  0.50868937371E+03  0.63195120918E+03  0.00000000000E+00 0. -1.
          4    1    6    6  502    0  0.18056485763E+03 -0.46832508810E+03  0.36108673188E+03  0.61831681515E+03  0.00000000000E+00 0. -1.
          3    1    5    5  503    0  0.59520876297E+02  0.16717111826E+03  0.23161599533E+03  0.29177883197E+03  0.00000000000E+00 0. -1.
         -4    1    5    5    0  503  0.12978091405E+03  0.22436349328E+03  0.49905036260E+03  0.56234626982E+03  0.00000000000E+00 0.  1.
         -3    1    6    6    0  502  0.29608795180E+01 -0.30885215391E+02  0.39639953547E+02  0.50338745062E+02  0.00000000000E+00 0.  1.
<mgrwt>
<rscale>  0 0.14196514E+04</rscale>
<asrwt>0</asrwt>
<pdfrwt beam="1">  1        1 0.29333057E+00 0.14196514E+04</pdfrwt>
<pdfrwt beam="2">  1       -1 0.40655508E-01 0.14196514E+04</pdfrwt>
<totfact> 0.19856942E+01</totfact>
</mgrwt>
</event>
<event>
12    1  0.2404191E-008  0.1060688E+04  0.7818608E-02  0.9244378E-01
          2   -1    0    0  501    0  0.00000000000E+00  0.00000000000E+00  0.17588982027E+04  0.17588982027E+04  0.00000000000E+00 0. -1.
         -2   -1    0    0    0  501 -0.00000000000E+00 -0.00000000000E+00 -0.15990972332E+03  0.15990972332E+03  0.00000000000E+00 0.  1.
         23    2    1    2    0    0 -0.73578446102E+02  0.15155193368E+02  0.63200196069E+02  0.13475473432E+03  0.92309837081E+02 0.  0.
        254    2    1    2    0    0  0.73578446102E+02 -0.15155193368E+02  0.15357882833E+04  0.17840531917E+04  0.90474121827E+03 0.  0.
        -24    2    4    4    0    0  0.52117153056E+02  0.41259641333E+03  0.10532761649E+04  0.11352236879E+04  0.79938376593E+02 0.  0.
         24    2    4    4    0    0  0.21461293047E+02 -0.42775160670E+03  0.48251211834E+03  0.64882950375E+03  0.68773224859E+02 0.  0.
         13    1    3    3    0    0  0.13667521284E+02  0.21707515973E+02  0.33849371248E+02  0.42471135158E+02  0.00000000000E+00 0. -1.
        -13    1    3    3    0    0 -0.87245967386E+02 -0.65523226055E+01  0.29350824822E+02  0.92283599163E+02  0.00000000000E+00 0.  1.
          2    1    6    6  502    0  0.57760217277E+01 -0.34377389791E+03  0.34593436234E+03  0.48773398319E+03  0.00000000000E+00 0. -1.
          3    1    5    5  503    0  0.72139569161E+02  0.35084687822E+03  0.87351101263E+03  0.94409699638E+03  0.00000000000E+00 0. -1.
         -4    1    5    5    0  503 -0.20022416105E+02  0.61749535107E+02  0.17976515232E+03  0.19112669155E+03  0.00000000000E+00 0.  1.
         -1    1    6    6    0  502  0.15685271319E+02 -0.83977708785E+02  0.13657775600E+03  0.16109552056E+03  0.00000000000E+00 0.  1.
<mgrwt>
<rscale>  0 0.10606883E+04</rscale>
<asrwt>0</asrwt>
<pdfrwt beam="1">  1        2 0.27059971E+00 0.10606883E+04</pdfrwt>
<pdfrwt beam="2">  1       -2 0.24601497E-01 0.10606883E+04</pdfrwt>
<totfact> 0.13373617E+02</totfact>
</mgrwt>
</event>
<event>
11    1  0.2404191E-008  0.2165635E+04  0.7818608E-02  0.8532869E-01
         -2   -1    0    0    0  501 -0.00000000000E+00  0.00000000000E+00  0.18868565662E+04  0.18868565662E+04  0.00000000000E+00 0.  1.
          2   -1    0    0  501    0  0.00000000000E+00 -0.00000000000E+00 -0.62140053065E+03  0.62140053065E+03  0.00000000000E+00 0. -1.
         23    2    1    2    0    0 -0.14354132740E+03 -0.14815962736E+03  0.15361689431E+04  0.15526429743E+04  0.91267717024E+02 0.  0.
        254    2    1    2    0    0  0.14354132740E+03  0.14815962736E+03 -0.27071290752E+03  0.95561412253E+03  0.89294875835E+03 0.  0.
        -24    2    4    4    0    0 -0.17586332803E+03 -0.24063633753E+03 -0.24450068582E+03  0.39489360865E+03  0.85595675737E+02 0.  0.
         13    1    3    3    0    0 -0.10871744348E+03 -0.14767499625E+03  0.14055035018E+04  0.14174157754E+04  0.00000000000E+00 0.  1.
        -13    1    3    3    0    0 -0.34823883926E+02 -0.48463111147E+00  0.13066544130E+03  0.13522719885E+03  0.00000000000E+00 0. -1.
          2    1    4    4  502    0  0.29073585282E+03  0.41389745689E+03  0.13096386554E+02  0.50597426445E+03  0.00000000000E+00 0. -1.
          3    1    5    5  503    0 -0.12987083284E+03 -0.15496313784E+03 -0.21052292505E+03  0.29189023499E+03  0.00000000000E+00 0. -1.
         -4    1    5    5    0  503 -0.45992495191E+02 -0.85673199688E+02 -0.33977760763E+02  0.10300337366E+03  0.00000000000E+00 0.  1.
         -1    1    4    4    0  502  0.28668802608E+02 -0.25101491999E+02 -0.39308608261E+02  0.54746249433E+02  0.00000000000E+00 0.  1.
<mgrwt>
<rscale>  0 0.21656349E+04</rscale>
<asrwt>0</asrwt>
<pdfrwt beam="1">  1        2 0.95600082E-01 0.21656349E+04</pdfrwt>
<pdfrwt beam="2">  1       -2 0.29028562E+00 0.21656349E+04</pdfrwt>
<totfact> 0.15882041E+00</totfact>
</mgrwt>
</event>
<event>
11    1  0.2404191E-008  0.1813949E+04  0.7818608E-02  0.8698917E-01
         -2   -1    0    0    0  501 -0.00000000000E+00  0.00000000000E+00  0.39829839181E+03  0.39829839181E+03  0.00000000000E+00 0.  1.
          2   -1    0    0  501    0  0.00000000000E+00 -0.00000000000E+00 -0.20652925245E+04  0.20652925245E+04  0.00000000000E+00 0. -1.
         23    2    1    2    0    0  0.50133230817E+02  0.56448531975E+03 -0.11879487956E+04  0.13193204890E+04  0.90703884724E+02 0.  0.
        254    2    1    2    0    0 -0.50133230817E+02 -0.56448531975E+03 -0.47904533715E+03  0.11442704274E+04  0.87104153682E+03 0.  0.
        -24    2    4    4    0    0  0.10918686951E+03 -0.47500792120E+03  0.10759136062E+03  0.50615801361E+03  0.84057933536E+02 0.  0.
         13    1    3    3    0    0  0.69897015037E+02  0.45182169590E+03 -0.99504226121E+03  0.10950513866E+04  0.00000000000E+00 0. -1.
        -13    1    3    3    0    0 -0.19763784221E+02  0.11266362384E+03 -0.19290653437E+03  0.22426910243E+03  0.00000000000E+00 0.  1.
          2    1    4    4  502    0 -0.17671439200E+03 -0.79497105660E+02 -0.34538371948E+03  0.39602737258E+03  0.00000000000E+00 0. -1.
          1    1    5    5  503    0  0.99209239118E+01 -0.20243594856E+03  0.65714816047E+02  0.21306612835E+03  0.00000000000E+00 0. -1.
         -2    1    5    5    0  503  0.99265945602E+02 -0.27257197264E+03  0.41876544575E+02  0.29309188527E+03  0.00000000000E+00 0.  1.
         -1    1    4    4    0  502  0.17394291671E+02 -0.99802928914E+01 -0.24125297829E+03  0.24208504118E+03  0.00000000000E+00 0.  1.
<mgrwt>
<rscale>  0 0.18139489E+04</rscale>
<asrwt>0</asrwt>
<pdfrwt beam="1">  1        2 0.31773730E+00 0.18139489E+04</pdfrwt>
<pdfrwt beam="2">  1       -2 0.61276677E-01 0.18139489E+04</pdfrwt>
<totfact> 0.14351445E+01</totfact>
</mgrwt>
</event>
<event>
11    1  0.2404191E-008  0.1557866E+04  0.7818608E-02  0.8846859E-01
         -1   -1    0    0    0  501 -0.00000000000E+00  0.00000000000E+00  0.31130391648E+03  0.31130391648E+03  0.00000000000E+00 0.  1.
          1   -1    0    0  501    0  0.00000000000E+00 -0.00000000000E+00 -0.19490172744E+04  0.19490172744E+04  0.00000000000E+00 0. -1.
         23    2    1    2    0    0 -0.25241651496E+03 -0.23798321551E+03  0.69715786371E+01  0.35870499661E+03  0.90942640153E+02 0.  0.
        254    2    1    2    0    0  0.25241651496E+03  0.23798321551E+03 -0.16446849365E+04  0.19016161942E+04  0.88927245647E+03 0.  0.
        -24    2    4    4    0    0  0.20839910530E+03 -0.30709177182E+03 -0.53304205856E+03  0.65526691032E+03  0.86633389401E+02 0.  0.
         13    1    3    3    0    0 -0.59336211987E+02 -0.11572466076E+02  0.91150307851E+01  0.61137482858E+02  0.00000000000E+00 0. -1.
        -13    1    3    3    0    0 -0.19308030297E+03 -0.22641074944E+03 -0.21434521479E+01  0.29756751375E+03  0.00000000000E+00 0.  1.
          4    1    4    4  502    0  0.42595243526E+02  0.21750477757E+03 -0.31661787945E+03  0.38648358907E+03  0.00000000000E+00 0. -1.
          3    1    5    5  503    0 -0.34645983048E+01 -0.37223324066E+02 -0.41883813803E+02  0.56141189466E+02  0.00000000000E+00 0. -1.
         -4    1    5    5    0  503  0.21186370360E+03 -0.26986844776E+03 -0.49115824475E+03  0.59912572085E+03  0.00000000000E+00 0.  1.
         -3    1    4    4    0  502  0.14221661323E+01  0.32757020976E+03 -0.79502499854E+03  0.85986569485E+03  0.00000000000E+00 0.  1.
<mgrwt>
<rscale>  0 0.15578661E+04</rscale>
<asrwt>0</asrwt>
<pdfrwt beam="1">  1        1 0.29984880E+00 0.15578661E+04</pdfrwt>
<pdfrwt beam="2">  1       -1 0.47892912E-01 0.15578661E+04</pdfrwt>
<totfact> 0.13540007E+01</totfact>
</mgrwt>
</event>
<event>
12    1  0.2404191E-008  0.1780282E+04  0.7818608E-02  0.8716856E-01
         -4   -1    0    0    0  501 -0.00000000000E+00  0.00000000000E+00  0.87012133021E+03  0.87012133021E+03  0.00000000000E+00 0.  1.
          4   -1    0    0  501    0  0.00000000000E+00 -0.00000000000E+00 -0.91062136718E+03  0.91062136718E+03  0.00000000000E+00 0. -1.
         23    2    1    2    0    0  0.45132633054E+03  0.47847429746E+03 -0.77303449495E+02  0.66892494259E+03  0.94083184202E+02 0.  0.
        254    2    1    2    0    0 -0.45132633054E+03 -0.47847429746E+03  0.36803412524E+02  0.11118177548E+04  0.89562889565E+03 0.  0.
        -24    2    4    4    0    0 -0.26485485515E+03  0.13970708627E+03  0.28099575635E+03  0.41812537366E+03  0.78765784239E+02 0.  0.
         24    2    4    4    0    0 -0.18647147539E+03 -0.61818138373E+03 -0.24419234382E+03  0.69369238113E+03  0.68259684499E+02 0.  0.
         11    1    3    3    0    0  0.19912233462E+02  0.10965416097E+02  0.13333519760E+02  0.26353750033E+02  0.00000000000E+00 0. -1.
        -11    1    3    3    0    0  0.43141409708E+03  0.46750888137E+03 -0.90636969254E+02  0.64257119256E+03  0.00000000000E+00 0.  1.
          2    1    6    6  502    0 -0.11687542700E+03 -0.48185124868E+03 -0.19686468878E+03  0.53347558236E+03  0.00000000000E+00 0. -1.
          1    1    5    5  503    0 -0.23598928908E+03  0.12866627098E+03  0.21134149465E+03  0.34192277083E+03  0.00000000000E+00 0. -1.
         -2    1    5    5    0  503 -0.28865566072E+02  0.11040815285E+02  0.69654261697E+02  0.76202602839E+02  0.00000000000E+00 0.  1.
         -1    1    6    6    0  502 -0.69596048387E+02 -0.13633013505E+03 -0.47327655049E+02  0.16021679877E+03  0.00000000000E+00 0.  1.
<mgrwt>
<rscale>  0 0.17802821E+04</rscale>
<asrwt>0</asrwt>
<pdfrwt beam="1">  1        4 0.14009559E+00 0.17802821E+04</pdfrwt>
<pdfrwt beam="2">  1       -4 0.13386482E+00 0.17802821E+04</pdfrwt>
<totfact> 0.27091973E-01</totfact>
</mgrwt>
</event>
<event>
12    1  0.2404191E-008  0.2476143E+04  0.7818608E-02  0.8411534E-01
         -2   -1    0    0    0  501 -0.00000000000E+00  0.00000000000E+00  0.76218296394E+03  0.76218296394E+03  0.00000000000E+00 0.  1.
          2   -1    0    0  501    0  0.00000000000E+00 -0.00000000000E+00 -0.20110925505E+04  0.20110925505E+04  0.00000000000E+00 0. -1.
         23    2    1    2    0    0  0.45693981061E+03  0.53605229083E+03  0.36602893631E+03  0.79944882953E+03  0.94843027143E+02 0.  0.
        254    2    1    2    0    0 -0.45693981061E+03 -0.53605229083E+03 -0.16149385229E+04  0.19738266849E+04  0.88984228959E+03 0.  0.
        -24    2    4    4    0    0  0.16830454877E+03 -0.23441449338E+03 -0.99952178700E+03  0.10438185959E+04  0.85069868862E+02 0.  0.
         24    2    4    4    0    0 -0.62524435938E+03 -0.30163779745E+03 -0.61541673587E+03  0.93000808901E+03  0.65279530136E+02 0.  0.
         13    1    3    3    0    0  0.12433996136E+03  0.17673075915E+03  0.69314329309E+02  0.22693316960E+03  0.00000000000E+00 0. -1.
        -13    1    3    3    0    0  0.33259984925E+03  0.35932153169E+03  0.29671460700E+03  0.57251565993E+03  0.00000000000E+00 0.  1.
          2    1    6    6  502    0 -0.38122249164E+03 -0.21834222982E+03 -0.39521557459E+03  0.59093084862E+03  0.00000000000E+00 0. -1.
          1    1    5    5  503    0 -0.81050659087E+01 -0.21736547715E+02 -0.10772583757E+03  0.11019539772E+03  0.00000000000E+00 0. -1.
         -2    1    5    5    0  503  0.17640961468E+03 -0.21267794567E+03 -0.89179594943E+03  0.93362319817E+03  0.00000000000E+00 0.  1.
         -1    1    6    6    0  502 -0.24402186774E+03 -0.83295567630E+02 -0.22020116128E+03  0.33907724039E+03  0.00000000000E+00 0.  1.
<mgrwt>
<rscale>  0 0.24761425E+04</rscale>
<asrwt>0</asrwt>
<pdfrwt beam="1">  1        2 0.30939886E+00 0.24761425E+04</pdfrwt>
<pdfrwt beam="2">  1       -2 0.11725892E+00 0.24761425E+04</pdfrwt>
<totfact> 0.33093365E+00</totfact>
</mgrwt>
</event>
<event>
11    1  0.2404191E-008  0.1586687E+04  0.7818608E-02  0.8828769E-01
          2   -1    0    0  501    0  0.00000000000E+00  0.00000000000E+00  0.91344009091E+03  0.91344009091E+03  0.00000000000E+00 0. -1.
         -2   -1    0    0    0  501 -0.00000000000E+00 -0.00000000000E+00 -0.68903653075E+03  0.68903653075E+03  0.00000000000E+00 0.  1.
         23    2    1    2    0    0 -0.34408514418E+03  0.39332682407E+03  0.10416333781E+03  0.54068080764E+03  0.91570507407E+02 0.  0.
        254    2    1    2    0    0  0.34408514418E+03 -0.39332682407E+03  0.12024022235E+03  0.10617958140E+04  0.91643442899E+03 0.  0.
        -24    2    4    4    0    0  0.44739289532E+03 -0.50357169630E+03 -0.16287366268E+03  0.69756538099E+03  0.79528451914E+02 0.  0.
         13    1    3    3    0    0 -0.32770363660E+03  0.35744689064E+03  0.72961675120E+02  0.49038898755E+03  0.00000000000E+00 0. -1.
        -13    1    3    3    0    0 -0.16381507578E+02  0.35879933423E+02  0.31201662693E+02  0.50291820088E+02  0.00000000000E+00 0.  1.
          4    1    4    4  502    0  0.76820650166E+00 -0.43265743278E+02  0.45299722048E+02  0.62646464388E+02  0.00000000000E+00 0. -1.
          1    1    5    5  503    0  0.99511327619E+02 -0.11028843632E+03 -0.70537250854E+02  0.16444314296E+03  0.00000000000E+00 0. -1.
         -2    1    5    5    0  503  0.34788156770E+03 -0.39328325998E+03 -0.92336411821E+02  0.53312223802E+03  0.00000000000E+00 0.  1.
         -3    1    4    4    0  502 -0.10407595764E+03  0.15351061551E+03  0.23781416298E+03  0.30158396865E+03  0.00000000000E+00 0.  1.
<mgrwt>
<rscale>  0 0.15866866E+04</rscale>
<asrwt>0</asrwt>
<pdfrwt beam="1">  1        2 0.14052924E+00 0.15866866E+04</pdfrwt>
<pdfrwt beam="2">  1       -2 0.10600562E+00 0.15866866E+04</pdfrwt>
<totfact> 0.19805665E+01</totfact>
</mgrwt>
</event>
<event>
12    1  0.2404191E-008  0.3409138E+04  0.7818608E-02  0.8135667E-01
          2   -1    0    0  501    0  0.00000000000E+00  0.00000000000E+00  0.16295682057E+04  0.16295682057E+04  0.00000000000E+00 0. -1.
         -2   -1    0    0    0  501 -0.00000000000E+00 -0.00000000000E+00 -0.17830212318E+04  0.17830212318E+04  0.00000000000E+00 0.  1.
         23    2    1    2    0    0 -0.13725012019E+04 -0.79593188068E+03  0.14483898267E+02  0.15894294628E+04  0.93856943891E+02 0.  0.
        254    2    1    2    0    0  0.13725012019E+04  0.79593188068E+03 -0.16793692434E+03  0.18231599746E+04  0.88229381421E+03 0.  0.
        -24    2    4    4    0    0  0.91519473602E+03  0.90634416318E+03 -0.29771057134E+03  0.13244445160E+04  0.80501830016E+02 0.  0.
         24    2    4    4    0    0  0.45730646591E+03 -0.11041228250E+03  0.12977364701E+03  0.49871545867E+03  0.10274158535E+03 0.  0.
         13    1    3    3    0    0 -0.13656448436E+04 -0.79525691529E+03  0.20239478189E+02  0.15804521621E+04  0.00000000000E+00 0. -1.
        -13    1    3    3    0    0 -0.68563583476E+01 -0.67496538903E+00 -0.57555799221E+01  0.89773007250E+01  0.00000000000E+00 0.  1.
          4    1    6    6  502    0  0.22940518340E+03 -0.14994924446E+02  0.28341771423E+02  0.23163514832E+03  0.00000000000E+00 0. -1.
          1    1    5    5  503    0  0.37284618962E+03  0.39193860768E+03 -0.16233535880E+03  0.56478573107E+03  0.00000000000E+00 0. -1.
         -2    1    5    5    0  503  0.54234854639E+03  0.51440555550E+03 -0.13537521255E+03  0.75965878490E+03  0.00000000000E+00 0.  1.
         -3    1    6    6    0  502  0.22790128251E+03 -0.95417358056E+02  0.10143187558E+03  0.26708031034E+03  0.00000000000E+00 0.  1.
<mgrwt>
<rscale>  0 0.34091376E+04</rscale>
<asrwt>0</asrwt>
<pdfrwt beam="1">  1        2 0.25070280E+00 0.34091376E+04</pdfrwt>
<pdfrwt beam="2">  1       -2 0.27431096E+00 0.34091376E+04</pdfrwt>
<totfact> 0.40538214E-01</totfact>
</mgrwt>
</event>
<event>
12    1  0.2404191E-008  0.1603961E+04  0.7818608E-02  0.8818119E-01
         -2   -1    0    0    0  501 -0.00000000000E+00  0.00000000000E+00  0.32803838845E+03  0.32803838845E+03  0.00000000000E+00 0.  1.
          2   -1    0    0  501    0  0.00000000000E+00 -0.00000000000E+00 -0.19606619179E+04  0.19606619179E+04  0.00000000000E+00 0. -1.
         23    2    1    2    0    0  0.42199897293E+03  0.63636575904E+02 -0.10385466713E+04  0.11266113741E+04  0.92418898587E+02 0.  0.
        254    2    1    2    0    0 -0.42199897293E+03 -0.63636575904E+02 -0.59407685819E+03  0.11620889323E+04  0.90298982617E+03 0.  0.
        -24    2    4    4    0    0  0.14631896278E+03  0.28109887870E+03 -0.14876379902E+03  0.35903615789E+03  0.79689875740E+02 0.  0.
         24    2    4    4    0    0 -0.56831793572E+03 -0.34473545460E+03 -0.44531305917E+03  0.80305277440E+03  0.69008898642E+02 0.  0.
         11    1    3    3    0    0  0.17631290343E+03  0.58420682206E+02 -0.53446503535E+03  0.56581983885E+03  0.00000000000E+00 0. -1.
        -11    1    3    3    0    0  0.24568606950E+03  0.52158936973E+01 -0.50408163591E+03  0.56079153520E+03  0.00000000000E+00 0.  1.
          2    1    6    6  502    0 -0.30925254844E+03 -0.22622275599E+03 -0.24508978350E+03  0.45484379299E+03  0.00000000000E+00 0. -1.
          1    1    5    5  503    0  0.14980655339E+02  0.84193543007E+02 -0.13949828619E+02  0.86646237292E+02  0.00000000000E+00 0. -1.
         -2    1    5    5    0  503  0.13133830744E+03  0.19690533569E+03 -0.13481397040E+03  0.27238992059E+03  0.00000000000E+00 0.  1.
         -1    1    6    6    0  502 -0.25906538727E+03 -0.11851269861E+03 -0.20022327568E+03  0.34820898141E+03  0.00000000000E+00 0.  1.
<mgrwt>
<rscale>  0 0.16039606E+04</rscale>
<asrwt>0</asrwt>
<pdfrwt beam="1">  1        2 0.30164030E+00 0.16039606E+04</pdfrwt>
<pdfrwt beam="2">  1       -2 0.50467443E-01 0.16039606E+04</pdfrwt>
<totfact> 0.25013414E+01</totfact>
</mgrwt>
</event>
<event>
12    1  0.2404191E-008  0.1974043E+04  0.7818608E-02  0.8618854E-01
          1   -1    0    0  501    0  0.00000000000E+00  0.00000000000E+00  0.18021362688E+04  0.18021362688E+04  0.00000000000E+00 0. -1.
         -1   -1    0    0    0  501 -0.00000000000E+00 -0.00000000000E+00 -0.54058682712E+03  0.54058682712E+03  0.00000000000E+00 0.  1.
         23    2    1    2    0    0  0.98728570239E+02  0.41077462387E+03 -0.27729608438E+03  0.51357443963E+03  0.91555799555E+02 0.  0.
        254    2    1    2    0    0 -0.98728570239E+02 -0.41077462387E+03  0.15388455260E+04  0.18291486563E+04  0.89401125917E+03 0.  0.
        -24    2    4    4    0    0 -0.34564072332E+03  0.54707008564E+02  0.25547726975E+03  0.44053216582E+03  0.79621525734E+02 0.  0.
         24    2    4    4    0    0  0.24691215309E+03 -0.46548163244E+03  0.12833682563E+04  0.13886164904E+04  0.59857454063E+02 0.  0.
         11    1    3    3    0    0  0.45069246622E+02  0.32648627191E+03 -0.23645983823E+03  0.40563256505E+03  0.00000000000E+00 0.  1.
        -11    1    3    3    0    0  0.53659323616E+02  0.84288351966E+02 -0.40836246142E+02  0.10794187458E+03  0.00000000000E+00 0. -1.
          4    1    6    6  502    0  0.64889847844E+02 -0.11592134703E+03  0.25979725049E+03  0.29179284161E+03  0.00000000000E+00 0. -1.
          3    1    5    5  503    0 -0.75898268209E+02  0.10921697435E+02  0.18645621204E+02  0.78914445965E+02  0.00000000000E+00 0. -1.
         -4    1    5    5    0  503 -0.26974245512E+03  0.43785311129E+02  0.23683164855E+03  0.36161771986E+03  0.00000000000E+00 0.  1.
         -3    1    6    6    0  502  0.18202230524E+03 -0.34956028541E+03  0.10235710058E+04  0.10968236488E+04  0.00000000000E+00 0.  1.
<mgrwt>
<rscale>  0 0.19740427E+04</rscale>
<asrwt>0</asrwt>
<pdfrwt beam="1">  1        1 0.27725173E+00 0.19740427E+04</pdfrwt>
<pdfrwt beam="2">  1       -1 0.83167205E-01 0.19740427E+04</pdfrwt>
<totfact> 0.54175413E+00</totfact>
</mgrwt>
</event>
<event>
11    1  0.2404191E-008  0.1221335E+04  0.7818608E-02  0.9094384E-01
          1   -1    0    0  501    0  0.00000000000E+00  0.00000000000E+00  0.26242156958E+04  0.26242156958E+04  0.00000000000E+00 0. -1.
         -1   -1    0    0    0  501 -0.00000000000E+00 -0.00000000000E+00 -0.14210529881E+03  0.14210529881E+03  0.00000000000E+00 0.  1.
         23    2    1    2    0    0  0.25114083462E+03  0.15200690204E+03  0.66942777803E+03  0.73586445036E+03  0.84765100270E+02 0.  0.
        254    2    1    2    0    0 -0.25114083462E+03 -0.15200690204E+03  0.18126826189E+04  0.20304565442E+04  0.86646274235E+03 0.  0.
        -24    2    4    4    0    0  0.17198924442E+03 -0.14188778028E+03  0.13979259583E+04  0.14175419826E+04  0.74268735589E+02 0.  0.
         11    1    3    3    0    0  0.19387830897E+03  0.10267092866E+03  0.57148292610E+03  0.61214610438E+03  0.00000000000E+00 0.  1.
        -11    1    3    3    0    0  0.57262525653E+02  0.49335973377E+02  0.97944851934E+02  0.12371834599E+03  0.00000000000E+00 0. -1.
          4    1    4    4  502    0 -0.29838517049E+03  0.60209625092E+02  0.24445819242E+03  0.39040839740E+03  0.00000000000E+00 0. -1.
          3    1    5    5  503    0  0.10232879633E+03 -0.11108159261E+03  0.10859651801E+04  0.10964171995E+04  0.00000000000E+00 0. -1.
         -4    1    5    5    0  503  0.69660448091E+02 -0.30806187672E+02  0.31196077819E+03  0.32112478315E+03  0.00000000000E+00 0.  1.
         -3    1    4    4    0  502 -0.12474490856E+03 -0.70328746847E+02  0.17029846819E+03  0.22250616421E+03  0.00000000000E+00 0.  1.
<mgrwt>
<rscale>  0 0.12213353E+04</rscale>
<asrwt>0</asrwt>
<pdfrwt beam="1">  1        1 0.40372546E+00 0.12213353E+04</pdfrwt>
<pdfrwt beam="2">  1       -1 0.21862356E-01 0.12213353E+04</pdfrwt>
<totfact> 0.19447847E+01</totfact>
</mgrwt>
</event>
<event>
11    1  0.2404191E-008  0.2958298E+04  0.7818608E-02  0.8255740E-01
          2   -1    0    0  501    0  0.00000000000E+00  0.00000000000E+00  0.27632970357E+04  0.27632970357E+04  0.00000000000E+00 0. -1.
         -2   -1    0    0    0  501 -0.00000000000E+00 -0.00000000000E+00 -0.79176475261E+03  0.79176475261E+03  0.00000000000E+00 0.  1.
         23    2    1    2    0    0 -0.76998053400E+03  0.73793161351E+03  0.18839087324E+04  0.21669604363E+04  0.95876646454E+02 0.  0.
        254    2    1    2    0    0  0.76998053400E+03 -0.73793161351E+03  0.87623550700E+02  0.13881013521E+04  0.88415744525E+03 0.  0.
        -24    2    4    4    0    0  0.36323352411E+03  0.15515921988E+03  0.14860206936E+02  0.40336492390E+03  0.80432950492E+02 0.  0.
         13    1    3    3    0    0 -0.10953193008E+03  0.14963977326E+03  0.29414372054E+03  0.34772091364E+03  0.00000000000E+00 0.  1.
        -13    1    3    3    0    0 -0.66044860392E+03  0.58829184025E+03  0.15897650119E+04  0.18192395226E+04  0.00000000000E+00 0. -1.
          4    1    4    4  502    0  0.79145174548E+02 -0.17930775697E+03  0.29155322050E+02  0.19815464458E+03  0.00000000000E+00 0. -1.
          3    1    5    5  503    0  0.15403621897E+03  0.42974938905E+02 -0.27412666138E+02  0.16225121384E+03  0.00000000000E+00 0. -1.
         -4    1    5    5    0  503  0.20919730514E+03  0.11218428098E+03  0.42272873074E+02  0.24111371005E+03  0.00000000000E+00 0.  1.
         -1    1    4    4    0  502  0.32760183534E+03 -0.71378307643E+03  0.43608021714E+02  0.78658178359E+03  0.00000000000E+00 0.  1.
<mgrwt>
<rscale>  0 0.29582976E+04</rscale>
<asrwt>0</asrwt>
<pdfrwt beam="1">  1        2 0.42512262E+00 0.29582976E+04</pdfrwt>
<pdfrwt beam="2">  1       -2 0.12180996E+00 0.29582976E+04</pdfrwt>
<totfact> 0.10688306E+00</totfact>
</mgrwt>
</event>
<event>
12    1  0.2404191E-008  0.2689210E+04  0.7818608E-02  0.8338514E-01
          2   -1    0    0  501    0  0.00000000000E+00  0.00000000000E+00  0.22766115708E+04  0.22766115708E+04  0.00000000000E+00 0. -1.
         -2   -1    0    0    0  501 -0.00000000000E+00 -0.00000000000E+00 -0.79414645364E+03  0.79414645364E+03  0.00000000000E+00 0.  1.
         23    2    1    2    0    0  0.89034590055E+01 -0.87446044687E+03 -0.26338810134E+03  0.91779480941E+03  0.90629330451E+02 0.  0.
        254    2    1    2    0    0 -0.89034590055E+01  0.87446044687E+03  0.17458532185E+04  0.21529632150E+04  0.90691057989E+03 0.  0.
        -24    2    4    4    0    0  0.35043708752E+03  0.95205931119E+02  0.33920663409E+03  0.50261858402E+03  0.75458457241E+02 0.  0.
         24    2    4    4    0    0 -0.35934054652E+03  0.77925451575E+03  0.14066465844E+04  0.16503446310E+04  0.92841579609E+02 0.  0.
         13    1    3    3    0    0  0.10755171211E+02 -0.16594271301E+03 -0.86883627329E+02  0.18762042108E+03  0.00000000000E+00 0. -1.
        -13    1    3    3    0    0 -0.18517122060E+01 -0.70851773385E+03 -0.17650447401E+03  0.73017438833E+03  0.00000000000E+00 0.  1.
          4    1    6    6  502    0 -0.85149232351E+01  0.65477039308E+02  0.13843212255E+03  0.15337274578E+03  0.00000000000E+00 0. -1.
          3    1    5    5  503    0  0.19465421667E+03  0.85225527896E+02  0.16760824019E+03  0.27064030899E+03  0.00000000000E+00 0. -1.
         -4    1    5    5    0  503  0.15578287085E+03  0.99804032238E+01  0.17159839390E+03  0.23197827503E+03  0.00000000000E+00 0.  1.
         -3    1    6    6    0  502 -0.35082562329E+03  0.71377747644E+03  0.12682144618E+04  0.14969718852E+04  0.00000000000E+00 0.  1.
<mgrwt>
<rscale>  0 0.26892103E+04</rscale>
<asrwt>0</asrwt>
<pdfrwt beam="1">  1        2 0.35024793E+00 0.26892103E+04</pdfrwt>
<pdfrwt beam="2">  1       -2 0.12217638E+00 0.26892103E+04</pdfrwt>
<totfact> 0.20836110E+00</totfact>
</mgrwt>
</event>
<event>
12    1  0.2404191E-008  0.1587102E+04  0.7818608E-02  0.8828511E-01
          2   -1    0    0  501    0  0.00000000000E+00  0.00000000000E+00  0.77305158396E+03  0.77305158396E+03  0.00000000000E+00 0. -1.
         -2   -1    0    0    0  501 -0.00000000000E+00 -0.00000000000E+00 -0.81459392166E+03  0.81459392166E+03  0.00000000000E+00 0.  1.
         23    2    1    2    0    0 -0.82799755565E+02 -0.28202461781E+03 -0.46097193951E+03  0.55430368067E+03  0.91453577359E+02 0.  0.
        254    2    1    2    0    0  0.82799755565E+02  0.28202461781E+03  0.41942960181E+03  0.10333418250E+04  0.89748562761E+03 0.  0.
        -24    2    4    4    0    0  0.15113245429E+03  0.56387995424E+03  0.42906783075E+03  0.72883514118E+03  0.79371519495E+02 0.  0.
         24    2    4    4    0    0 -0.68332698725E+02 -0.28185533642E+03 -0.96382289475E+01  0.30450668377E+03  0.92301877664E+02 0.  0.
         11    1    3    3    0    0 -0.16741630027E+02 -0.21924154550E+02 -0.96487532007E+01  0.29224119611E+02  0.00000000000E+00 0. -1.
        -11    1    3    3    0    0 -0.66058125538E+02 -0.26010046326E+03 -0.45132318631E+03  0.52507956106E+03  0.00000000000E+00 0.  1.
          4    1    6    6  502    0 -0.55758783051E+02 -0.93925021298E+02  0.27252816223E+02  0.11257738452E+03  0.00000000000E+00 0. -1.
          3    1    5    5  503    0  0.41676985797E+01  0.24916858600E+02  0.42654421311E+02  0.49574380595E+02  0.00000000000E+00 0. -1.
         -2    1    5    5    0  503  0.14696475571E+03  0.53896309564E+03  0.38641340944E+03  0.67926076059E+03  0.00000000000E+00 0.  1.
         -3    1    6    6    0  502 -0.12573915674E+02 -0.18793031513E+03 -0.36891045171E+02  0.19192929925E+03  0.00000000000E+00 0.  1.
<mgrwt>
<rscale>  0 0.15871019E+04</rscale>
<asrwt>0</asrwt>
<pdfrwt beam="1">  1        2 0.11893101E+00 0.15871019E+04</pdfrwt>
<pdfrwt beam="2">  1       -2 0.12532214E+00 0.15871019E+04</pdfrwt>
<totfact> 0.16480001E+01</totfact>
</mgrwt>
</event>
<event>
12    1  0.2404191E-008  0.1150449E+04  0.7818608E-02  0.9157370E-01
         -2   -1    0    0    0  501 -0.00000000000E+00  0.00000000000E+00  0.11427552656E+03  0.11427552656E+03  0.00000000000E+00 0.  1.
          2   -1    0    0  501    0  0.00000000000E+00 -0.00000000000E+00 -0.28954851979E+04  0.28954851979E+04  0.00000000000E+00 0. -1.
         23    2    1    2    0    0 -0.33651882158E+02 -0.14927615207E+03 -0.18604481347E+03  0.25838343168E+03  0.93453231088E+02 0.  0.
        254    2    1    2    0    0  0.33651882158E+02  0.14927615207E+03 -0.25951648579E+04  0.27513772928E+04  0.90098865082E+03 0.  0.
        -24    2    4    4    0    0 -0.10656242112E+03 -0.33334749924E+03 -0.66478374094E+03  0.75558712720E+03  0.80612528342E+02 0.  0.
         24    2    4    4    0    0  0.14021430328E+03  0.48262365131E+03 -0.19303811170E+04  0.19957901656E+04  0.64972984753E+02 0.  0.
         13    1    3    3    0    0 -0.28239661605E+02 -0.36331643409E+02 -0.68895277741E+01  0.46528833999E+02  0.00000000000E+00 0. -1.
        -13    1    3    3    0    0 -0.54122205531E+01 -0.11294450866E+03 -0.17915528569E+03  0.21185459768E+03  0.00000000000E+00 0.  1.
          2    1    6    6  502    0  0.36855943073E+02  0.90255341637E+02 -0.28898186601E+03  0.30498345220E+03  0.00000000000E+00 0. -1.
          3    1    5    5  503    0 -0.63427307631E+02 -0.87552407355E+02 -0.23336049824E+03  0.25718780983E+03  0.00000000000E+00 0. -1.
         -4    1    5    5    0  503 -0.43135113491E+02 -0.24579509189E+03 -0.43142324270E+03  0.49839931737E+03  0.00000000000E+00 0.  1.
         -1    1    6    6    0  502  0.10335836021E+03  0.39236830967E+03 -0.16413992510E+04  0.16908067134E+04  0.00000000000E+00 0.  1.
<mgrwt>
<rscale>  0 0.11504488E+04</rscale>
<asrwt>0</asrwt>
<pdfrwt beam="1">  1        2 0.44545924E+00 0.11504488E+04</pdfrwt>
<pdfrwt beam="2">  1       -2 0.17580851E-01 0.11504488E+04</pdfrwt>
<totfact> 0.54336781E+01</totfact>
</mgrwt>
</event>
<event>
12    1  0.2404191E-008  0.2133840E+04  0.7818608E-02  0.8546481E-01
          1   -1    0    0  501    0  0.00000000000E+00  0.00000000000E+00  0.36215082865E+04  0.36215082865E+04  0.00000000000E+00 0. -1.
         -1   -1    0    0    0  501 -0.00000000000E+00 -0.00000000000E+00 -0.31432166848E+03  0.31432166848E+03  0.00000000000E+00 0.  1.
         23    2    1    2    0    0  0.52861108403E+03  0.68101136913E+03  0.16269649636E+04  0.18435512921E+04  0.91979404438E+02 0.  0.
        254    2    1    2    0    0 -0.52861108403E+03 -0.68101136913E+03  0.16802216544E+04  0.20922786629E+04  0.90071029307E+03 0.  0.
        -24    2    4    4    0    0  0.17154100476E+03 -0.34099217731E+03  0.25857666938E+03  0.46795830855E+03  0.80131787012E+02 0.  0.
         24    2    4    4    0    0 -0.70015208880E+03 -0.34001919183E+03  0.14216449850E+04  0.16243203543E+04  0.10731333425E+03 0.  0.
         11    1    3    3    0    0  0.16609928695E+02  0.36785780999E+02  0.11910583257E+03  0.12575882779E+03  0.00000000000E+00 0. -1.
        -11    1    3    3    0    0  0.51200115534E+03  0.64422558813E+03  0.15078591310E+04  0.17177924643E+04  0.00000000000E+00 0.  1.
          2    1    6    6  502    0 -0.10443275465E+03 -0.94723277224E+02  0.27748142441E+03  0.31124691225E+03  0.00000000000E+00 0. -1.
          3    1    5    5  503    0 -0.83147208782E+00 -0.30427914710E+02  0.42253361029E+02  0.52075866365E+02  0.00000000000E+00 0. -1.
         -4    1    5    5    0  503  0.17237247685E+03 -0.31056426260E+03  0.21632330835E+03  0.41588244218E+03  0.00000000000E+00 0.  1.
         -1    1    6    6    0  502 -0.59571933414E+03 -0.24529591460E+03  0.11441635606E+04  0.13130734421E+04  0.00000000000E+00 0.  1.
<mgrwt>
<rscale>  0 0.21338402E+04</rscale>
<asrwt>0</asrwt>
<pdfrwt beam="1">  1        1 0.55715509E+00 0.21338402E+04</pdfrwt>
<pdfrwt beam="2">  1       -1 0.48357182E-01 0.21338402E+04</pdfrwt>
<totfact> 0.78699951E-01</totfact>
</mgrwt>
</event>
<event>
12    1  0.2404191E-008  0.1699966E+04  0.7818608E-02  0.8761384E-01
          2   -1    0    0  501    0  0.00000000000E+00  0.00000000000E+00  0.29851993021E+04  0.29851993021E+04  0.00000000000E+00 0. -1.
         -2   -1    0    0    0  501 -0.00000000000E+00 -0.00000000000E+00 -0.24201761960E+03  0.24201761960E+03  0.00000000000E+00 0.  1.
         23    2    1    2    0    0  0.45651377690E+03 -0.15896670175E+02  0.17836730264E+04  0.18434617934E+04  0.90578064519E+02 0.  0.
        254    2    1    2    0    0 -0.45651377690E+03  0.15896670175E+02  0.95950865611E+03  0.13837551284E+04  0.88626399088E+03 0.  0.
        -24    2    4    4    0    0 -0.28143129704E+03 -0.36202140425E+03  0.19137775591E+03  0.50329463799E+03  0.80106023973E+02 0.  0.
         24    2    4    4    0    0 -0.17508247986E+03  0.37791807443E+03  0.76813090020E+03  0.88046049039E+03  0.10821113419E+03 0.  0.
         13    1    3    3    0    0  0.14582564748E+03 -0.20404125465E+02  0.42747886966E+03  0.45212789319E+03  0.00000000000E+00 0.  1.
        -13    1    3    3    0    0  0.31068812943E+03  0.45074552905E+01  0.13561941568E+04  0.13913339002E+04  0.00000000000E+00 0. -1.
          2    1    6    6  502    0  0.47208329576E+01  0.30095597302E+02  0.11489992553E+03  0.11886977802E+03  0.00000000000E+00 0. -1.
          1    1    5    5  503    0 -0.23716494990E+02 -0.45855721603E+02 -0.24626192743E+01  0.51684464126E+02  0.00000000000E+00 0. -1.
         -2    1    5    5    0  503 -0.25771480205E+03 -0.31616568265E+03  0.19384037519E+03  0.45161017386E+03  0.00000000000E+00 0.  1.
         -1    1    6    6    0  502 -0.17980331282E+03  0.34782247713E+03  0.65323097467E+03  0.76159071237E+03  0.00000000000E+00 0.  1.
<mgrwt>
<rscale>  0 0.16999657E+04</rscale>
<asrwt>0</asrwt>
<pdfrwt beam="1">  1        2 0.45926140E+00 0.16999657E+04</pdfrwt>
<pdfrwt beam="2">  1       -2 0.37233482E-01 0.16999657E+04</pdfrwt>
<totfact> 0.11564653E+01</totfact>
</mgrwt>
</event>
<event>
11    1  0.2404191E-008  0.1988836E+04  0.7818608E-02  0.8611858E-01
         -4   -1    0    0    0  501 -0.00000000000E+00  0.00000000000E+00  0.13640349599E+04  0.13640349599E+04  0.00000000000E+00 0.  1.
          4   -1    0    0  501    0  0.00000000000E+00 -0.00000000000E+00 -0.72495766670E+03  0.72495766670E+03  0.00000000000E+00 0. -1.
         23    2    1    2    0    0  0.43134841572E+03 -0.64869513480E+03  0.39254072966E+03  0.87739825576E+03  0.94194697885E+02 0.  0.
        254    2    1    2    0    0 -0.43134841572E+03  0.64869513480E+03  0.24653656356E+03  0.12115943709E+04  0.89460259819E+03 0.  0.
        -24    2    4    4    0    0 -0.54217955812E+01  0.22042988322E+03  0.49562467590E+03  0.54819023722E+03  0.79056862682E+02 0.  0.
         11    1    3    3    0    0  0.25235294746E+03 -0.35413788964E+03  0.26857496941E+03  0.51110485144E+03  0.00000000000E+00 0. -1.
        -11    1    3    3    0    0  0.17899546826E+03 -0.29455724516E+03  0.12396576025E+03  0.36629340432E+03  0.00000000000E+00 0.  1.
          4    1    4    4  502    0 -0.43185092693E+03  0.42442178030E+03 -0.25189490850E+03  0.65580493716E+03  0.00000000000E+00 0. -1.
          3    1    5    5  503    0  0.28931032888E+02  0.17084580646E+03  0.38473855197E+03  0.42195858520E+03  0.00000000000E+00 0. -1.
         -4    1    5    5    0  503 -0.34352828469E+02  0.49584076753E+02  0.11088612393E+03  0.12623165202E+03  0.00000000000E+00 0.  1.
         -3    1    4    4    0  502  0.59243067946E+01  0.38434712882E+01  0.28067961525E+01  0.75991964826E+01  0.00000000000E+00 0.  1.
<mgrwt>
<rscale>  0 0.19888364E+04</rscale>
<asrwt>0</asrwt>
<pdfrwt beam="1">  1        4 0.11153195E+00 0.19888364E+04</pdfrwt>
<pdfrwt beam="2">  1       -4 0.20985153E+00 0.19888364E+04</pdfrwt>
<totfact> 0.13374115E-01</totfact>
</mgrwt>
</event>
<event>
11    1  0.2404191E-008  0.2827438E+04  0.7818608E-02  0.8294800E-01
          1   -1    0    0  501    0  0.00000000000E+00  0.00000000000E+00  0.38963324403E+04  0.38963324403E+04  0.00000000000E+00 0. -1.
         -1   -1    0    0    0  501 -0.00000000000E+00 -0.00000000000E+00 -0.51294430415E+03  0.51294430415E+03  0.00000000000E+00 0.  1.
         23    2    1    2    0    0 -0.65736708438E+03 -0.10268932649E+04  0.97202511688E+03  0.15619951678E+04  0.91404678393E+02 0.  0.
        254    2    1    2    0    0  0.65736708438E+03  0.10268932649E+04  0.24113630193E+04  0.28472815767E+04  0.89760765663E+03 0.  0.
        -24    2    4    4    0    0 -0.12010874754E+03  0.11850615432E+03  0.87853391865E+03  0.89807707669E+03  0.79061808714E+02 0.  0.
         11    1    3    3    0    0 -0.17896993310E+02 -0.34314897699E+02  0.12904784264E+02  0.40796421786E+02  0.00000000000E+00 0. -1.
        -11    1    3    3    0    0 -0.63947009107E+03 -0.99257836716E+03  0.95912033262E+03  0.15211987460E+04  0.00000000000E+00 0.  1.
          2    1    4    4  502    0  0.75588108160E+03  0.87490498957E+03  0.15143798964E+04  0.19052982498E+04  0.00000000000E+00 0. -1.
          1    1    5    5  503    0 -0.92999321495E+02  0.12127211467E+03  0.81061521626E+03  0.82489564699E+03  0.00000000000E+00 0. -1.
         -2    1    5    5    0  503 -0.27109426049E+02 -0.27659603468E+01  0.67918702396E+02  0.73181429697E+02  0.00000000000E+00 0.  1.
         -1    1    4    4    0  502  0.21594750327E+02  0.33482120966E+02  0.18449204224E+02  0.43906250154E+02  0.00000000000E+00 0.  1.
<mgrwt>
<rscale>  0 0.28274381E+04</rscale>
<asrwt>0</asrwt>
<pdfrwt beam="1">  1        1 0.59943574E+00 0.28274381E+04</pdfrwt>
<pdfrwt beam="2">  1       -1 0.78914511E-01 0.28274381E+04</pdfrwt>
<totfact> 0.16378403E-01</totfact>
</mgrwt>
</event>
<event>
12    1  0.2404191E-008  0.2775901E+04  0.7818608E-02  0.8310789E-01
          1   -1    0    0  501    0  0.00000000000E+00  0.00000000000E+00  0.15511221995E+04  0.15511221995E+04  0.00000000000E+00 0. -1.
         -1   -1    0    0    0  501 -0.00000000000E+00 -0.00000000000E+00 -0.12419440962E+04  0.12419440962E+04  0.00000000000E+00 0.  1.
         23    2    1    2    0    0  0.61237915407E+03 -0.70805097736E+03 -0.68053849810E+03  0.11609156248E+04  0.90818641922E+02 0.  0.
        254    2    1    2    0    0 -0.61237915407E+03  0.70805097736E+03  0.98971660137E+03  0.16321506708E+04  0.89890625009E+03 0.  0.
        -24    2    4    4    0    0 -0.24084147623E+03  0.49524406277E+03  0.10502065277E+04  0.11885304794E+04  0.79997821565E+02 0.  0.
         24    2    4    4    0    0 -0.37153767784E+03  0.21280691459E+03 -0.60489926294E+02  0.44362019140E+03  0.99059649119E+02 0.  0.
         13    1    3    3    0    0  0.57476628879E+03 -0.66683605387E+03 -0.61029735359E+03  0.10712093489E+04  0.00000000000E+00 0.  1.
        -13    1    3    3    0    0  0.37612865280E+02 -0.41214923492E+02 -0.70241144505E+02  0.89706275892E+02  0.00000000000E+00 0. -1.
          4    1    6    6  502    0 -0.19354080172E+02  0.40056937848E+02  0.86029298169E+01  0.45311688233E+02  0.00000000000E+00 0. -1.
          1    1    5    5  503    0 -0.11256669753E+03  0.14937590232E+03  0.37865416055E+03  0.42233090686E+03  0.00000000000E+00 0. -1.
         -2    1    5    5    0  503 -0.12827477870E+03  0.34586816046E+03  0.67155236711E+03  0.76619957259E+03  0.00000000000E+00 0.  1.
         -3    1    6    6    0  502 -0.35218359767E+03  0.17274997674E+03 -0.69092856111E+02  0.39830850317E+03  0.00000000000E+00 0.  1.
<mgrwt>
<rscale>  0 0.27759013E+04</rscale>
<asrwt>0</asrwt>
<pdfrwt beam="1">  1        1 0.23863419E+00 0.27759013E+04</pdfrwt>
<pdfrwt beam="2">  1       -1 0.19106832E+00 0.27759013E+04</pdfrwt>
<totfact> 0.90853808E-01</totfact>
</mgrwt>
</event>
<event>
12    1  0.2404191E-008  0.1711513E+04  0.7818608E-02  0.8754825E-01
         -1   -1    0    0    0  501 -0.00000000000E+00  0.00000000000E+00  0.83849111077E+03  0.83849111077E+03  0.00000000000E+00 0.  1.
          1   -1    0    0  501    0  0.00000000000E+00 -0.00000000000E+00 -0.87337701776E+03  0.87337701776E+03  0.00000000000E+00 0. -1.
         23    2    1    2    0    0  0.80280121978E+02 -0.34826526011E+03 -0.51191222990E+03  0.63110395182E+03  0.92219723959E+02 0.  0.
        254    2    1    2    0    0 -0.80280121978E+02  0.34826526011E+03  0.47702632291E+03  0.10807641767E+04  0.90153397247E+03 0.  0.
        -24    2    4    4    0    0 -0.64055939398E+02  0.16681088298E+03 -0.25473600668E+03  0.32103575488E+03  0.79022077667E+02 0.  0.
         24    2    4    4    0    0 -0.16224182580E+02  0.18145437713E+03  0.73176232959E+03  0.75972842183E+03  0.92316048654E+02 0.  0.
         11    1    3    3    0    0  0.77322702610E+02 -0.25852543935E+03 -0.43962152267E+03  0.51583067602E+03  0.00000000000E+00 0. -1.
        -11    1    3    3    0    0  0.29574193676E+01 -0.89739820768E+02 -0.72290707233E+02  0.11527327580E+03  0.00000000000E+00 0.  1.
          4    1    6    6  502    0  0.53500470951E+00  0.57844533360E+02  0.41954676785E+03  0.42351595800E+03  0.00000000000E+00 0. -1.
          1    1    5    5  503    0  0.16953935541E+02  0.12495668551E+02 -0.29318818125E+02  0.36099456493E+02  0.00000000000E+00 0. -1.
         -2    1    5    5    0  503 -0.81009874939E+02  0.15431521443E+03 -0.22541718856E+03  0.28493629839E+03  0.00000000000E+00 0.  1.
         -3    1    6    6    0  502 -0.16759187289E+02  0.12360984377E+03  0.31221556174E+03  0.33621246382E+03  0.00000000000E+00 0.  1.
<mgrwt>
<rscale>  0 0.17115126E+04</rscale>
<asrwt>0</asrwt>
<pdfrwt beam="1">  1        1 0.13436569E+00 0.17115126E+04</pdfrwt>
<pdfrwt beam="2">  1       -1 0.12899863E+00 0.17115126E+04</pdfrwt>
<totfact> 0.94135323E+00</totfact>
</mgrwt>
</event>
<event>
12    1  0.2404191E-008  0.1359805E+04  0.7818608E-02  0.8983439E-01
          2   -1    0    0  501    0  0.00000000000E+00  0.00000000000E+00  0.14929220571E+04  0.14929220571E+04  0.00000000000E+00 0.  1.
         -2   -1    0    0    0  501 -0.00000000000E+00 -0.00000000000E+00 -0.30963950229E+03  0.30963950229E+03  0.00000000000E+00 0. -1.
         23    2    1    2    0    0  0.10187125408E+03 -0.22024414681E+03 -0.41632558932E+02  0.26226697571E+03  0.90362934714E+02 0.  0.
        254    2    1    2    0    0 -0.10187125408E+03  0.22024414681E+03  0.12249151137E+04  0.15402945837E+04  0.90177887091E+03 0.  0.
        -24    2    4    4    0    0  0.10775901382E+03 -0.29148161484E+03  0.22130008219E+03  0.39071302559E+03  0.84317288539E+02 0.  0.
         24    2    4    4    0    0 -0.20963026790E+03  0.51172576165E+03  0.10036150316E+04  0.11495815581E+04  0.92122325056E+02 0.  0.
         13    1    3    3    0    0  0.97091642722E+02 -0.10900756091E+03 -0.38118481179E+02  0.15087231034E+03  0.00000000000E+00 0. -1.
        -13    1    3    3    0    0  0.47796113579E+01 -0.11123658591E+03 -0.35140777530E+01  0.11139466536E+03  0.00000000000E+00 0.  1.
          4    1    6    6  502    0 -0.17452275594E+03  0.43588451422E+03  0.77457170524E+03  0.90576753565E+03  0.00000000000E+00 0. -1.
          1    1    5    5  503    0  0.58250128168E+02 -0.23978752942E+03  0.19480588045E+03  0.31438903886E+03  0.00000000000E+00 0. -1.
         -2    1    5    5    0  503  0.49508885653E+02 -0.51694085415E+02  0.26494201739E+02  0.76323986736E+02  0.00000000000E+00 0.  1.
         -3    1    6    6    0  502 -0.35107511957E+02  0.75841247432E+02  0.22904332632E+03  0.24381402244E+03  0.00000000000E+00 0.  1.
<mgrwt>
<rscale>  0 0.13598053E+04</rscale>
<asrwt>0</asrwt>
<pdfrwt beam="1">  1        2 0.22968031E+00 0.13598053E+04</pdfrwt>
<pdfrwt beam="2">  1       -2 0.47636847E-01 0.13598053E+04</pdfrwt>
<totfact> 0.52205140E+01</totfact>
</mgrwt>
</event>
<event>
11    1  0.2404191E-008  0.1732040E+04  0.7818608E-02  0.8743299E-01
         -2   -1    0    0    0  501 -0.00000000000E+00  0.00000000000E+00  0.44844894817E+03  0.44844894817E+03  0.00000000000E+00 0.  1.
          2   -1    0    0  501    0  0.00000000000E+00 -0.00000000000E+00 -0.16724097517E+04  0.16724097517E+04  0.00000000000E+00 0. -1.
         23    2    1    2    0    0 -0.14827506080E+02 -0.51138888103E+03 -0.20825416568E+02  0.52008914517E+03  0.91217204353E+02 0.  0.
        254    2    1    2    0    0  0.14827506080E+02  0.51138888103E+03 -0.12031353870E+04  0.16007695547E+04  0.92368282723E+03 0.  0.
        -24    2    4    4    0    0  0.10836597220E+03  0.66646550923E+03 -0.46087380165E+03  0.82139360673E+03  0.79770528350E+02 0.  0.
         11    1    3    3    0    0 -0.70966432709E+01 -0.93068326758E+01 -0.13536626822E+02  0.17894684850E+02  0.00000000000E+00 0. -1.
        -11    1    3    3    0    0 -0.77308628095E+01 -0.50208204835E+03 -0.72887897461E+01  0.50219446032E+03  0.00000000000E+00 0.  1.
          4    1    4    4  502    0 -0.10978949231E+03 -0.17436985856E+03 -0.58785103821E+03  0.62291847245E+03  0.00000000000E+00 0. -1.
          3    1    5    5  503    0  0.59474501677E+02  0.35085289058E+03 -0.29074428807E+03  0.45952933337E+03  0.00000000000E+00 0. -1.
         -4    1    5    5    0  503  0.48891470520E+02  0.31561261865E+03 -0.17012951358E+03  0.36186427336E+03  0.00000000000E+00 0.  1.
         -3    1    4    4    0  502  0.16251026190E+02  0.19293230355E+02 -0.15441054712E+03  0.15645747553E+03  0.00000000000E+00 0.  1.
<mgrwt>
<rscale>  0 0.17320397E+04</rscale>
<asrwt>0</asrwt>
<pdfrwt beam="1">  1        2 0.25729381E+00 0.17320397E+04</pdfrwt>
<pdfrwt beam="2">  1       -2 0.68992146E-01 0.17320397E+04</pdfrwt>
<totfact> 0.18501565E+01</totfact>
</mgrwt>
</event>
<event>
12    1  0.2404191E-008  0.3020845E+04  0.7818608E-02  0.8237803E-01
         -2   -1    0    0    0  501 -0.00000000000E+00  0.00000000000E+00  0.10151774141E+04  0.10151774141E+04  0.00000000000E+00 0.  1.
          2   -1    0    0  501    0  0.00000000000E+00 -0.00000000000E+00 -0.22472690393E+04  0.22472690393E+04  0.00000000000E+00 0. -1.
         23    2    1    2    0    0  0.42440771332E+03  0.11530951331E+04  0.10268654608E+03  0.12363217301E+04  0.90535077802E+02 0.  0.
        254    2    1    2    0    0 -0.42440771332E+03 -0.11530951331E+04 -0.13347781713E+04  0.20261247234E+04  0.90210771814E+03 0.  0.
        -24    2    4    4    0    0 -0.46236910034E+03 -0.88266846449E+03 -0.14079939891E+04  0.17270785661E+04  0.86397322030E+02 0.  0.
         24    2    4    4    0    0  0.37961387028E+02 -0.27042666863E+03  0.73215817761E+02  0.29904615727E+03  0.97449464832E+02 0.  0.
         11    1    3    3    0    0  0.24866784451E+03  0.64897486912E+03  0.13962518535E+02  0.69512518986E+03  0.00000000000E+00 0.  1.
        -11    1    3    3    0    0  0.17573986880E+03  0.50412026399E+03  0.88724027549E+02  0.54119654020E+03  0.00000000000E+00 0. -1.
          4    1    6    6  502    0 -0.10166507839E+02 -0.46418273848E+02 -0.20174444951E+02  0.51623853573E+02  0.00000000000E+00 0. -1.
          3    1    5    5  503    0 -0.13036691275E+03 -0.19152945300E+03 -0.37110395784E+03  0.43748966940E+03  0.00000000000E+00 0. -1.
         -4    1    5    5    0  503 -0.33200218759E+03 -0.69113901149E+03 -0.10368900312E+04  0.12895888968E+04  0.00000000000E+00 0.  1.
         -3    1    6    6    0  502  0.48127894866E+02 -0.22400839478E+03  0.93390262713E+02  0.24742230370E+03  0.00000000000E+00 0.  1.
<mgrwt>
<rscale>  0 0.30208454E+04</rscale>
<asrwt>0</asrwt>
<pdfrwt beam="1">  1        2 0.34573369E+00 0.30208454E+04</pdfrwt>
<pdfrwt beam="2">  1       -2 0.15618114E+00 0.30208454E+04</pdfrwt>
<totfact> 0.11161430E+00</totfact>
</mgrwt>
</event>
<event>
12    1  0.2404191E-008  0.1384340E+04  0.7818608E-02  0.8965233E-01
          1   -1    0    0  501    0  0.00000000000E+00  0.00000000000E+00  0.54100743849E+03  0.54100743849E+03  0.00000000000E+00 0. -1.
         -1   -1    0    0    0  501 -0.00000000000E+00 -0.00000000000E+00 -0.88556889747E+03  0.88556889747E+03  0.00000000000E+00 0.  1.
         23    2    1    2    0    0  0.26345415509E+03  0.30004827686E+03 -0.22808935276E+03  0.46907530925E+03  0.92573390519E+02 0.  0.
        254    2    1    2    0    0 -0.26345415509E+03 -0.30004827686E+03 -0.11647210622E+03  0.95750102671E+03  0.86244153677E+03 0.  0.
        -24    2    4    4    0    0 -0.48793460459E+02  0.25561543448E+03 -0.21178204021E+03  0.34530035337E+03  0.81612801382E+02 0.  0.
         24    2    4    4    0    0 -0.21466069463E+03 -0.55566371134E+03  0.95309933990E+02  0.61220067334E+03  0.10423198649E+03 0.  0.
         11    1    3    3    0    0  0.12384530859E+03  0.12431783172E+03 -0.15180467290E+03  0.23202853803E+03  0.00000000000E+00 0. -1.
        -11    1    3    3    0    0  0.13960884649E+03  0.17573044514E+03 -0.76284679853E+02  0.23704677122E+03  0.00000000000E+00 0.  1.
          4    1    6    6  502    0 -0.12341801418E+03 -0.37159345625E+03  0.15686940757E+02  0.39186704769E+03  0.00000000000E+00 0. -1.
          3    1    5    5  503    0 -0.25011136434E+02  0.19168358925E+03 -0.10893708961E+03  0.22189061455E+03  0.00000000000E+00 0. -1.
         -4    1    5    5    0  503 -0.23782324025E+02  0.63931845238E+02 -0.10284495060E+03  0.12340973882E+03  0.00000000000E+00 0.  1.
         -3    1    6    6    0  502 -0.91242680446E+02 -0.18407025509E+03  0.79622993233E+02  0.22033362566E+03  0.00000000000E+00 0.  1.
<mgrwt>
<rscale>  0 0.13843401E+04</rscale>
<asrwt>0</asrwt>
<pdfrwt beam="1">  1        1 0.83231914E-01 0.13843401E+04</pdfrwt>
<pdfrwt beam="2">  1       -1 0.13624137E+00 0.13843401E+04</pdfrwt>
<totfact> 0.17443288E+01</totfact>
</mgrwt>
</event>
<event>
11    1  0.2404191E-008  0.2215061E+04  0.7818608E-02  0.8512185E-01
          2   -1    0    0  501    0  0.00000000000E+00  0.00000000000E+00  0.23782324079E+04  0.23782324079E+04  0.00000000000E+00 0. -1.
         -2   -1    0    0    0  501 -0.00000000000E+00 -0.00000000000E+00 -0.51577131673E+03  0.51577131673E+03  0.00000000000E+00 0.  1.
         23    2    1    2    0    0 -0.65835970689E+03  0.39644662195E+03  0.14635123414E+04  0.16554967126E+04  0.90518309225E+02 0.  0.
        254    2    1    2    0    0  0.65835970689E+03 -0.39644662195E+03  0.39894874978E+03  0.12385070120E+04  0.88551232977E+03 0.  0.
        -24    2    4    4    0    0  0.48779266715E+03  0.88727601243E+02  0.36532868283E+03  0.62106739580E+03  0.80283188019E+02 0.  0.
         13    1    3    3    0    0 -0.17515642580E+03  0.94468710913E+02  0.46593585726E+03  0.50665603117E+03  0.00000000000E+00 0. -1.
        -13    1    3    3    0    0 -0.48320328109E+03  0.30197791104E+03  0.99757648410E+03  0.11488406814E+04  0.00000000000E+00 0.  1.
          2    1    4    4  502    0  0.60631820978E+02 -0.16407986466E+01 -0.87992051305E+02  0.10687146966E+03  0.00000000000E+00 0. -1.
          3    1    5    5  503    0  0.11988410789E+03  0.44127606232E+02  0.61198111827E+02  0.14164975767E+03  0.00000000000E+00 0. -1.
         -4    1    5    5    0  503  0.36790855926E+03  0.44599995011E+02  0.30413057100E+03  0.47941763813E+03  0.00000000000E+00 0.  1.
         -1    1    4    4    0  502  0.10993521876E+03 -0.48353342455E+03  0.12161211826E+03  0.51056814656E+03  0.00000000000E+00 0.  1.
<mgrwt>
<rscale>  0 0.22150612E+04</rscale>
<asrwt>0</asrwt>
<pdfrwt beam="1">  1        2 0.36588190E+00 0.22150612E+04</pdfrwt>
<pdfrwt beam="2">  1       -2 0.79349435E-01 0.22150612E+04</pdfrwt>
<totfact> 0.52583058E+00</totfact>
</mgrwt>
</event>
<event>
11    1  0.2404191E-008  0.1276702E+04  0.7818608E-02  0.9048247E-01
          2   -1    0    0  501    0  0.00000000000E+00  0.00000000000E+00  0.50695047161E+03  0.50695047161E+03  0.00000000000E+00 0.  1.
         -2   -1    0    0    0  501 -0.00000000000E+00 -0.00000000000E+00 -0.80381037719E+03  0.80381037719E+03  0.00000000000E+00 0. -1.
         23    2    1    2    0    0 -0.23885918134E+03 -0.28609057782E+02 -0.22980231037E+03  0.34600297747E+03  0.95061937005E+02 0.  0.
        254    2    1    2    0    0  0.23885918134E+03  0.28609057782E+02 -0.67057595199E+02  0.96475787133E+03  0.93187383401E+03 0.  0.
        -24    2    4    4    0    0 -0.29914969314E+03 -0.96914905663E+02  0.15321397294E+03  0.35872641587E+03  0.79542957524E+02 0.  0.
         13    1    3    3    0    0 -0.20694463207E+03 -0.63469947924E+01 -0.22662533802E+03  0.30696157564E+03  0.00000000000E+00 0. -1.
        -13    1    3    3    0    0 -0.31914549276E+02 -0.22262062989E+02 -0.31769723554E+01  0.39041401837E+02  0.00000000000E+00 0.  1.
          4    1    4    4  502    0  0.48277260486E+03  0.90888329815E+02 -0.22567628148E+03  0.54061063671E+03  0.00000000000E+00 0. -1.
          1    1    5    5  503    0 -0.24126538608E+03 -0.10620420100E+03  0.14060471109E+03  0.29876077991E+03  0.00000000000E+00 0. -1.
         -2    1    5    5    0  503 -0.57884307065E+02  0.92892953357E+01  0.12609261851E+02  0.59965635965E+02  0.00000000000E+00 0.  1.
         -3    1    4    4    0  502  0.55236269633E+02  0.34635633629E+02  0.54047133413E+01  0.65420818752E+02  0.00000000000E+00 0.  1.
<mgrwt>
<rscale>  0 0.12767021E+04</rscale>
<asrwt>0</asrwt>
<pdfrwt beam="1">  1        2 0.77992381E-01 0.12767021E+04</pdfrwt>
<pdfrwt beam="2">  1       -2 0.12366313E+00 0.12767021E+04</pdfrwt>
<totfact> 0.29292918E+01</totfact>
</mgrwt>
</event>
<event>
11    1  0.2404191E-008  0.2290484E+04  0.7818608E-02  0.8481683E-01
         -2   -1    0    0    0  501 -0.00000000000E+00  0.00000000000E+00  0.40376728817E+03  0.40376728817E+03  0.00000000000E+00 0.  1.
          2   -1    0    0  501    0  0.00000000000E+00 -0.00000000000E+00 -0.32483541162E+04  0.32483541162E+04  0.00000000000E+00 0. -1.
         23    2    1    2    0    0 -0.66377161173E+03  0.59036161307E+03 -0.61359181479E+03  0.10835312959E+04  0.91790888755E+02 0.  0.
        254    2    1    2    0    0  0.66377161173E+03 -0.59036161307E+03 -0.22309950132E+04  0.25685901085E+04  0.91169995588E+03 0.  0.
        -24    2    4    4    0    0  0.76665219475E+03 -0.71199920445E+03 -0.21308169453E+04  0.23751640118E+04  0.79528443876E+02 0.  0.
         13    1    3    3    0    0 -0.18962797227E+03  0.15754549177E+03 -0.12273708009E+03  0.27539742314E+03  0.00000000000E+00 0. -1.
        -13    1    3    3    0    0 -0.47414363946E+03  0.43281612130E+03 -0.49085473470E+03  0.80813387274E+03  0.00000000000E+00 0.  1.
          4    1    4    4  502    0 -0.22491008908E+02  0.13268804862E+02 -0.13022778883E+01  0.26145794918E+02  0.00000000000E+00 0. -1.
          3    1    5    5  503    0  0.45874205537E+02 -0.45142752043E+02 -0.92934714022E+02  0.11304499930E+03  0.00000000000E+00 0. -1.
         -4    1    5    5    0  503  0.72077798922E+03 -0.66685645240E+03 -0.20378822313E+04  0.22621190125E+04  0.00000000000E+00 0.  1.
         -3    1    4    4    0  502 -0.80389574115E+02  0.10836878652E+03 -0.98875790001E+02  0.16728030179E+03  0.00000000000E+00 0.  1.
<mgrwt>
<rscale>  0 0.22904839E+04</rscale>
<asrwt>0</asrwt>
<pdfrwt beam="1">  1        2 0.49974677E+00 0.22904839E+04</pdfrwt>
<pdfrwt beam="2">  1       -2 0.62118046E-01 0.22904839E+04</pdfrwt>
<totfact> 0.26355408E+00</totfact>
</mgrwt>
</event>
<event>
12    1  0.2404191E-008  0.1608930E+04  0.7818608E-02  0.8815080E-01
          1   -1    0    0  501    0  0.00000000000E+00  0.00000000000E+00  0.54909622762E+03  0.54909622762E+03  0.00000000000E+00 0. -1.
         -1   -1    0    0    0  501 -0.00000000000E+00 -0.00000000000E+00 -0.11785990831E+04  0.11785990831E+04  0.00000000000E+00 0.  1.
         23    2    1    2    0    0 -0.16844027040E+03 -0.52075093152E+02  0.34125796389E+03  0.39500068394E+03  0.92111901384E+02 0.  0.
        254    2    1    2    0    0  0.16844027040E+03  0.52075093152E+02 -0.97076081938E+03  0.13326946268E+04  0.89588752632E+03 0.  0.
        -24    2    4    4    0    0 -0.21616932947E+03  0.34765074502E+03 -0.44760647179E+03  0.61235134456E+03  0.83859382796E+02 0.  0.
         24    2    4    4    0    0  0.38460959987E+03 -0.29557565187E+03 -0.52315434759E+03  0.72034328223E+03  0.99571394267E+02 0.  0.
         13    1    3    3    0    0 -0.31641674254E+02 -0.16252628051E+02  0.13516505185E+02  0.38053112627E+02  0.00000000000E+00 0.  1.
        -13    1    3    3    0    0 -0.13679859615E+03 -0.35822465101E+02  0.32774145870E+03  0.35694757131E+03  0.00000000000E+00 0. -1.
          2    1    6    6  502    0  0.31106880375E+03 -0.21942991029E+03 -0.34846937774E+03  0.51608545166E+03  0.00000000000E+00 0. -1.
          1    1    5    5  503    0 -0.12431734968E+03  0.16744791521E+03 -0.28317357693E+03  0.35168292880E+03  0.00000000000E+00 0. -1.
         -2    1    5    5    0  503 -0.91851979794E+02  0.18020282981E+03 -0.16443289486E+03  0.26066841576E+03  0.00000000000E+00 0.  1.
         -1    1    6    6    0  502  0.73540796122E+02 -0.76145741580E+02 -0.17468496985E+03  0.20425783057E+03  0.00000000000E+00 0.  1.
<mgrwt>
<rscale>  0 0.16089305E+04</rscale>
<asrwt>0</asrwt>
<pdfrwt beam="1">  1        1 0.84476342E-01 0.16089305E+04</pdfrwt>
<pdfrwt beam="2">  1       -1 0.18132294E+00 0.16089305E+04</pdfrwt>
<totfact> 0.75895407E+00</totfact>
</mgrwt>
</event>
<event>
11    1  0.2404191E-008  0.1468745E+04  0.7818608E-02  0.8905507E-01
          2   -1    0    0  501    0  0.00000000000E+00  0.00000000000E+00  0.20658670576E+04  0.20658670576E+04  0.00000000000E+00 0. -1.
         -2   -1    0    0    0  501 -0.00000000000E+00 -0.00000000000E+00 -0.26105419352E+03  0.26105419352E+03  0.00000000000E+00 0.  1.
         23    2    1    2    0    0 -0.28922170069E+03 -0.22775060602E+03  0.99550991670E+03  0.10652301745E+04  0.90309465823E+02 0.  0.
        254    2    1    2    0    0  0.28922170069E+03  0.22775060602E+03  0.80930294740E+03  0.12616910767E+04  0.89519471717E+03 0.  0.
        -24    2    4    4    0    0  0.29684050625E+03 -0.12072804720E+03 -0.49309094230E+02  0.33377720025E+03  0.79286096499E+02 0.  0.
         13    1    3    3    0    0 -0.83509659284E+02 -0.59033499828E+02  0.17530652626E+03  0.20295614167E+03  0.00000000000E+00 0.  1.
        -13    1    3    3    0    0 -0.20571204141E+03 -0.16871710619E+03  0.82020339045E+03  0.86227403278E+03  0.00000000000E+00 0. -1.
          2    1    4    4  502    0 -0.23498374098E+02  0.18540134517E+03  0.49443749630E+03  0.52857759139E+03  0.00000000000E+00 0. -1.
          1    1    5    5  503    0  0.86887732117E+02  0.13574671311E+01 -0.19771992676E+02  0.89119315548E+02  0.00000000000E+00 0. -1.
         -2    1    5    5    0  503  0.20995277413E+03 -0.12208551433E+03 -0.29537101555E+02  0.24465788470E+03  0.00000000000E+00 0.  1.
         -1    1    4    4    0  502  0.15879568539E+02  0.16307730805E+03  0.36417454533E+03  0.39933628506E+03  0.00000000000E+00 0.  1.
<mgrwt>
<rscale>  0 0.14687454E+04</rscale>
<asrwt>0</asrwt>
<pdfrwt beam="1">  1        2 0.31782569E+00 0.14687454E+04</pdfrwt>
<pdfrwt beam="2">  1       -2 0.40162185E-01 0.14687454E+04</pdfrwt>
<totfact> 0.34910641E+01</totfact>
</mgrwt>
</event>
<event>
12    1  0.2404191E-008  0.1616330E+04  0.7818608E-02  0.8810578E-01
         -2   -1    0    0    0  501 -0.00000000000E+00  0.00000000000E+00  0.52146660906E+03  0.52146660906E+03  0.00000000000E+00 0.  1.
          2   -1    0    0  501    0  0.00000000000E+00 -0.00000000000E+00 -0.12524875641E+04  0.12524875641E+04  0.00000000000E+00 0. -1.
         23    2    1    2    0    0  0.50507204430E+03  0.17199931778E+03 -0.18510035412E+03  0.57207103402E+03  0.91222758206E+02 0.  0.
        254    2    1    2    0    0 -0.50507204430E+03 -0.17199931778E+03 -0.54592060093E+03  0.12018831392E+04  0.92833843097E+03 0.  0.
        -24    2    4    4    0    0  0.20014442062E+03  0.71859749390E+02  0.61597482595E+02  0.23727835659E+03  0.85353125054E+02 0.  0.
         24    2    4    4    0    0 -0.70521646492E+03 -0.24385906717E+03 -0.60751808352E+03  0.96460478257E+03  0.67724867698E+02 0.  0.
         13    1    3    3    0    0  0.46410815304E+03  0.13731317023E+03 -0.14558163624E+03  0.50541596458E+03  0.00000000000E+00 0.  1.
        -13    1    3    3    0    0  0.40963891258E+02  0.34686147550E+02 -0.39518717886E+02  0.66655069441E+02  0.00000000000E+00 0. -1.
          4    1    6    6  502    0 -0.61618793835E+03 -0.19890561714E+03 -0.50104761266E+03  0.81871834599E+03  0.00000000000E+00 0. -1.
          1    1    5    5  503    0  0.20129614893E+03  0.51126427082E+02  0.61171624054E+02  0.21650870355E+03  0.00000000000E+00 0. -1.
         -2    1    5    5    0  503 -0.11517283151E+01  0.20733322308E+02  0.42585854092E+00  0.20769653044E+02  0.00000000000E+00 0.  1.
         -3    1    6    6    0  502 -0.89028526569E+02 -0.44953450027E+02 -0.10647047086E+03  0.14588643658E+03  0.00000000000E+00 0.  1.
<mgrwt>
<rscale>  0 0.16163297E+04</rscale>
<asrwt>0</asrwt>
<pdfrwt beam="1">  1        2 0.19269039E+00 0.16163297E+04</pdfrwt>
<pdfrwt beam="2">  1       -2 0.80225634E-01 0.16163297E+04</pdfrwt>
<totfact> 0.23192097E+01</totfact>
</mgrwt>
</event>
<event>
11    1  0.2404191E-008  0.1243650E+04  0.7818608E-02  0.9075485E-01
         -2   -1    0    0    0  501 -0.00000000000E+00  0.00000000000E+00  0.18238288098E+03  0.18238288098E+03  0.00000000000E+00 0.  1.
          2   -1    0    0  501    0  0.00000000000E+00 -0.00000000000E+00 -0.21200795469E+04  0.21200795469E+04  0.00000000000E+00 0. -1.
         23    2    1    2    0    0 -0.16316612120E+03 -0.13749414901E+03 -0.12399726371E+03  0.26259828847E+03  0.89748067284E+02 0.  0.
        254    2    1    2    0    0  0.16316612120E+03  0.13749414901E+03 -0.18136994022E+04  0.20398641394E+04  0.90885222209E+03 0.  0.
        -24    2    4    4    0    0 -0.17431073463E+03  0.29249560002E+02 -0.78662893022E+01  0.19513822445E+03  0.82324231945E+02 0.  0.
         11    1    3    3    0    0  0.84530647223E+00  0.23814219275E+01  0.89767727713E+01  0.93256722448E+01  0.00000000000E+00 0. -1.
        -11    1    3    3    0    0 -0.16401142767E+03 -0.13987557093E+03 -0.13297403648E+03  0.25327261622E+03  0.00000000000E+00 0.  1.
          4    1    4    4  502    0  0.15745346793E+03 -0.14022438671E+02 -0.69085901846E+03  0.70871320486E+03  0.00000000000E+00 0. -1.
          3    1    5    5  503    0 -0.81316719297E+02  0.42441323314E+02 -0.33707188415E+02  0.97723330442E+02  0.00000000000E+00 0. -1.
         -4    1    5    5    0  503 -0.92994015336E+02 -0.13191763312E+02  0.25840899112E+02  0.97414894007E+02  0.00000000000E+00 0.  1.
         -3    1    4    4    0  502  0.18002338790E+03  0.12226702768E+03 -0.11149740945E+04  0.11360127101E+04  0.00000000000E+00 0.  1.
<mgrwt>
<rscale>  0 0.12436498E+04</rscale>
<asrwt>0</asrwt>
<pdfrwt beam="1">  1        2 0.32616606E+00 0.12436498E+04</pdfrwt>
<pdfrwt beam="2">  1       -2 0.28058907E-01 0.12436498E+04</pdfrwt>
<totfact> 0.65543562E+01</totfact>
</mgrwt>
</event>
<event>
12    1  0.2404191E-008  0.1541326E+04  0.7818608E-02  0.8857427E-01
          2   -1    0    0  501    0  0.00000000000E+00  0.00000000000E+00  0.25568622188E+04  0.25568622188E+04  0.00000000000E+00 0. -1.
         -2   -1    0    0    0  501 -0.00000000000E+00 -0.00000000000E+00 -0.23228539280E+03  0.23228539280E+03  0.00000000000E+00 0.  1.
         23    2    1    2    0    0 -0.30463312129E+02 -0.48117596780E+03  0.10110370887E+04  0.11236078251E+04  0.88545042043E+02 0.  0.
        254    2    1    2    0    0  0.30463312129E+02  0.48117596780E+03  0.13135397372E+04  0.16655397865E+04  0.90342559939E+03 0.  0.
        -24    2    4    4    0    0 -0.41456766901E+03  0.28904706358E+03  0.51172779732E+03  0.72342764255E+03  0.77895175080E+02 0.  0.
         24    2    4    4    0    0  0.44503098114E+03  0.19212890422E+03  0.80181193992E+03  0.94211214392E+03  0.98523168408E+02 0.  0.
         11    1    3    3    0    0  0.14109752081E+02 -0.77998013293E+02  0.23409178009E+03  0.24714719639E+03  0.00000000000E+00 0.  1.
        -11    1    3    3    0    0 -0.44573064210E+02 -0.40317795451E+03  0.77694530866E+03  0.87646062873E+03  0.00000000000E+00 0. -1.
          4    1    6    6  502    0  0.30532658387E+03  0.14972948519E+03  0.63583680674E+03  0.72106288655E+03  0.00000000000E+00 0. -1.
          3    1    5    5  503    0 -0.35658900768E+02  0.23290240406E+02  0.16702847684E+02  0.45749072372E+02  0.00000000000E+00 0. -1.
         -4    1    5    5    0  503 -0.37890876825E+03  0.26575682318E+03  0.49502494964E+03  0.67767857018E+03  0.00000000000E+00 0.  1.
         -3    1    6    6    0  502  0.13970439727E+03  0.42399419032E+02  0.16597513318E+03  0.22104925737E+03  0.00000000000E+00 0.  1.
<mgrwt>
<rscale>  0 0.15413264E+04</rscale>
<asrwt>0</asrwt>
<pdfrwt beam="1">  1        2 0.39336340E+00 0.15413264E+04</pdfrwt>
<pdfrwt beam="2">  1       -2 0.35736216E-01 0.15413264E+04</pdfrwt>
<totfact> 0.22935273E+01</totfact>
</mgrwt>
</event>
<event>
11    1  0.2404191E-008  0.3129502E+04  0.7818608E-02  0.8207688E-01
          1   -1    0    0  501    0  0.00000000000E+00  0.00000000000E+00  0.26083899174E+04  0.26083899174E+04  0.00000000000E+00 0. -1.
         -1   -1    0    0    0  501 -0.00000000000E+00 -0.00000000000E+00 -0.93868084571E+03  0.93868084571E+03  0.00000000000E+00 0.  1.
         23    2    1    2    0    0 -0.78872226713E+03 -0.73015891561E+03  0.18286819817E+04  0.21230658382E+04  0.90088326216E+02 0.  0.
        254    2    1    2    0    0  0.78872226713E+03  0.73015891561E+03 -0.15897291002E+03  0.14240049249E+04  0.92049051231E+03 0.  0.
        -24    2    4    4    0    0  0.34232083845E+03  0.59686378308E+03 -0.47082288236E+03  0.83818543823E+03  0.86317497123E+02 0.  0.
         11    1    3    3    0    0 -0.77066676813E+03 -0.72291401937E+03  0.18112676771E+04  0.20969555419E+04  0.00000000000E+00 0. -1.
        -11    1    3    3    0    0 -0.18055499005E+02 -0.72448962376E+01  0.17414304621E+02  0.26110296269E+02  0.00000000000E+00 0.  1.
          4    1    4    4  502    0  0.45513101300E+03  0.10609064910E+03  0.29491303769E+03  0.55260579496E+03  0.00000000000E+00 0. -1.
          1    1    5    5  503    0  0.33320789374E+03  0.53700231238E+03 -0.44139373000E+03  0.77086147188E+03  0.00000000000E+00 0. -1.
         -2    1    5    5    0  503  0.91129447136E+01  0.59861470696E+02 -0.29429152366E+02  0.67323966343E+02  0.00000000000E+00 0.  1.
         -3    1    4    4    0  502 -0.87295843181E+01  0.27204483425E+02  0.16936934654E+02  0.33213691699E+02  0.00000000000E+00 0.  1.
<mgrwt>
<rscale>  0 0.31295020E+04</rscale>
<asrwt>0</asrwt>
<pdfrwt beam="1">  1        1 0.40129075E+00 0.31295020E+04</pdfrwt>
<pdfrwt beam="2">  1       -1 0.14441244E+00 0.31295020E+04</pdfrwt>
<totfact> 0.36989079E-01</totfact>
</mgrwt>
</event>
<event>
11    1  0.2404191E-008  0.1432756E+04  0.7818608E-02  0.8930443E-01
          1   -1    0    0  501    0  0.00000000000E+00  0.00000000000E+00  0.44878307963E+03  0.44878307963E+03  0.00000000000E+00 0. -1.
         -1   -1    0    0    0  501 -0.00000000000E+00 -0.00000000000E+00 -0.11435316989E+04  0.11435316989E+04  0.00000000000E+00 0.  1.
         23    2    1    2    0    0  0.52992871549E+02  0.97893515441E+02  0.25259360538E+03  0.29083565713E+03  0.91599482410E+02 0.  0.
        254    2    1    2    0    0 -0.52992871549E+02 -0.97893515441E+02 -0.94734222463E+03  0.13014791214E+04  0.88543730892E+03 0.  0.
        -24    2    4    4    0    0 -0.42249541167E+03  0.32761593463E+02 -0.44129341704E+03  0.61686138714E+03  0.78755292759E+02 0.  0.
         13    1    3    3    0    0  0.23301913186E+02  0.10926337899E+03  0.20744336146E+03  0.23561454403E+03  0.00000000000E+00 0. -1.
        -13    1    3    3    0    0  0.29690958363E+02 -0.11369863544E+02  0.45150243922E+02  0.55221113098E+02  0.00000000000E+00 0.  1.
          2    1    4    4  502    0  0.13146202014E+03 -0.13656982488E+03 -0.10106615475E+03  0.21482073327E+03  0.00000000000E+00 0. -1.
          1    1    5    5  503    0 -0.52930824074E+02  0.18958824461E+01 -0.22712541278E+02  0.57629211679E+02  0.00000000000E+00 0. -1.
         -2    1    5    5    0  503 -0.36956458759E+03  0.30865711017E+02 -0.41858087576E+03  0.55923217546E+03  0.00000000000E+00 0.  1.
         -1    1    4    4    0  502  0.23804051998E+03  0.59147159794E+01 -0.40498265284E+03  0.46979700097E+03  0.00000000000E+00 0.  1.
<mgrwt>
<rscale>  0 0.14327563E+04</rscale>
<asrwt>0</asrwt>
<pdfrwt beam="1">  1        1 0.69043551E-01 0.14327563E+04</pdfrwt>
<pdfrwt beam="2">  1       -1 0.17592795E+00 0.14327563E+04</pdfrwt>
<totfact> 0.11129714E+01</totfact>
</mgrwt>
</event>
<event>
12    1  0.2463211E-008  0.1617205E+04  0.7818608E-02  0.8810048E-01
         -2   -1    0    0    0  501 -0.00000000000E+00  0.00000000000E+00  0.28428885955E+03  0.28428885955E+03  0.00000000000E+00 0.  1.
          2   -1    0    0  501    0  0.00000000000E+00 -0.00000000000E+00 -0.22999061412E+04  0.22999061412E+04  0.00000000000E+00 0. -1.
         23    2    1    2    0    0  0.33642758083E+03  0.36940377284E+03 -0.10933683027E+04  0.12056612848E+04  0.92315890533E+02 0.  0.
        254    2    1    2    0    0 -0.33642758083E+03 -0.36940377284E+03 -0.92224897891E+03  0.13785337160E+04  0.89452186249E+03 0.  0.
        -24    2    4    4    0    0 -0.36195887580E+03  0.55949284598E+02 -0.18755930698E+02  0.37545517373E+03  0.80437878650E+02 0.  0.
         24    2    4    4    0    0  0.25531294974E+02 -0.42535305743E+03 -0.90349304821E+03  0.10030785423E+04  0.91048356807E+02 0.  0.
         13    1    3    3    0    0  0.32853277697E+03  0.35685205194E+03 -0.10035288850E+04  0.11146063860E+04  0.00000000000E+00 0. -1.
        -13    1    3    3    0    0  0.78948038633E+01  0.12551720895E+02 -0.89839417713E+02  0.91054898827E+02  0.00000000000E+00 0.  1.
          4    1    6    6  502    0  0.28958285424E+02 -0.27045852915E+03 -0.47406716791E+03  0.54655839393E+03  0.00000000000E+00 0. -1.
          3    1    5    5  503    0 -0.27107063012E+03  0.76787068371E+02 -0.13403051367E+02  0.28205528211E+03  0.00000000000E+00 0. -1.
         -4    1    5    5    0  503 -0.90888245687E+02 -0.20837783773E+02 -0.53528793311E+01  0.93399891615E+02  0.00000000000E+00 0.  1.
         -3    1    6    6    0  502 -0.34269904503E+01 -0.15489452828E+03 -0.42942588030E+03  0.45652014833E+03  0.00000000000E+00 0.  1.
<mgrwt>
<rscale>  0 0.16172046E+04</rscale>
<asrwt>0</asrwt>
<pdfrwt beam="1">  1        2 0.35383173E+00 0.16172046E+04</pdfrwt>
<pdfrwt beam="2">  1       -2 0.43736746E-01 0.16172046E+04</pdfrwt>
<totfact> 0.21549250E+01</totfact>
</mgrwt>
</event>
<event>
11    1  0.2404191E-008  0.1494824E+04  0.7818608E-02  0.8887902E-01
         -1   -1    0    0    0  501 -0.00000000000E+00  0.00000000000E+00  0.69602684913E+03  0.69602684913E+03  0.00000000000E+00 0.  1.
          1   -1    0    0  501    0  0.00000000000E+00 -0.00000000000E+00 -0.80259051738E+03  0.80259051738E+03  0.00000000000E+00 0. -1.
         23    2    1    2    0    0  0.24666947467E+03 -0.36242041149E+03 -0.22151758676E+03  0.50009307223E+03  0.93960924041E+02 0.  0.
        254    2    1    2    0    0 -0.24666947467E+03  0.36242041149E+03  0.11495391852E+03  0.99852429428E+03  0.88974264734E+03 0.  0.
        -24    2    4    4    0    0 -0.53230026916E+03  0.31959379303E+03 -0.79140548016E+02  0.63103517636E+03  0.80364161054E+02 0.  0.
         13    1    3    3    0    0  0.14988850835E+03 -0.13711316936E+03 -0.10055891749E+03  0.22666866134E+03  0.00000000000E+00 0.  1.
        -13    1    3    3    0    0  0.96780966329E+02 -0.22530724213E+03 -0.12095866927E+03  0.27342441089E+03  0.00000000000E+00 0. -1.
          4    1    4    4  502    0  0.28840020426E+03  0.29767701496E+02  0.16061933053E+03  0.33145039328E+03  0.00000000000E+00 0. -1.
          3    1    5    5  503    0 -0.49612057336E+03  0.31642979891E+03 -0.64839186132E+02  0.59200300760E+03  0.00000000000E+00 0. -1.
         -4    1    5    5    0  503 -0.36179695799E+02  0.31639941196E+01 -0.14301361884E+02  0.39032168767E+02  0.00000000000E+00 0.  1.
         -3    1    4    4    0  502 -0.27694097716E+01  0.13058916968E+02  0.33475136005E+02  0.36038724637E+02  0.00000000000E+00 0.  1.
<mgrwt>
<rscale>  0 0.14948238E+04</rscale>
<asrwt>0</asrwt>
<pdfrwt beam="1">  1        1 0.12347546E+00 0.14948238E+04</pdfrwt>
<pdfrwt beam="2">  1       -1 0.10708105E+00 0.14948238E+04</pdfrwt>
<totfact> 0.17314326E+01</totfact>
</mgrwt>
</event>
<event>
11    1  0.2404191E-008  0.2008999E+04  0.7818608E-02  0.8602425E-01
         -2   -1    0    0    0  501 -0.00000000000E+00  0.00000000000E+00  0.79226118089E+03  0.79226118089E+03  0.00000000000E+00 0.  1.
          2   -1    0    0  501    0  0.00000000000E+00 -0.00000000000E+00 -0.12735936920E+04  0.12735936920E+04  0.00000000000E+00 0. -1.
         23    2    1    2    0    0 -0.90871102727E+02 -0.13851605703E+03  0.60797158074E+03  0.63737974176E+03  0.95808333981E+02 0.  0.
        254    2    1    2    0    0  0.90871102727E+02  0.13851605703E+03 -0.10893040918E+04  0.14284751311E+04  0.90912790097E+03 0.  0.
        -24    2    4    4    0    0 -0.19710396418E+03 -0.14086729464E+03 -0.31935214976E+03  0.40892032735E+03  0.80848445693E+02 0.  0.
         13    1    3    3    0    0 -0.62528878021E+02 -0.94525113554E+02  0.53908914478E+03  0.55087381831E+03  0.00000000000E+00 0.  1.
        -13    1    3    3    0    0 -0.28342224705E+02 -0.43990943477E+02  0.68882435957E+02  0.86505923454E+02  0.00000000000E+00 0. -1.
          2    1    4    4  502    0  0.15522589873E+03  0.31700228299E+03 -0.14843711110E+03  0.38290873979E+03  0.00000000000E+00 0. -1.
          1    1    5    5  503    0 -0.16349434486E+03 -0.14556131632E+03 -0.29407985484E+03  0.36660804497E+03  0.00000000000E+00 0. -1.
         -2    1    5    5    0  503 -0.33609619317E+02  0.46940216793E+01 -0.25272294914E+02  0.42312282382E+02  0.00000000000E+00 0.  1.
         -1    1    4    4    0  502  0.13274916818E+03 -0.37618931322E+02 -0.62151483094E+03  0.63664606393E+03  0.00000000000E+00 0.  1.
<mgrwt>
<rscale>  0 0.20089986E+04</rscale>
<asrwt>0</asrwt>
<pdfrwt beam="1">  1        2 0.19593749E+00 0.20089986E+04</pdfrwt>
<pdfrwt beam="2">  1       -2 0.12188634E+00 0.20089986E+04</pdfrwt>
<totfact> 0.81243565E+00</totfact>
</mgrwt>
</event>
<event>
12    1  0.2404191E-008  0.1729642E+04  0.7818608E-02  0.8744637E-01
          1   -1    0    0  501    0  0.00000000000E+00  0.00000000000E+00  0.13907209827E+04  0.13907209827E+04  0.00000000000E+00 0.  1.
         -1   -1    0    0    0  501 -0.00000000000E+00 -0.00000000000E+00 -0.53778936349E+03  0.53778936349E+03  0.00000000000E+00 0. -1.
         23    2    1    2    0    0  0.21650581624E+03 -0.49969225089E+03  0.64525246652E+03  0.84921219445E+03  0.90793675918E+02 0.  0.
        254    2    1    2    0    0 -0.21650581624E+03  0.49969225089E+03  0.20767915270E+03  0.10792981517E+04  0.90839790611E+03 0.  0.
        -24    2    4    4    0    0 -0.38516198835E+03  0.64469404032E+03  0.31196117660E+03  0.81724640772E+03  0.81189607259E+02 0.  0.
         24    2    4    4    0    0  0.16865617211E+03 -0.14500178943E+03 -0.10428202390E+03  0.26205174402E+03  0.91246658604E+02 0.  0.
         11    1    3    3    0    0  0.16673579822E+03 -0.27463213041E+03  0.36151002389E+03  0.48364566662E+03  0.00000000000E+00 0.  1.
        -11    1    3    3    0    0  0.49770018019E+02 -0.22506012048E+03  0.28374244263E+03  0.36556652783E+03  0.00000000000E+00 0. -1.
          4    1    6    6  502    0  0.13355507739E+03 -0.68855874058E+02 -0.94811174529E+02  0.17767174481E+03  0.00000000000E+00 0. -1.
          1    1    5    5  503    0 -0.18369063260E+03  0.33794483546E+03  0.20012720680E+03  0.43358950543E+03  0.00000000000E+00 0. -1.
         -2    1    5    5    0  503 -0.20147135575E+03  0.30674920486E+03  0.11183396980E+03  0.38365690229E+03  0.00000000000E+00 0.  1.
         -3    1    6    6    0  502  0.35101094722E+02 -0.76145915376E+02 -0.94708493702E+01  0.84379999211E+02  0.00000000000E+00 0.  1.
<mgrwt>
<rscale>  0 0.17296415E+04</rscale>
<asrwt>0</asrwt>
<pdfrwt beam="1">  1        1 0.21395707E+00 0.17296415E+04</pdfrwt>
<pdfrwt beam="2">  1       -1 0.82736826E-01 0.17296415E+04</pdfrwt>
<totfact> 0.10745207E+01</totfact>
</mgrwt>
</event>
<event>
12    1  0.2404191E-008  0.1292540E+04  0.7818608E-02  0.9035502E-01
          2   -1    0    0  501    0  0.00000000000E+00  0.00000000000E+00  0.41260067633E+04  0.41260067633E+04  0.00000000000E+00 0. -1.
         -2   -1    0    0    0  501 -0.00000000000E+00 -0.00000000000E+00 -0.10122741629E+03  0.10122741629E+03  0.00000000000E+00 0.  1.
         23    2    1    2    0    0 -0.31223995031E+02 -0.31179987931E+03  0.18683659437E+04  0.18969375303E+04  0.96884424699E+02 0.  0.
        254    2    1    2    0    0  0.31223995031E+02  0.31179987931E+03  0.21564134033E+04  0.23302966493E+04  0.82581451006E+03 0.  0.
        -24    2    4    4    0    0 -0.47732958802E+02 -0.11022787399E+03  0.16623739253E+04  0.16686146639E+04  0.79744651464E+02 0.  0.
         24    2    4    4    0    0  0.78956953834E+02  0.42202775329E+03  0.49403947803E+03  0.66168198541E+03  0.96986694230E+02 0.  0.
         11    1    3    3    0    0 -0.24548520828E+02 -0.23488309586E+03  0.11217379422E+04  0.11463283603E+04  0.00000000000E+00 0.  1.
        -11    1    3    3    0    0 -0.66754742034E+01 -0.76916783446E+02  0.74662800147E+03  0.75060917001E+03  0.00000000000E+00 0. -1.
          4    1    6    6  502    0  0.18033255786E+02  0.23604673907E+03  0.20818637739E+03  0.31525359486E+03  0.00000000000E+00 0. -1.
          3    1    5    5  503    0  0.16044921384E+01  0.96042458906E+01  0.28276974106E+03  0.28293734711E+03  0.00000000000E+00 0. -1.
         -4    1    5    5    0  503 -0.49337450941E+02 -0.11983211988E+03  0.13796041842E+04  0.13856773167E+04  0.00000000000E+00 0.  1.
         -3    1    6    6    0  502  0.60923698048E+02  0.18598101422E+03  0.28585310065E+03  0.34642839056E+03  0.00000000000E+00 0.  1.
<mgrwt>
<rscale>  0 0.12925401E+04</rscale>
<asrwt>0</asrwt>
<pdfrwt beam="1">  1        2 0.63477014E+00 0.12925401E+04</pdfrwt>
<pdfrwt beam="2">  1       -2 0.15573452E-01 0.12925401E+04</pdfrwt>
<totfact> 0.90277742E+00</totfact>
</mgrwt>
</event>
<event>
11    1  0.2404191E-008  0.1350998E+04  0.7818608E-02  0.8990073E-01
          1   -1    0    0  501    0  0.00000000000E+00  0.00000000000E+00  0.50957647571E+03  0.50957647571E+03  0.00000000000E+00 0. -1.
         -1   -1    0    0    0  501 -0.00000000000E+00 -0.00000000000E+00 -0.89544759516E+03  0.89544759516E+03  0.00000000000E+00 0.  1.
         23    2    1    2    0    0  0.28983761939E+03 -0.29638301153E+02 -0.30750641627E+03  0.43351437109E+03  0.92142494966E+02 0.  0.
        254    2    1    2    0    0 -0.28983761939E+03  0.29638301153E+02 -0.78364703170E+02  0.97150969978E+03  0.92347484836E+03 0.  0.
        -24    2    4    4    0    0 -0.60799455340E+03  0.14087640937E+02 -0.58166639176E+02  0.61660456750E+03  0.83438577159E+02 0.  0.
         11    1    3    3    0    0  0.21912216120E+03  0.89653618189E+01 -0.25939010544E+03  0.33967355805E+03  0.00000000000E+00 0.  1.
        -11    1    3    3    0    0  0.70715458198E+02 -0.38603662972E+02 -0.48116310837E+02  0.93840813038E+02  0.00000000000E+00 0. -1.
          4    1    4    4  502    0  0.33068242102E+03 -0.33834886442E+01 -0.25199805378E+02  0.33165847156E+03  0.00000000000E+00 0. -1.
          3    1    5    5  503    0 -0.15918870651E+03  0.19690280190E+02  0.17778244796E+02  0.16138406799E+03  0.00000000000E+00 0. -1.
         -4    1    5    5    0  503 -0.44880584689E+03 -0.56026392530E+01 -0.75944883972E+02  0.45522049950E+03  0.00000000000E+00 0.  1.
         -3    1    4    4    0  502 -0.12525487015E+02  0.18934148860E+02  0.50017413837E+01  0.23246660725E+02  0.00000000000E+00 0.  1.
<mgrwt>
<rscale>  0 0.13509982E+04</rscale>
<asrwt>0</asrwt>
<pdfrwt beam="1">  1        1 0.78396381E-01 0.13509982E+04</pdfrwt>
<pdfrwt beam="2">  1       -1 0.13776117E+00 0.13509982E+04</pdfrwt>
<totfact> 0.18476101E+01</totfact>
</mgrwt>
</event>
<event>
12    1  0.2851751E-008  0.2210381E+04  0.7818608E-02  0.8514120E-01
         -2   -1    0    0    0  501 -0.00000000000E+00  0.00000000000E+00  0.48796274585E+03  0.48796274585E+03  0.00000000000E+00 0. -1.
          2   -1    0    0  501    0  0.00000000000E+00 -0.00000000000E+00 -0.25031537634E+04  0.25031537634E+04  0.00000000000E+00 0.  1.
         23    2    1    2    0    0  0.28852256381E+03 -0.41683482993E+03 -0.18895637712E+04  0.19583877482E+04  0.88514299807E+02 0.  0.
        254    2    1    2    0    0 -0.28852256381E+03  0.41683482993E+03 -0.12562724633E+03  0.10327287611E+04  0.89092645248E+03 0.  0.
        -24    2    4    4    0    0 -0.24255182593E+03  0.26908352538E+03  0.35881405712E+03  0.51608265584E+03  0.79727336412E+02 0.  0.
         24    2    4    4    0    0 -0.45970737873E+02  0.14775130455E+03 -0.48444130345E+03  0.51664610527E+03  0.91082736388E+02 0.  0.
         13    1    3    3    0    0  0.29001894232E+03 -0.39423102899E+03 -0.17564912430E+04  0.18234008275E+04  0.00000000000E+00 0.  1.
        -13    1    3    3    0    0 -0.14963785168E+01 -0.22603800944E+02 -0.13307252827E+03  0.13498692065E+03  0.00000000000E+00 0. -1.
          2    1    6    6  502    0 -0.51746533770E+02  0.15881131434E+03 -0.44761538541E+03  0.47776382300E+03  0.00000000000E+00 0. -1.
          3    1    5    5  503    0 -0.20067486975E+03  0.19568050441E+03  0.31224326863E+03  0.41959161331E+03  0.00000000000E+00 0. -1.
         -4    1    5    5    0  503 -0.41876956183E+02  0.73403020972E+02  0.46570788491E+02  0.96491042525E+02  0.00000000000E+00 0.  1.
         -1    1    6    6    0  502  0.57757958966E+01 -0.11060009786E+02 -0.36825918046E+02  0.38882282271E+02  0.00000000000E+00 0.  1.
<mgrwt>
<rscale>  0 0.22103808E+04</rscale>
<asrwt>0</asrwt>
<pdfrwt beam="1">  1        2 0.38510058E+00 0.22103808E+04</pdfrwt>
<pdfrwt beam="2">  1       -2 0.75071192E-01 0.22103808E+04</pdfrwt>
<totfact> 0.50449810E+00</totfact>
</mgrwt>
</event>
<event>
11    1  0.2404191E-008  0.2271940E+04  0.7818608E-02  0.8489068E-01
         -1   -1    0    0    0  501 -0.00000000000E+00  0.00000000000E+00  0.55639255241E+03  0.55639255241E+03  0.00000000000E+00 0.  1.
          1   -1    0    0  501    0  0.00000000000E+00 -0.00000000000E+00 -0.23192762189E+04  0.23192762189E+04  0.00000000000E+00 0. -1.
         23    2    1    2    0    0 -0.90351520078E+03  0.22023906499E+03 -0.10610594037E+04  0.14138213273E+04  0.90546802925E+02 0.  0.
        254    2    1    2    0    0  0.90351520078E+03 -0.22023906499E+03 -0.70182426285E+03  0.14618474441E+04  0.88294716151E+03 0.  0.
        -24    2    4    4    0    0  0.42629408374E+03  0.26772500972E+03 -0.53939013711E+02  0.51241223980E+03  0.79079451369E+02 0.  0.
         11    1    3    3    0    0 -0.65246797244E+03  0.15391089489E+03 -0.82371601690E+03  0.10620315886E+04  0.00000000000E+00 0. -1.
        -11    1    3    3    0    0 -0.25104722834E+03  0.66328170098E+02 -0.23734338677E+03  0.35178973869E+03  0.00000000000E+00 0.  1.
          2    1    4    4  502    0  0.42359875735E+03 -0.42930105772E+03 -0.62066611254E+03  0.86542574993E+03  0.00000000000E+00 0. -1.
          3    1    5    5  503    0  0.41774555267E+03  0.25754501683E+03 -0.38831882603E+02  0.49228924178E+03  0.00000000000E+00 0. -1.
         -4    1    5    5    0  503  0.85485310770E+01  0.10179992894E+02 -0.15107131108E+02  0.20122998018E+02  0.00000000000E+00 0.  1.
         -1    1    4    4    0  502  0.53622359685E+02 -0.58663016992E+02 -0.27219136592E+02  0.84009454335E+02  0.00000000000E+00 0.  1.
<mgrwt>
<rscale>  0 0.22719402E+04</rscale>
<asrwt>0</asrwt>
<pdfrwt beam="1">  1        1 0.35681173E+00 0.22719402E+04</pdfrwt>
<pdfrwt beam="2">  1       -1 0.85598854E-01 0.22719402E+04</pdfrwt>
<totfact> 0.22052316E+00</totfact>
</mgrwt>
</event>
<event>
12    1  0.2404191E-008  0.1512238E+04  0.7818608E-02  0.8876355E-01
         -1   -1    0    0    0  501 -0.00000000000E+00  0.00000000000E+00  0.10470677776E+04  0.10470677776E+04  0.00000000000E+00 0.  1.
          1   -1    0    0  501    0  0.00000000000E+00 -0.00000000000E+00 -0.54601620691E+03  0.54601620691E+03  0.00000000000E+00 0. -1.
         23    2    1    2    0    0 -0.36246574107E+03  0.16281235052E+03 -0.10070405045E+03  0.42139174375E+03  0.97675078687E+02 0.  0.
        254    2    1    2    0    0  0.36246574107E+03 -0.16281235052E+03  0.60175562112E+03  0.11716922407E+04  0.92350614752E+03 0.  0.
        -24    2    4    4    0    0  0.48265973298E+03  0.18717015894E+03  0.81710330170E+02  0.53008787451E+03  0.79520377283E+02 0.  0.
         24    2    4    4    0    0 -0.12019399192E+03 -0.34998250946E+03  0.52004529095E+03  0.64160436623E+03  0.65381231978E+02 0.  0.
         13    1    3    3    0    0 -0.32024005292E+03  0.11455989349E+03 -0.10802132580E+03  0.35685608797E+03  0.00000000000E+00 0. -1.
        -13    1    3    3    0    0 -0.42225688143E+02  0.48252457035E+02  0.73172753500E+01  0.64535655785E+02  0.00000000000E+00 0.  1.
          2    1    6    6  502    0 -0.73809933749E+01 -0.16203798051E+02  0.57257977928E+02  0.59962639792E+02  0.00000000000E+00 0. -1.
          1    1    5    5  503    0  0.21721694442E+02  0.15791835120E+02 -0.12096714112E+02  0.29454109360E+02  0.00000000000E+00 0. -1.
         -2    1    5    5    0  503  0.46093803854E+03  0.17137832382E+03  0.93807044282E+02  0.50063376515E+03  0.00000000000E+00 0.  1.
         -1    1    6    6    0  502 -0.11281299854E+03 -0.33377871141E+03  0.46278731303E+03  0.58164172643E+03  0.00000000000E+00 0.  1.
<mgrwt>
<rscale>  0 0.15122380E+04</rscale>
<asrwt>0</asrwt>
<pdfrwt beam="1">  1        1 0.84002494E-01 0.15122380E+04</pdfrwt>
<pdfrwt beam="2">  1       -1 0.16108735E+00 0.15122380E+04</pdfrwt>
<totfact> 0.10860378E+01</totfact>
</mgrwt>
</event>
<event>
12    1  0.2404191E-008  0.2353288E+04  0.7818608E-02  0.8457202E-01
          2   -1    0    0  501    0  0.00000000000E+00  0.00000000000E+00  0.16763079731E+04  0.16763079731E+04  0.00000000000E+00 0. -1.
         -2   -1    0    0    0  501 -0.00000000000E+00 -0.00000000000E+00 -0.82591694740E+03  0.82591694740E+03  0.00000000000E+00 0.  1.
         23    2    1    2    0    0 -0.31443968278E+03 -0.75122326490E+03  0.10139712535E+04  0.13034565396E+04  0.87478797542E+02 0.  0.
        254    2    1    2    0    0  0.31443968278E+03  0.75122326490E+03 -0.16358022781E+03  0.11987683808E+04  0.86433698991E+03 0.  0.
        -24    2    4    4    0    0  0.12021549800E+03 -0.17820440207E+03 -0.80393900419E+02  0.24348904168E+03  0.81333629691E+02 0.  0.
         24    2    4    4    0    0  0.19422418478E+03  0.92942766697E+03 -0.83186327392E+02  0.95527933915E+03  0.63873536388E+02 0.  0.
         13    1    3    3    0    0 -0.31795365820E+03 -0.73296712035E+03  0.97711105664E+03  0.12621732628E+04  0.00000000000E+00 0. -1.
        -13    1    3    3    0    0  0.35139754243E+01 -0.18256144544E+02  0.36860196827E+02  0.41283276845E+02  0.00000000000E+00 0.  1.
          4    1    6    6  502    0  0.16459007576E+03  0.64471019981E+03 -0.56480748910E+02  0.66778080968E+03  0.00000000000E+00 0. -1.
          3    1    5    5  503    0  0.30901960357E+02 -0.47080990356E+02  0.15112226287E+02  0.58308920331E+02  0.00000000000E+00 0. -1.
         -4    1    5    5    0  503  0.89313537639E+02 -0.13112341172E+03 -0.95506126705E+02  0.18518012135E+03  0.00000000000E+00 0.  1.
         -3    1    6    6    0  502  0.29634109020E+02  0.28471746716E+03 -0.26705578482E+02  0.28749852947E+03  0.00000000000E+00 0.  1.
<mgrwt>
<rscale>  0 0.23532881E+04</rscale>
<asrwt>0</asrwt>
<pdfrwt beam="1">  1        2 0.25789353E+00 0.23532881E+04</pdfrwt>
<pdfrwt beam="2">  1       -2 0.12706415E+00 0.23532881E+04</pdfrwt>
<totfact> 0.41994249E+00</totfact>
</mgrwt>
</event>
<event>
12    1  0.2404191E-008  0.1701074E+04  0.7818608E-02  0.8760752E-01
          2   -1    0    0  501    0  0.00000000000E+00  0.00000000000E+00  0.18291022315E+04  0.18291022315E+04  0.00000000000E+00 0. -1.
         -2   -1    0    0    0  501 -0.00000000000E+00 -0.00000000000E+00 -0.39550191124E+03  0.39550191124E+03  0.00000000000E+00 0.  1.
         23    2    1    2    0    0  0.55782756254E+01 -0.25999057017E+03 -0.15532106255E+03  0.31373744736E+03  0.81733344881E+02 0.  0.
        254    2    1    2    0    0 -0.55782756254E+01  0.25999057017E+03  0.15889213828E+04  0.19108666954E+04  0.10291327189E+04 0.  0.
        -24    2    4    4    0    0  0.30196560671E+02  0.50472737801E+03  0.15641397486E+04  0.16456239463E+04  0.76703723152E+02 0.  0.
         24    2    4    4    0    0 -0.35774836297E+02 -0.24473680784E+03  0.24781634223E+02  0.26524274908E+03  0.92539950948E+02 0.  0.
         13    1    3    3    0    0  0.42041912000E+02 -0.15421628999E+03 -0.10357388912E+03  0.19046715457E+03  0.00000000000E+00 0. -1.
        -13    1    3    3    0    0 -0.36463636374E+02 -0.10577428019E+03 -0.51747173431E+02  0.12327029279E+03  0.00000000000E+00 0.  1.
          4    1    6    6  502    0 -0.26680386178E+02 -0.14175437757E+03 -0.31340189090E+02  0.14760878707E+03  0.00000000000E+00 0. -1.
          3    1    5    5  503    0 -0.74614165437E+01  0.39813853556E+03  0.12008910021E+04  0.12651913552E+04  0.00000000000E+00 0. -1.
         -4    1    5    5    0  503  0.37657977215E+02  0.10658884245E+03  0.36324874645E+03  0.38043259112E+03  0.00000000000E+00 0.  1.
         -3    1    6    6    0  502 -0.90944501187E+01 -0.10298243026E+03  0.56121823313E+02  0.11763396201E+03  0.00000000000E+00 0.  1.
<mgrwt>
<rscale>  0 0.17010743E+04</rscale>
<asrwt>0</asrwt>
<pdfrwt beam="1">  1        2 0.28140034E+00 0.17010743E+04</pdfrwt>
<pdfrwt beam="2">  1       -2 0.60846449E-01 0.17010743E+04</pdfrwt>
<totfact> 0.19886072E+01</totfact>
</mgrwt>
</event>
<event>
12    1  0.2404191E-008  0.1770948E+04  0.7818608E-02  0.8721903E-01
          2   -1    0    0  501    0  0.00000000000E+00  0.00000000000E+00  0.68104725793E+03  0.68104725793E+03  0.00000000000E+00 0. -1.
         -2   -1    0    0    0  501 -0.00000000000E+00 -0.00000000000E+00 -0.11512630271E+04  0.11512630271E+04  0.00000000000E+00 0.  1.
         23    2    1    2    0    0  0.13374426420E+03  0.30216054740E+03  0.40983892592E+03  0.53398085878E+03  0.89325739470E+02 0.  0.
        254    2    1    2    0    0 -0.13374426420E+03 -0.30216054740E+03 -0.88005469507E+03  0.12983294262E+04  0.89553029434E+03 0.  0.
        -24    2    4    4    0    0  0.33645329236E+03 -0.30378551817E+03 -0.31529569953E+03  0.55778455947E+03  0.78903597226E+02 0.  0.
         24    2    4    4    0    0 -0.47019755655E+03  0.16249707675E+01 -0.56475899554E+03  0.74054486675E+03  0.91463620701E+02 0.  0.
         13    1    3    3    0    0  0.14117064554E+03  0.23262198932E+03  0.33420362642E+03  0.43096891418E+03  0.00000000000E+00 0. -1.
        -13    1    3    3    0    0 -0.74263813368E+01  0.69538558089E+02  0.75635299499E+02  0.10301194460E+03  0.00000000000E+00 0.  1.
          2    1    6    6  502    0 -0.17448453903E+03 -0.20993617255E+02 -0.27183282472E+03  0.32369533658E+03  0.00000000000E+00 0. -1.
          1    1    5    5  503    0  0.17903089090E+03 -0.18149416693E+03 -0.13246635703E+03  0.28729693397E+03  0.00000000000E+00 0. -1.
         -2    1    5    5    0  503  0.15742240145E+03 -0.12229135125E+03 -0.18282934250E+03  0.27048762550E+03  0.00000000000E+00 0.  1.
         -1    1    6    6    0  502 -0.29571301752E+03  0.22618588022E+02 -0.29292617081E+03  0.41684953017E+03  0.00000000000E+00 0.  1.
<mgrwt>
<rscale>  0 0.17709484E+04</rscale>
<asrwt>0</asrwt>
<pdfrwt beam="1">  1        2 0.10477650E+00 0.17709484E+04</pdfrwt>
<pdfrwt beam="2">  1       -2 0.17711739E+00 0.17709484E+04</pdfrwt>
<totfact> 0.76159017E+00</totfact>
</mgrwt>
</event>
<event>
11    1  0.2404191E-008  0.1399190E+04  0.7818608E-02  0.8954405E-01
          2   -1    0    0  501    0  0.00000000000E+00  0.00000000000E+00  0.19118424629E+04  0.19118424629E+04  0.00000000000E+00 0. -1.
         -2   -1    0    0    0  501 -0.00000000000E+00 -0.00000000000E+00 -0.25600072755E+03  0.25600072755E+03  0.00000000000E+00 0.  1.
         23    2    1    2    0    0  0.22597272568E+03 -0.84900338378E+02  0.67216712549E+03  0.72002238696E+03  0.91388472611E+02 0.  0.
        254    2    1    2    0    0 -0.22597272568E+03  0.84900338378E+02  0.98367460987E+03  0.14478208035E+04  0.10345518840E+04 0.  0.
        -24    2    4    4    0    0 -0.17220602212E+03 -0.61101476199E+02  0.11049274954E+04  0.11228379547E+04  0.80696951492E+02 0.  0.
         13    1    3    3    0    0  0.50188868032E+01 -0.20980635584E+02  0.11900057658E+03  0.12094012370E+03  0.00000000000E+00 0.  1.
        -13    1    3    3    0    0  0.22095383888E+03 -0.63919702794E+02  0.55316654891E+03  0.59908226326E+03  0.00000000000E+00 0. -1.
          4    1    4    4  502    0  0.15277314771E+02 -0.62362809173E+02 -0.78394040571E+02  0.10133184056E+03  0.00000000000E+00 0. -1.
          1    1    5    5  503    0 -0.10870025928E+03 -0.15632915620E+02  0.82288350191E+03  0.83017913255E+03  0.00000000000E+00 0. -1.
         -2    1    5    5    0  503 -0.63505762843E+02 -0.45468560578E+02  0.28204399349E+03  0.29265882214E+03  0.00000000000E+00 0.  1.
         -3    1    4    4    0  502 -0.69044018331E+02  0.20836462375E+03 -0.42858844948E+02  0.22365100824E+03  0.00000000000E+00 0.  1.
<mgrwt>
<rscale>  0 0.13991899E+04</rscale>
<asrwt>0</asrwt>
<pdfrwt beam="1">  1        2 0.29412960E+00 0.13991899E+04</pdfrwt>
<pdfrwt beam="2">  1       -2 0.39384729E-01 0.13991899E+04</pdfrwt>
<totfact> 0.44397330E+01</totfact>
</mgrwt>
</event>
<event>
12    1  0.2404191E-008  0.2355666E+04  0.7818608E-02  0.8456290E-01
         -2   -1    0    0    0  501 -0.00000000000E+00  0.00000000000E+00  0.80001953344E+03  0.80001953344E+03  0.00000000000E+00 0. -1.
          2   -1    0    0  501    0  0.00000000000E+00 -0.00000000000E+00 -0.17340715583E+04  0.17340715583E+04  0.00000000000E+00 0.  1.
         23    2    1    2    0    0 -0.44563489421E+03 -0.16050400471E+03 -0.13467172737E+04  0.14305617921E+04  0.92236822124E+02 0.  0.
        254    2    1    2    0    0  0.44563489421E+03  0.16050400471E+03  0.41266524885E+03  0.11035292996E+04  0.90726639581E+03 0.  0.
        -24    2    4    4    0    0  0.22842612519E+03  0.46234061892E+03 -0.20901632325E+02  0.52245420427E+03  0.81142927930E+02 0.  0.
         24    2    4    4    0    0  0.21720876902E+03 -0.30183661421E+03  0.43356688118E+03  0.58107509532E+03  0.10669130672E+03 0.  0.
         13    1    3    3    0    0 -0.44927118062E+03 -0.15369638311E+03 -0.13244796160E+04  0.14070228943E+04  0.00000000000E+00 0.  1.
        -13    1    3    3    0    0  0.36362864059E+01 -0.68076215923E+01 -0.22237657696E+02  0.23538897816E+02  0.00000000000E+00 0. -1.
          4    1    6    6  502    0  0.12442015951E+03 -0.12592026687E+03  0.27343770952E+03  0.32573681199E+03  0.00000000000E+00 0. -1.
          3    1    5    5  503    0  0.97471731796E+02  0.24073797717E+03 -0.46240236743E+02  0.26380612511E+03  0.00000000000E+00 0. -1.
         -4    1    5    5    0  503  0.13095439339E+03  0.22160264175E+03  0.25338604418E+02  0.25864807916E+03  0.00000000000E+00 0.  1.
         -3    1    6    6    0  502  0.92788609518E+02 -0.17591634734E+03  0.16012917166E+03  0.25533828333E+03  0.00000000000E+00 0.  1.
<mgrwt>
<rscale>  0 0.23556665E+04</rscale>
<asrwt>0</asrwt>
<pdfrwt beam="1">  1        2 0.26678024E+00 0.23556665E+04</pdfrwt>
<pdfrwt beam="2">  1       -2 0.12307993E+00 0.23556665E+04</pdfrwt>
<totfact> 0.42237841E+00</totfact>
</mgrwt>
</event>
<event>
12    1  0.2404191E-008  0.1532647E+04  0.7818608E-02  0.8863029E-01
          1   -1    0    0  501    0  0.00000000000E+00  0.00000000000E+00  0.95392408907E+03  0.95392408907E+03  0.00000000000E+00 0. -1.
         -1   -1    0    0    0  501 -0.00000000000E+00 -0.00000000000E+00 -0.61561655225E+03  0.61561655225E+03  0.00000000000E+00 0.  1.
         23    2    1    2    0    0 -0.50210712746E+02 -0.25599329863E+03  0.54298186284E+03  0.60931155611E+03  0.91529145162E+02 0.  0.
        254    2    1    2    0    0  0.50210712746E+02  0.25599329863E+03 -0.20467432603E+03  0.96022908521E+03  0.90116293295E+03 0.  0.
        -24    2    4    4    0    0  0.14013345076E+03  0.48425867554E+03  0.13863516069E+03  0.52848224145E+03  0.77005992561E+02 0.  0.
         24    2    4    4    0    0 -0.89922738017E+02 -0.22826537691E+03 -0.34330948671E+03  0.43174684376E+03  0.91393393188E+02 0.  0.
         11    1    3    3    0    0 -0.57512363860E+01 -0.73872649766E+02  0.76176630583E+02  0.10626911193E+03  0.00000000000E+00 0.  1.
        -11    1    3    3    0    0 -0.44459476360E+02 -0.18212064887E+03  0.46680523226E+03  0.50304244418E+03  0.00000000000E+00 0. -1.
          2    1    6    6  502    0 -0.19378002512E+02 -0.10099002611E+03 -0.21251460229E+03  0.23608673945E+03  0.00000000000E+00 0. -1.
          3    1    5    5  503    0 -0.46043215562E+00  0.63553270011E+02  0.36533531911E+02  0.73307087521E+02  0.00000000000E+00 0. -1.
         -4    1    5    5    0  503  0.14059388292E+03  0.42070540553E+03  0.10210162878E+03  0.45517515393E+03  0.00000000000E+00 0.  1.
         -1    1    6    6    0  502 -0.70544735505E+02 -0.12727535079E+03 -0.13079488442E+03  0.19566010431E+03  0.00000000000E+00 0.  1.
<mgrwt>
<rscale>  0 0.15326467E+04</rscale>
<asrwt>0</asrwt>
<pdfrwt beam="1">  1        1 0.14675755E+00 0.15326467E+04</pdfrwt>
<pdfrwt beam="2">  1       -1 0.94710238E-01 0.15326467E+04</pdfrwt>
<totfact> 0.17121423E+01</totfact>
</mgrwt>
</event>
<event>
12    1  0.2404191E-008  0.1769946E+04  0.7818608E-02  0.8722447E-01
         -2   -1    0    0    0  501 -0.00000000000E+00  0.00000000000E+00  0.45074738374E+03  0.45074738374E+03  0.00000000000E+00 0.  1.
          2   -1    0    0  501    0  0.00000000000E+00 -0.00000000000E+00 -0.17375088992E+04  0.17375088992E+04  0.00000000000E+00 0. -1.
         23    2    1    2    0    0 -0.39902668122E+03  0.40581818665E+03 -0.87252722716E+03  0.10457267658E+04  0.91268908695E+02 0.  0.
        254    2    1    2    0    0  0.39902668122E+03 -0.40581818665E+03 -0.41423428827E+03  0.11425295171E+04  0.89992941884E+03 0.  0.
        -24    2    4    4    0    0  0.14735464977E+03  0.10942874192E+03  0.21220826585E+03  0.29123316347E+03  0.78079222853E+02 0.  0.
         24    2    4    4    0    0  0.25167203145E+03 -0.51524692857E+03 -0.62644255412E+03  0.85129635362E+03  0.58796252102E+02 0.  0.
         13    1    3    3    0    0 -0.60757151200E+02  0.26385425005E+02 -0.75955389767E+02  0.10078116545E+03  0.00000000000E+00 0.  1.
        -13    1    3    3    0    0 -0.33826953002E+03  0.37943276165E+03 -0.79657183739E+03  0.94494560038E+03  0.00000000000E+00 0. -1.
          2    1    6    6  502    0  0.12933032628E+03 -0.26225099858E+03 -0.27599765185E+03  0.40209031744E+03  0.00000000000E+00 0. -1.
          1    1    5    5  503    0  0.19022482923E+02 -0.45192952069E+01  0.55454277746E+02  0.58800134405E+02  0.00000000000E+00 0. -1.
         -2    1    5    5    0  503  0.12833216685E+03  0.11394803713E+03  0.15675398810E+03  0.23243302906E+03  0.00000000000E+00 0.  1.
         -1    1    6    6    0  502  0.12234170517E+03 -0.25299592999E+03 -0.35044490226E+03  0.44920603618E+03  0.00000000000E+00 0.  1.
<mgrwt>
<rscale>  0 0.17699464E+04</rscale>
<asrwt>0</asrwt>
<pdfrwt beam="1">  1        2 0.26730906E+00 0.17699464E+04</pdfrwt>
<pdfrwt beam="2">  1       -2 0.69345751E-01 0.17699464E+04</pdfrwt>
<totfact> 0.16781427E+01</totfact>
</mgrwt>
</event>
<event>
12    1  0.2404191E-008  0.1658903E+04  0.7818608E-02  0.8785157E-01
         -2   -1    0    0    0  501 -0.00000000000E+00  0.00000000000E+00  0.94232987870E+03  0.94232987870E+03  0.00000000000E+00 0.  1.
          2   -1    0    0  501    0  0.00000000000E+00 -0.00000000000E+00 -0.73009477159E+03  0.73009477159E+03  0.00000000000E+00 0. -1.
         23    2    1    2    0    0 -0.87261731287E+02 -0.56377396212E+03 -0.34758088367E+02  0.57938004722E+03  0.94960119507E+02 0.  0.
        254    2    1    2    0    0  0.87261731287E+02  0.56377396212E+03  0.24699319547E+03  0.10930446031E+04  0.89904681502E+03 0.  0.
        -24    2    4    4    0    0 -0.17495241604E+03 -0.20171504301E+02  0.38665153283E+03  0.43166658248E+03  0.76298054538E+02 0.  0.
         24    2    4    4    0    0  0.26221414733E+03  0.58394546642E+03 -0.13965833736E+03  0.66137802059E+03  0.90376258627E+02 0.  0.
         11    1    3    3    0    0 -0.32367359754E+01 -0.80295172979E+01  0.12644340414E+02  0.15324129741E+02  0.00000000000E+00 0. -1.
        -11    1    3    3    0    0 -0.84024995312E+02 -0.55574444482E+03 -0.47402428781E+02  0.56405591747E+03  0.00000000000E+00 0.  1.
          2    1    6    6  502    0  0.98972802323E+02  0.14926721137E+03 -0.10390818476E+02  0.17939979125E+03  0.00000000000E+00 0. -1.
          3    1    5    5  503    0 -0.44846157337E+01  0.87671752714E+01  0.71707593789E+02  0.72380619972E+02  0.00000000000E+00 0. -1.
         -4    1    5    5    0  503 -0.17046780031E+03 -0.28938679572E+02  0.31494393904E+03  0.35928596251E+03  0.00000000000E+00 0.  1.
         -1    1    6    6    0  502  0.16324134501E+03  0.43467825504E+03 -0.12926751888E+03  0.48197822935E+03  0.00000000000E+00 0.  1.
<mgrwt>
<rscale>  0 0.16589034E+04</rscale>
<asrwt>0</asrwt>
<pdfrwt beam="1">  1        2 0.11232227E+00 0.16589034E+04</pdfrwt>
<pdfrwt beam="2">  1       -2 0.14497383E+00 0.16589034E+04</pdfrwt>
<totfact> 0.12145459E+01</totfact>
</mgrwt>
</event>
<event>
12    1  0.2404191E-008  0.1502280E+04  0.7818608E-02  0.8882938E-01
          1   -1    0    0  501    0  0.00000000000E+00  0.00000000000E+00  0.27862743253E+03  0.27862743253E+03  0.00000000000E+00 0. -1.
         -1   -1    0    0    0  501 -0.00000000000E+00 -0.00000000000E+00 -0.20249673470E+04  0.20249673470E+04  0.00000000000E+00 0.  1.
         23    2    1    2    0    0  0.31134554171E+03 -0.16683538871E+03 -0.10487989580E+04  0.11105426220E+04  0.92496311460E+02 0.  0.
        254    2    1    2    0    0 -0.31134554171E+03  0.16683538871E+03 -0.69754095645E+03  0.11930521575E+04  0.90113260480E+03 0.  0.
        -24    2    4    4    0    0  0.19730976945E+03  0.20060071732E+03  0.34483123975E+02  0.29506888174E+03  0.81882636864E+02 0.  0.
         24    2    4    4    0    0 -0.50865531116E+03 -0.33765328608E+02 -0.73202408043E+03  0.89798327581E+03  0.10317163524E+03 0.  0.
         11    1    3    3    0    0  0.13525626747E+03 -0.12167146231E+03 -0.47567997259E+03  0.50928345639E+03  0.00000000000E+00 0. -1.
        -11    1    3    3    0    0  0.17608927424E+03 -0.45163926395E+02 -0.57311898540E+03  0.60125916556E+03  0.00000000000E+00 0.  1.
          2    1    6    6  502    0 -0.28341545200E+03 -0.69836012556E+02 -0.40182020122E+03  0.49664963625E+03  0.00000000000E+00 0. -1.
          1    1    5    5  503    0  0.18083178047E+03  0.18638043636E+03  0.66987978753E+01  0.25977427466E+03  0.00000000000E+00 0. -1.
         -2    1    5    5    0  503  0.16477988988E+02  0.14220280957E+02  0.27784326099E+02  0.35294607072E+02  0.00000000000E+00 0.  1.
         -1    1    6    6    0  502 -0.22523985916E+03  0.36070683948E+02 -0.33020387921E+03  0.40133363956E+03  0.00000000000E+00 0.  1.
<mgrwt>
<rscale>  0 0.15022802E+04</rscale>
<asrwt>0</asrwt>
<pdfrwt beam="1">  1        1 0.42865758E-01 0.15022802E+04</pdfrwt>
<pdfrwt beam="2">  1       -1 0.31153344E+00 0.15022802E+04</pdfrwt>
<totfact> 0.26034328E+00</totfact>
</mgrwt>
</event>
<event>
12    1  0.2404191E-008  0.3626162E+04  0.7818608E-02  0.8084525E-01
         -2   -1    0    0    0  501 -0.00000000000E+00  0.00000000000E+00  0.12908262447E+04  0.12908262447E+04  0.00000000000E+00 0.  1.
          2   -1    0    0  501    0  0.00000000000E+00 -0.00000000000E+00 -0.25466343383E+04  0.25466343383E+04  0.00000000000E+00 0. -1.
         23    2    1    2    0    0  0.19447692804E+03 -0.87315366583E+03  0.94053489897E+03  0.13010345858E+04  0.88693277641E+02 0.  0.
        254    2    1    2    0    0 -0.19447692804E+03  0.87315366583E+03 -0.21963429925E+04  0.25364259972E+04  0.89961975227E+03 0.  0.
        -24    2    4    4    0    0  0.30141393099E+03  0.11268255380E+03 -0.38988897377E+03  0.51194917463E+03  0.80813549716E+02 0.  0.
         24    2    4    4    0    0 -0.49589085903E+03  0.76047111203E+03 -0.18064540188E+04  0.20244768226E+04  0.10491056589E+03 0.  0.
         11    1    3    3    0    0  0.19145011677E+03 -0.82711563659E+03  0.91541379776E+03  0.12485014396E+04  0.00000000000E+00 0.  1.
        -11    1    3    3    0    0  0.30268112740E+01 -0.46038029240E+02  0.25121101210E+02  0.52533146192E+02  0.00000000000E+00 0. -1.
          2    1    6    6  502    0 -0.38954212902E+03  0.52401635218E+03 -0.13471913713E+04  0.14970840987E+04  0.00000000000E+00 0. -1.
          1    1    5    5  503    0  0.30069409426E+03  0.96821092481E+02 -0.37059301291E+03  0.48696041265E+03  0.00000000000E+00 0. -1.
         -2    1    5    5    0  503  0.71983673311E+00  0.15861461320E+02 -0.19295960856E+02  0.24988761984E+02  0.00000000000E+00 0.  1.
         -1    1    6    6    0  502 -0.10634873001E+03  0.23645475984E+03 -0.45926264747E+03  0.52739272387E+03  0.00000000000E+00 0.  1.
<mgrwt>
<rscale>  0 0.36261618E+04</rscale>
<asrwt>0</asrwt>
<pdfrwt beam="1">  1        2 0.39178990E+00 0.36261618E+04</pdfrwt>
<pdfrwt beam="2">  1       -2 0.19858865E+00 0.36261618E+04</pdfrwt>
<totfact> 0.36134644E-01</totfact>
</mgrwt>
</event>
<event>
11    1  0.2404191E-008  0.2250018E+04  0.7818608E-02  0.8497893E-01
         -1   -1    0    0    0  501 -0.00000000000E+00  0.00000000000E+00  0.32863196564E+04  0.32863196564E+04  0.00000000000E+00 0.  1.
          1   -1    0    0  501    0  0.00000000000E+00 -0.00000000000E+00 -0.38512529944E+03  0.38512529944E+03  0.00000000000E+00 0. -1.
         23    2    1    2    0    0  0.20201564002E+03 -0.50065855404E+03  0.24806280661E+04  0.25404105648E+04  0.93278768985E+02 0.  0.
        254    2    1    2    0    0 -0.20201564002E+03  0.50065855404E+03  0.42056629083E+03  0.11310343911E+04  0.90049624219E+03 0.  0.
        -24    2    4    4    0    0  0.52874697428E+02  0.59066770200E+03  0.54860917553E+03  0.81180278779E+03  0.79797687760E+02 0.  0.
         11    1    3    3    0    0  0.89700529863E+02 -0.21373334999E+03  0.85639026668E+03  0.88720483476E+03  0.00000000000E+00 0. -1.
        -11    1    3    3    0    0  0.11231511016E+03 -0.28692520405E+03  0.16242377994E+04  0.16532057300E+04  0.00000000000E+00 0.  1.
          2    1    4    4  502    0 -0.72872889806E+02 -0.80151998214E+02 -0.30746853859E+02  0.11260626052E+03  0.00000000000E+00 0. -1.
          3    1    5    5  503    0 -0.11450026091E+02  0.22167699293E+02  0.34821486170E+02  0.42837435597E+02  0.00000000000E+00 0. -1.
         -4    1    5    5    0  503  0.64324723518E+02  0.56850000270E+03  0.51378768936E+03  0.76896535219E+03  0.00000000000E+00 0.  1.
         -1    1    4    4    0  502 -0.18201744764E+03 -0.98571497438E+01 -0.97296030836E+02  0.20662534274E+03  0.00000000000E+00 0.  1.
<mgrwt>
<rscale>  0 0.22500176E+04</rscale>
<asrwt>0</asrwt>
<pdfrwt beam="1">  1        1 0.59250048E-01 0.22500176E+04</pdfrwt>
<pdfrwt beam="2">  1       -1 0.50558762E+00 0.22500176E+04</pdfrwt>
<totfact> 0.78199716E-02</totfact>
</mgrwt>
</event>
<event>
11    1  0.2404191E-008  0.1356389E+04  0.7818608E-02  0.8986006E-01
         -2   -1    0    0    0  501 -0.00000000000E+00  0.00000000000E+00  0.67082229399E+03  0.67082229399E+03  0.00000000000E+00 0.  1.
          2   -1    0    0  501    0  0.00000000000E+00 -0.00000000000E+00 -0.68564795028E+03  0.68564795028E+03  0.00000000000E+00 0. -1.
         23    2    1    2    0    0  0.16960618179E+03 -0.32537254627E+03 -0.56630324520E+02  0.38247170845E+03  0.91891584709E+02 0.  0.
        254    2    1    2    0    0 -0.16960618179E+03  0.32537254627E+03  0.41804668228E+02  0.97399853582E+03  0.90127241538E+03 0.  0.
        -24    2    4    4    0    0 -0.15125997849E+03 -0.14883722587E+03  0.33278183029E+03  0.40280317712E+03  0.80464601096E+02 0.  0.
         11    1    3    3    0    0  0.12022496853E+03 -0.25789798773E+03 -0.57674826554E+01  0.28460266862E+03  0.00000000000E+00 0. -1.
        -11    1    3    3    0    0  0.49381213256E+02 -0.67474558543E+02 -0.50862841865E+02  0.97869039822E+02  0.00000000000E+00 0.  1.
          4    1    4    4  502    0 -0.21405038790E+01  0.46814038811E+03 -0.25945457633E+03  0.53523516506E+03  0.00000000000E+00 0. -1.
          1    1    5    5  503    0 -0.12983046832E+03 -0.15482297519E+03  0.27796747614E+03  0.34364519776E+03  0.00000000000E+00 0. -1.
         -2    1    5    5    0  503 -0.21429510173E+02  0.59857493256E+01  0.54814354143E+02  0.59157979355E+02  0.00000000000E+00 0.  1.
         -3    1    4    4    0  502 -0.16205699415E+02  0.60693840207E+01 -0.31522585728E+02  0.35960193644E+02  0.00000000000E+00 0.  1.
<mgrwt>
<rscale>  0 0.13563892E+04</rscale>
<asrwt>0</asrwt>
<pdfrwt beam="1">  1        2 0.10548430E+00 0.13563892E+04</pdfrwt>
<pdfrwt beam="2">  1       -2 0.10320343E+00 0.13563892E+04</pdfrwt>
<totfact> 0.31467763E+01</totfact>
</mgrwt>
</event>
<event>
12    1  0.2404191E-008  0.1953676E+04  0.7818608E-02  0.8628590E-01
          1   -1    0    0  501    0  0.00000000000E+00  0.00000000000E+00  0.13166950351E+04  0.13166950351E+04  0.00000000000E+00 0. -1.
         -1   -1    0    0    0  501 -0.00000000000E+00 -0.00000000000E+00 -0.72470280553E+03  0.72470280553E+03  0.00000000000E+00 0.  1.
         23    2    1    2    0    0 -0.18439940709E+03  0.38736503217E+03  0.88794329174E+03  0.99034317492E+03  0.91002776288E+02 0.  0.
        254    2    1    2    0    0  0.18439940709E+03 -0.38736503217E+03 -0.29595106213E+03  0.10510546658E+04  0.91272891361E+03 0.  0.
        -24    2    4    4    0    0 -0.89618730459E+02 -0.13174033990E+03 -0.55654118424E+03  0.58426534277E+03  0.78999158233E+02 0.  0.
         24    2    4    4    0    0  0.27401813755E+03 -0.25562469227E+03  0.26059012211E+03  0.46678932299E+03  0.97750382625E+02 0.  0.
         11    1    3    3    0    0 -0.16269285007E+03  0.34804259749E+03  0.71522478681E+03  0.81187998424E+03  0.00000000000E+00 0. -1.
        -11    1    3    3    0    0 -0.21706557023E+02  0.39322434679E+02  0.17271850493E+03  0.17846319069E+03  0.00000000000E+00 0.  1.
          2    1    6    6  502    0  0.16186847195E+03 -0.17676856725E+03  0.21591668174E+03  0.32259656234E+03  0.00000000000E+00 0. -1.
          3    1    5    5  503    0 -0.92463368962E+02 -0.69977298299E+02 -0.35597910730E+03  0.37438939850E+03  0.00000000000E+00 0. -1.
         -2    1    5    5    0  503  0.28446385024E+01 -0.61763041598E+02 -0.20056207694E+03  0.20987594427E+03  0.00000000000E+00 0.  1.
         -1    1    6    6    0  502  0.11214966561E+03 -0.78856125019E+02  0.44673440375E+02  0.14419276065E+03  0.00000000000E+00 0.  1.
<mgrwt>
<rscale>  0 0.19536761E+04</rscale>
<asrwt>0</asrwt>
<pdfrwt beam="1">  1        1 0.20256847E+00 0.19536761E+04</pdfrwt>
<pdfrwt beam="2">  1       -1 0.11149274E+00 0.19536761E+04</pdfrwt>
<totfact> 0.60586375E+00</totfact>
</mgrwt>
</event>
<event>
11    1  0.2404191E-008  0.2145803E+04  0.7818608E-02  0.8541331E-01
          2   -1    0    0  501    0  0.00000000000E+00  0.00000000000E+00  0.22729763445E+04  0.22729763445E+04  0.00000000000E+00 0. -1.
         -2   -1    0    0    0  501 -0.00000000000E+00 -0.00000000000E+00 -0.50643645657E+03  0.50643645657E+03  0.00000000000E+00 0.  1.
         23    2    1    2    0    0  0.13075256356E+03  0.48704943524E+03  0.16581608070E+04  0.17355233074E+04  0.90722121797E+02 0.  0.
        254    2    1    2    0    0 -0.13075256356E+03 -0.48704943524E+03  0.10837908093E+03  0.10438894937E+04  0.90754937308E+03 0.  0.
        -24    2    4    4    0    0 -0.30664106359E+03 -0.65289699298E+03  0.21492844117E+03  0.75705669051E+03  0.81470071222E+02 0.  0.
         11    1    3    3    0    0  0.12643408468E+03  0.45000916451E+03  0.14334044809E+04  0.15076943430E+04  0.00000000000E+00 0. -1.
        -11    1    3    3    0    0  0.43184788808E+01  0.37040270737E+02  0.22475632606E+03  0.22782896440E+03  0.00000000000E+00 0.  1.
          2    1    4    4  502    0  0.98058504082E+02  0.10742758726E+03 -0.40692892304E+01  0.14550847344E+03  0.00000000000E+00 0. -1.
          3    1    5    5  503    0 -0.24906651606E+03 -0.53563167592E+03  0.20792103678E+03  0.62623204901E+03  0.00000000000E+00 0. -1.
         -4    1    5    5    0  503 -0.57574547523E+02 -0.11726531706E+03  0.70074043927E+01  0.13082464150E+03  0.00000000000E+00 0.  1.
         -1    1    4    4    0  502  0.77829995943E+02  0.58419970473E+02 -0.10248007101E+03  0.14132432973E+03  0.00000000000E+00 0.  1.
<mgrwt>
<rscale>  0 0.21458034E+04</rscale>
<asrwt>0</asrwt>
<pdfrwt beam="1">  1        2 0.34968866E+00 0.21458034E+04</pdfrwt>
<pdfrwt beam="2">  1       -2 0.77913302E-01 0.21458034E+04</pdfrwt>
<totfact> 0.63242138E+00</totfact>
</mgrwt>
</event>
<event>
11    1  0.2404191E-008  0.2869440E+04  0.7818608E-02  0.8282028E-01
          1   -1    0    0  501    0  0.00000000000E+00  0.00000000000E+00  0.17239141380E+04  0.17239141380E+04  0.00000000000E+00 0. -1.
         -1   -1    0    0    0  501 -0.00000000000E+00 -0.00000000000E+00 -0.11940398495E+04  0.11940398495E+04  0.00000000000E+00 0.  1.
         23    2    1    2    0    0  0.28591530565E+03 -0.45371182550E+02 -0.10398510706E+04  0.10832274786E+04  0.91024256301E+02 0.  0.
        254    2    1    2    0    0 -0.28591530565E+03  0.45371182550E+02  0.15697253591E+04  0.18347265089E+04  0.90464222390E+03 0.  0.
        -24    2    4    4    0    0 -0.34929178003E+03  0.38783437433E+03  0.68845589531E+03  0.86740675780E+03  0.77477184893E+02 0.  0.
         13    1    3    3    0    0  0.25811606094E+02  0.22359697615E+02 -0.13910955452E+03  0.14323988008E+03  0.00000000000E+00 0. -1.
        -13    1    3    3    0    0  0.26010369956E+03 -0.67730880165E+02 -0.90074151607E+03  0.93998759855E+03  0.00000000000E+00 0.  1.
          4    1    4    4  502    0 -0.22295124488E+02 -0.28245465335E+03  0.73312600309E+03  0.78597165355E+03  0.00000000000E+00 0. -1.
          1    1    5    5  503    0 -0.32898347376E+03  0.37887262580E+03  0.63354857698E+03  0.80818215273E+03  0.00000000000E+00 0. -1.
         -2    1    5    5    0  503 -0.20308306276E+02  0.89617485318E+01  0.54907318325E+02  0.59224605074E+02  0.00000000000E+00 0.  1.
         -3    1    4    4    0  502  0.85671598869E+02 -0.60008538434E+02  0.14814346066E+03  0.18134809752E+03  0.00000000000E+00 0.  1.
<mgrwt>
<rscale>  0 0.28694405E+04</rscale>
<asrwt>0</asrwt>
<pdfrwt beam="1">  1        1 0.26521756E+00 0.28694405E+04</pdfrwt>
<pdfrwt beam="2">  1       -1 0.18369844E+00 0.28694405E+04</pdfrwt>
<totfact> 0.77352774E-01</totfact>
</mgrwt>
</event>
<event>
11    1  0.2404191E-008  0.3665926E+04  0.7818608E-02  0.8075555E-01
          2   -1    0    0  501    0  0.00000000000E+00  0.00000000000E+00  0.27763783497E+04  0.27763783497E+04  0.00000000000E+00 0. -1.
         -2   -1    0    0    0  501 -0.00000000000E+00 -0.00000000000E+00 -0.12101208363E+04  0.12101208363E+04  0.00000000000E+00 0.  1.
         23    2    1    2    0    0  0.38104993867E+03  0.43242331594E+03 -0.10268619027E+04  0.11812219947E+04  0.93011040241E+02 0.  0.
        254    2    1    2    0    0 -0.38104993867E+03 -0.43242331594E+03  0.25931194162E+04  0.28052771913E+04  0.90173323852E+03 0.  0.
        -24    2    4    4    0    0 -0.14326794791E+03  0.19737907864E+03  0.13105921478E+04  0.13354551396E+04  0.79400543143E+02 0.  0.
         11    1    3    3    0    0  0.15810983097E+03  0.17009905793E+03 -0.32464619636E+03  0.39915856620E+03  0.00000000000E+00 0. -1.
        -11    1    3    3    0    0  0.22294010770E+03  0.26232425801E+03 -0.70221570636E+03  0.78206342851E+03  0.00000000000E+00 0.  1.
          2    1    4    4  502    0 -0.28978165711E+03 -0.55089462303E+03  0.11386958238E+04  0.12977235737E+04  0.00000000000E+00 0. -1.
          1    1    5    5  503    0 -0.61868751118E+02  0.68592843446E+02  0.70346157927E+03  0.70950046797E+03  0.00000000000E+00 0. -1.
         -2    1    5    5    0  503 -0.81399196790E+02  0.12878623520E+03  0.60713056857E+03  0.62595467160E+03  0.00000000000E+00 0.  1.
         -1    1    4    4    0  502  0.51999666344E+02 -0.78907771551E+02  0.14383144452E+03  0.17209847804E+03  0.00000000000E+00 0.  1.
<mgrwt>
<rscale>  0 0.36659260E+04</rscale>
<asrwt>0</asrwt>
<pdfrwt beam="1">  1        2 0.42713513E+00 0.36659260E+04</pdfrwt>
<pdfrwt beam="2">  1       -2 0.18617244E+00 0.36659260E+04</pdfrwt>
<totfact> 0.31857140E-01</totfact>
</mgrwt>
</event>
<event>
11    1  0.2404191E-008  0.2053451E+04  0.7818608E-02  0.8582030E-01
          2   -1    0    0  501    0  0.00000000000E+00  0.00000000000E+00  0.10115795508E+04  0.10115795508E+04  0.00000000000E+00 0. -1.
         -2   -1    0    0    0  501 -0.00000000000E+00 -0.00000000000E+00 -0.10420982276E+04  0.10420982276E+04  0.00000000000E+00 0.  1.
         23    2    1    2    0    0 -0.29608290204E+03  0.47674509020E+03  0.60069169331E+03  0.82720289638E+03  0.92104046908E+02 0.  0.
        254    2    1    2    0    0  0.29608290204E+03 -0.47674509020E+03 -0.63121037005E+03  0.12264748821E+04  0.88930486289E+03 0.  0.
        -24    2    4    4    0    0  0.36157400646E+03 -0.28479542770E+03 -0.78157732410E+03  0.91036650135E+03  0.77845073359E+02 0.  0.
         13    1    3    3    0    0 -0.25511804188E+03  0.45615685777E+03  0.55824170082E+03  0.76472092342E+03  0.00000000000E+00 0. -1.
        -13    1    3    3    0    0 -0.40964860156E+02  0.20588232430E+02  0.42449992484E+02  0.62481972953E+02  0.00000000000E+00 0.  1.
          2    1    4    4  502    0 -0.38327597610E+02 -0.16358454324E+03  0.77615854127E+01  0.16819378625E+03  0.00000000000E+00 0. -1.
          3    1    5    5  503    0  0.18595495200E+03 -0.13127101289E+03 -0.45836769710E+03  0.51177364991E+03  0.00000000000E+00 0. -1.
         -4    1    5    5    0  503  0.17561905446E+03 -0.15352441481E+03 -0.32320962700E+03  0.39859285144E+03  0.00000000000E+00 0.  1.
         -1    1    4    4    0  502 -0.27163506809E+02 -0.28365119256E+02  0.14260536863E+03  0.14791459446E+03  0.00000000000E+00 0.  1.
<mgrwt>
<rscale>  0 0.20534510E+04</rscale>
<asrwt>0</asrwt>
<pdfrwt beam="1">  1        2 0.15562762E+00 0.20534510E+04</pdfrwt>
<pdfrwt beam="2">  1       -2 0.16032280E+00 0.20534510E+04</pdfrwt>
<totfact> 0.57371850E+00</totfact>
</mgrwt>
</event>
<event>
11    1  0.2404191E-008  0.2335685E+04  0.7818608E-02  0.8463982E-01
          2   -1    0    0  501    0  0.00000000000E+00  0.00000000000E+00  0.15821473985E+04  0.15821473985E+04  0.00000000000E+00 0. -1.
         -2   -1    0    0    0  501 -0.00000000000E+00 -0.00000000000E+00 -0.86202841845E+03  0.86202841845E+03  0.00000000000E+00 0.  1.
         23    2    1    2    0    0  0.10307354289E+03  0.62318557593E+03  0.10825052512E+04  0.12566642135E+04  0.91667384127E+02 0.  0.
        254    2    1    2    0    0 -0.10307354289E+03 -0.62318557593E+03 -0.36238627119E+03  0.11875116034E+04  0.93801683429E+03 0.  0.
        -24    2    4    4    0    0  0.25703915988E+03 -0.58733838699E+03 -0.36533049920E+02  0.64711283173E+03  0.79905210762E+02 0.  0.
         13    1    3    3    0    0  0.14426368272E+02  0.29947435088E+02  0.27839911206E+02  0.43359308411E+02  0.00000000000E+00 0.  1.
        -13    1    3    3    0    0  0.88647174614E+02  0.59323814084E+03  0.10546653400E+04  0.12133049051E+04  0.00000000000E+00 0. -1.
          4    1    4    4  502    0 -0.14782991063E+03 -0.12882051187E+03 -0.11643997384E+03  0.22804971884E+03  0.00000000000E+00 0. -1.
          3    1    5    5  503    0  0.22331408145E+03 -0.55909922811E+03 -0.32085069270E+02  0.60290179757E+03  0.00000000000E+00 0. -1.
         -4    1    5    5    0  503  0.33725078431E+02 -0.28239158889E+02 -0.44479806503E+01  0.44211034163E+02  0.00000000000E+00 0.  1.
         -3    1    4    4    0  502 -0.21228279213E+03  0.92973322933E+02 -0.20941324744E+03  0.31234905285E+03  0.00000000000E+00 0.  1.
<mgrwt>
<rscale>  0 0.23356849E+04</rscale>
<asrwt>0</asrwt>
<pdfrwt beam="1">  1        2 0.24340729E+00 0.23356849E+04</pdfrwt>
<pdfrwt beam="2">  1       -2 0.13261976E+00 0.23356849E+04</pdfrwt>
<totfact> 0.42595146E+00</totfact>
</mgrwt>
</event>
<event>
12    1  0.2404191E-008  0.1611969E+04  0.7818608E-02  0.8813229E-01
         -1   -1    0    0    0  501 -0.00000000000E+00  0.00000000000E+00  0.27833476660E+03  0.27833476660E+03  0.00000000000E+00 0.  1.
          1   -1    0    0  501    0  0.00000000000E+00 -0.00000000000E+00 -0.23339190894E+04  0.23339190894E+04  0.00000000000E+00 0. -1.
         23    2    1    2    0    0  0.37969482859E+03 -0.39470251917E+03 -0.77062165414E+03  0.94972835779E+03  0.90376867927E+02 0.  0.
        254    2    1    2    0    0 -0.37969482859E+03  0.39470251917E+03 -0.12849626687E+04  0.16625254982E+04  0.90161174065E+03 0.  0.
        -24    2    4    4    0    0 -0.43126534590E+03  0.18963601945E+03 -0.13490409797E+04  0.14312783248E+04  0.81819677509E+02 0.  0.
         24    2    4    4    0    0  0.51570517313E+02  0.20506649972E+03  0.64078310981E+02  0.23124717348E+03  0.68245422884E+02 0.  0.
         13    1    3    3    0    0  0.32284750652E+03 -0.37490182952E+03 -0.68024887549E+03  0.84114233448E+03  0.00000000000E+00 0.  1.
        -13    1    3    3    0    0  0.56847322066E+02 -0.19800689647E+02 -0.90372778655E+02  0.10858602331E+03  0.00000000000E+00 0. -1.
          2    1    6    6  502    0  0.46768955299E+02  0.11681267593E+03  0.67514295190E+02  0.14279606610E+03  0.00000000000E+00 0. -1.
          1    1    5    5  503    0 -0.24774416276E+03  0.14965089077E+03 -0.86065473485E+03  0.90801934556E+03  0.00000000000E+00 0. -1.
         -4    1    5    5    0  503 -0.18352118314E+03  0.39985128684E+02 -0.48838624483E+03  0.52325897920E+03  0.00000000000E+00 0.  1.
         -1    1    6    6    0  502  0.48015620145E+01  0.88253823786E+02 -0.34359842089E+01  0.88451107388E+02  0.00000000000E+00 0.  1.
<mgrwt>
<rscale>  0 0.16119688E+04</rscale>
<asrwt>0</asrwt>
<pdfrwt beam="1">  1        1 0.35906447E+00 0.16119688E+04</pdfrwt>
<pdfrwt beam="2">  1       -1 0.42820735E-01 0.16119688E+04</pdfrwt>
<totfact> 0.90955564E+00</totfact>
</mgrwt>
</event>
<event>
12    1  0.2404191E-008  0.2111734E+04  0.7818608E-02  0.8556092E-01
          2   -1    0    0  501    0  0.00000000000E+00  0.00000000000E+00  0.16446030453E+04  0.16446030453E+04  0.00000000000E+00 0. -1.
         -2   -1    0    0    0  501 -0.00000000000E+00 -0.00000000000E+00 -0.67788731712E+03  0.67788731712E+03  0.00000000000E+00 0.  1.
         23    2    1    2    0    0 -0.50513756306E+03  0.48123932678E+03 -0.15840737904E+03  0.72116845987E+03  0.90751322443E+02 0.  0.
        254    2    1    2    0    0  0.50513756306E+03 -0.48123932678E+03  0.11251231072E+04  0.16013219025E+04  0.90087434301E+03 0.  0.
        -24    2    4    4    0    0  0.75095620031E+03 -0.37171131342E+03  0.94394444187E+03  0.12645746242E+04  0.77545828410E+02 0.  0.
         24    2    4    4    0    0 -0.24581863725E+03 -0.10952801336E+03  0.18117866535E+03  0.33674727834E+03  0.90276423090E+02 0.  0.
         11    1    3    3    0    0 -0.48834557682E+03  0.46031948358E+03 -0.13286195524E+03  0.68412552102E+03  0.00000000000E+00 0.  1.
        -11    1    3    3    0    0 -0.16791986241E+02  0.20919843195E+02 -0.25545423802E+02  0.37042938848E+02  0.00000000000E+00 0. -1.
          4    1    6    6  502    0 -0.14440385024E+03 -0.16443928642E+02  0.10611856828E+03  0.17995562033E+03  0.00000000000E+00 0. -1.
          1    1    5    5  503    0  0.29861696694E+03 -0.16683837026E+03  0.33438599245E+03  0.47835251298E+03  0.00000000000E+00 0. -1.
         -2    1    5    5    0  503  0.45233923337E+03 -0.20487294315E+03  0.60955844942E+03  0.78622211120E+03  0.00000000000E+00 0.  1.
         -3    1    6    6    0  502 -0.10141478700E+03 -0.93084084719E+02  0.75060097063E+02  0.15679165801E+03  0.00000000000E+00 0.  1.
<mgrwt>
<rscale>  0 0.21117344E+04</rscale>
<asrwt>0</asrwt>
<pdfrwt beam="1">  1        2 0.25301585E+00 0.21117344E+04</pdfrwt>
<pdfrwt beam="2">  1       -2 0.10429036E+00 0.21117344E+04</pdfrwt>
<totfact> 0.72436668E+00</totfact>
</mgrwt>
</event>
<event>
11    1  0.2404191E-008  0.1251524E+04  0.7818608E-02  0.9068916E-01
         -2   -1    0    0    0  501 -0.00000000000E+00  0.00000000000E+00  0.24706257081E+03  0.24706257081E+03  0.00000000000E+00 0.  1.
          2   -1    0    0  501    0  0.00000000000E+00 -0.00000000000E+00 -0.15849342885E+04  0.15849342885E+04  0.00000000000E+00 0. -1.
         23    2    1    2    0    0  0.86235373617E-01 -0.19031329988E+03 -0.25801359982E+01  0.21121844251E+03  0.91582824857E+02 0.  0.
        254    2    1    2    0    0 -0.86235373617E-01  0.19031329988E+03 -0.13352915816E+04  0.16207784168E+04  0.89872126304E+03 0.  0.
        -24    2    4    4    0    0 -0.36967757367E+03  0.14479338727E+03 -0.34931421868E+03  0.53448328504E+03  0.77622967916E+02 0.  0.
         11    1    3    3    0    0  0.21358972234E+02 -0.85452402171E+02  0.39126337061E+02  0.96380438802E+02  0.00000000000E+00 0.  1.
        -11    1    3    3    0    0 -0.21272736860E+02 -0.10486089771E+03 -0.41706473059E+02  0.11483800371E+03  0.00000000000E+00 0. -1.
          4    1    4    4  502    0 -0.35228369808E+02  0.11593322577E+02 -0.30410377370E+02  0.47960757078E+02  0.00000000000E+00 0. -1.
          3    1    5    5  503    0 -0.15638172238E+03  0.72674133819E+02 -0.10342918758E+03  0.20108299198E+03  0.00000000000E+00 0. -1.
         -4    1    5    5    0  503 -0.21329585129E+03  0.72119253447E+02 -0.24588503109E+03  0.33340029306E+03  0.00000000000E+00 0.  1.
         -3    1    4    4    0  502  0.40481970810E+03  0.33926590034E+02 -0.95556698560E+03  0.10383343746E+04  0.00000000000E+00 0.  1.
<mgrwt>
<rscale>  0 0.12515238E+04</rscale>
<asrwt>0</asrwt>
<pdfrwt beam="1">  1        2 0.24383605E+00 0.12515238E+04</pdfrwt>
<pdfrwt beam="2">  1       -2 0.38009625E-01 0.12515238E+04</pdfrwt>
<totfact> 0.73031761E+01</totfact>
</mgrwt>
</event>
<event>
11    1  0.2404191E-008  0.2277359E+04  0.7818608E-02  0.8486902E-01
         -2   -1    0    0    0  501 -0.00000000000E+00  0.00000000000E+00  0.71859447935E+03  0.71859447935E+03  0.00000000000E+00 0.  1.
          2   -1    0    0  501    0  0.00000000000E+00 -0.00000000000E+00 -0.18043426078E+04  0.18043426078E+04  0.00000000000E+00 0. -1.
         23    2    1    2    0    0 -0.67950655529E+03 -0.21679362309E+03  0.17632507235E+03  0.74160983168E+03  0.10082647275E+03 0.  0.
        254    2    1    2    0    0  0.67950655529E+03  0.21679362309E+03 -0.12620732008E+04  0.17813272554E+04  0.10351663601E+04 0.  0.
        -24    2    4    4    0    0  0.65119355410E+02  0.45204275535E+03 -0.15857464504E+03  0.48994496082E+03  0.79479327296E+02 0.  0.
         11    1    3    3    0    0 -0.48169805349E+03 -0.19464908133E+03  0.10409411586E+03  0.52986494935E+03  0.00000000000E+00 0. -1.
        -11    1    3    3    0    0 -0.19780850181E+03 -0.22144541755E+02  0.72230956482E+02  0.21174488232E+03  0.00000000000E+00 0.  1.
          4    1    4    4  502    0  0.27691469891E+03 -0.51620131500E+02 -0.54509685236E+03  0.61357718903E+03  0.00000000000E+00 0. -1.
          1    1    5    5  503    0  0.83155805808E+02  0.36618004066E+03 -0.13575195562E+03  0.39928849679E+03  0.00000000000E+00 0. -1.
         -2    1    5    5    0  503 -0.18036450397E+02  0.85862714692E+02 -0.22822689420E+02  0.90656464025E+02  0.00000000000E+00 0.  1.
         -3    1    4    4    0  502  0.33747250097E+03 -0.18362900076E+03 -0.55840170336E+03  0.67780510558E+03  0.00000000000E+00 0.  1.
<mgrwt>
<rscale>  0 0.22773587E+04</rscale>
<asrwt>0</asrwt>
<pdfrwt beam="1">  1        2 0.27759117E+00 0.22773587E+04</pdfrwt>
<pdfrwt beam="2">  1       -2 0.11055300E+00 0.22773587E+04</pdfrwt>
<totfact> 0.50591555E+00</totfact>
</mgrwt>
</event>
<event>
11    1  0.2404191E-008  0.1453398E+04  0.7818608E-02  0.8916048E-01
          2   -1    0    0  501    0  0.00000000000E+00  0.00000000000E+00  0.69866578821E+03  0.69866578821E+03  0.00000000000E+00 0. -1.
         -2   -1    0    0    0  501 -0.00000000000E+00 -0.00000000000E+00 -0.75585665867E+03  0.75585665867E+03  0.00000000000E+00 0.  1.
         23    2    1    2    0    0  0.13315528481E+03  0.32634251637E+03  0.23726787887E+03  0.43448846238E+03  0.90853782183E+02 0.  0.
        254    2    1    2    0    0 -0.13315528481E+03 -0.32634251637E+03 -0.29445874933E+03  0.10200339845E+04  0.91078735532E+03 0.  0.
        -24    2    4    4    0    0  0.35303288567E+03 -0.96260315584E+02 -0.26569726882E+03  0.45910371953E+03  0.79264871860E+02 0.  0.
         13    1    3    3    0    0  0.12183095750E+03  0.32778360678E+03  0.23807856244E+03  0.42304406032E+03  0.00000000000E+00 0. -1.
        -13    1    3    3    0    0  0.11324327312E+02 -0.14410904158E+01 -0.81068356842E+00  0.11444402059E+02  0.00000000000E+00 0.  1.
          2    1    4    4  502    0 -0.28861239634E+03 -0.50212019757E+02 -0.19025333358E+02  0.29356485750E+03  0.00000000000E+00 0. -1.
          1    1    5    5  503    0  0.25568636183E+03 -0.99593834328E+02 -0.17138915383E+03  0.32352540783E+03  0.00000000000E+00 0. -1.
         -2    1    5    5    0  503  0.97346523838E+02  0.33335187441E+01 -0.94308114996E+02  0.13557831170E+03  0.00000000000E+00 0.  1.
         -1    1    4    4    0  502 -0.19757577413E+03 -0.17987018103E+03 -0.97361471538E+01  0.26736540746E+03  0.00000000000E+00 0.  1.
<mgrwt>
<rscale>  0 0.14533977E+04</rscale>
<asrwt>0</asrwt>
<pdfrwt beam="1">  1        2 0.10748704E+00 0.14533977E+04</pdfrwt>
<pdfrwt beam="2">  1       -2 0.11628564E+00 0.14533977E+04</pdfrwt>
<totfact> 0.22848961E+01</totfact>
</mgrwt>
</event>
<event>
11    1  0.2404191E-008  0.1665816E+04  0.7818608E-02  0.8781104E-01
          2   -1    0    0  501    0  0.00000000000E+00  0.00000000000E+00  0.25723640399E+04  0.25723640399E+04  0.00000000000E+00 0. -1.
         -2   -1    0    0    0  501 -0.00000000000E+00 -0.00000000000E+00 -0.26968809485E+03  0.26968809485E+03  0.00000000000E+00 0.  1.
         23    2    1    2    0    0  0.49477046799E+03 -0.11280300308E+03  0.13201633793E+04  0.14170483119E+04  0.87591304236E+02 0.  0.
        254    2    1    2    0    0 -0.49477046799E+03  0.11280300308E+03  0.98251256578E+03  0.14250038229E+04  0.89876727797E+03 0.  0.
        -24    2    4    4    0    0 -0.45870770010E+03  0.44092387699E+03  0.45245230497E+03  0.78488262120E+03  0.80628911455E+02 0.  0.
         13    1    3    3    0    0  0.36946529662E+02 -0.61281952920E+01  0.17859100210E+03  0.18247560621E+03  0.00000000000E+00 0.  1.
        -13    1    3    3    0    0  0.45782393833E+03 -0.10667480779E+03  0.11415723772E+04  0.12345727057E+04  0.00000000000E+00 0. -1.
          4    1    4    4  502    0 -0.40514215612E+02 -0.31933774813E+03  0.41776523621E+03  0.52739528973E+03  0.00000000000E+00 0. -1.
          3    1    5    5  503    0 -0.35908339353E+03  0.37551575060E+03  0.33930375161E+03  0.62054814343E+03  0.00000000000E+00 0. -1.
         -4    1    5    5    0  503 -0.99624306565E+02  0.65408126391E+02  0.11314855336E+03  0.16433447777E+03  0.00000000000E+00 0.  1.
         -3    1    4    4    0  502  0.44514477158E+01 -0.87831257720E+01  0.11229502460E+03  0.11272591200E+03  0.00000000000E+00 0.  1.
<mgrwt>
<rscale>  0 0.16658163E+04</rscale>
<asrwt>0</asrwt>
<pdfrwt beam="1">  1        2 0.39574830E+00 0.16658163E+04</pdfrwt>
<pdfrwt beam="2">  1       -2 0.41490478E-01 0.16658163E+04</pdfrwt>
<totfact> 0.16623844E+01</totfact>
</mgrwt>
</event>
<event>
11    1  0.2404191E-008  0.1109745E+04  0.7818608E-02  0.9195746E-01
          2   -1    0    0  501    0  0.00000000000E+00  0.00000000000E+00  0.17046898954E+04  0.17046898954E+04  0.00000000000E+00 0. -1.
         -2   -1    0    0    0  501 -0.00000000000E+00 -0.00000000000E+00 -0.18060960689E+03  0.18060960689E+03  0.00000000000E+00 0.  1.
         23    2    1    2    0    0 -0.10745069587E+03  0.13806028532E+03  0.34602575949E+03  0.39839276456E+03  0.91524172737E+02 0.  0.
        254    2    1    2    0    0  0.10745069587E+03 -0.13806028532E+03  0.11780545290E+04  0.14869067378E+04  0.89020945792E+03 0.  0.
        -24    2    4    4    0    0  0.14738745091E+03  0.29375788098E+03  0.23621788637E+03  0.41256960488E+03  0.79987722257E+02 0.  0.
         11    1    3    3    0    0 -0.99807970514E+02  0.15160508090E+03  0.32484302894E+03  0.37211386024E+03  0.00000000000E+00 0. -1.
        -11    1    3    3    0    0 -0.76427253547E+01 -0.13544795587E+02  0.21182730554E+02  0.26278904316E+02  0.00000000000E+00 0.  1.
          4    1    4    4  502    0 -0.15560251456E+03 -0.18920740461E+03  0.50818693426E+03  0.56415028551E+03  0.00000000000E+00 0. -1.
          3    1    5    5  503    0  0.12206117807E+03  0.26578759177E+03  0.23436428000E+03  0.37479139647E+03  0.00000000000E+00 0. -1.
         -4    1    5    5    0  503  0.25326272841E+02  0.27970289207E+02  0.18536063734E+01  0.37778208413E+02  0.00000000000E+00 0.  1.
         -3    1    4    4    0  502  0.11566575953E+03 -0.24261076169E+03  0.43364970842E+03  0.51018684736E+03  0.00000000000E+00 0.  1.
<mgrwt>
<rscale>  0 0.11097448E+04</rscale>
<asrwt>0</asrwt>
<pdfrwt beam="1">  1        2 0.26225997E+00 0.11097448E+04</pdfrwt>
<pdfrwt beam="2">  1       -2 0.27786095E-01 0.11097448E+04</pdfrwt>
<totfact> 0.11436415E+02</totfact>
</mgrwt>
</event>
<event>
11    1  0.2404191E-008  0.1764813E+04  0.7818608E-02  0.8725239E-01
          2   -1    0    0  501    0  0.00000000000E+00  0.00000000000E+00  0.11878822012E+04  0.11878822012E+04  0.00000000000E+00 0. -1.
         -2   -1    0    0    0  501 -0.00000000000E+00 -0.00000000000E+00 -0.65548658137E+03  0.65548658137E+03  0.00000000000E+00 0.  1.
         23    2    1    2    0    0  0.14388263034E+03 -0.15717964178E+03 -0.43379545062E+03  0.49182159196E+03  0.91117145678E+02 0.  0.
        254    2    1    2    0    0 -0.14388263034E+03  0.15717964178E+03  0.96619107048E+03  0.13515471906E+04  0.92073175938E+03 0.  0.
        -24    2    4    4    0    0  0.26385158053E+03  0.65155334456E+02 -0.27659635375E+01  0.28318060229E+03  0.79503011296E+02 0.  0.
         11    1    3    3    0    0 -0.42273243956E+01  0.20118726837E+01  0.17655226734E+01  0.50034961329E+01  0.00000000000E+00 0. -1.
        -11    1    3    3    0    0  0.14810995474E+03 -0.15919151446E+03 -0.43556097329E+03  0.48681809583E+03  0.00000000000E+00 0.  1.
          4    1    4    4  502    0 -0.20381363323E+03  0.10597732179E+03  0.65135745932E+03  0.69067917997E+03  0.00000000000E+00 0. -1.
          1    1    5    5  503    0  0.96420701200E+02  0.15153185339E+02 -0.38329425573E+02  0.10486045733E+03  0.00000000000E+00 0. -1.
         -2    1    5    5    0  503  0.16743087933E+03  0.50002149117E+02  0.35563462036E+02  0.17832014497E+03  0.00000000000E+00 0.  1.
         -3    1    4    4    0  502 -0.20392057764E+03 -0.13953014468E+02  0.31759957469E+03  0.37768740837E+03  0.00000000000E+00 0.  1.
<mgrwt>
<rscale>  0 0.17648126E+04</rscale>
<asrwt>0</asrwt>
<pdfrwt beam="1">  1        2 0.18275111E+00 0.17648126E+04</pdfrwt>
<pdfrwt beam="2">  1       -2 0.10084409E+00 0.17648126E+04</pdfrwt>
<totfact> 0.14765904E+01</totfact>
</mgrwt>
</event>
<event>
12    1  0.2404191E-008  0.2609886E+04  0.7818608E-02  0.8364851E-01
         -1   -1    0    0    0  501 -0.00000000000E+00  0.00000000000E+00  0.95270467936E+03  0.95270467936E+03  0.00000000000E+00 0.  1.
          1   -1    0    0  501    0  0.00000000000E+00 -0.00000000000E+00 -0.17874119085E+04  0.17874119085E+04  0.00000000000E+00 0. -1.
         23    2    1    2    0    0 -0.38225885809E+03  0.44906279755E+03 -0.13988973399E+04  0.15210005691E+04  0.93540006618E+02 0.  0.
        254    2    1    2    0    0  0.38225885809E+03 -0.44906279755E+03  0.56419011078E+03  0.12191160187E+04  0.90562362786E+03 0.  0.
        -24    2    4    4    0    0  0.42696218917E+03  0.24487563580E+02 -0.51112724920E+02  0.43878117729E+03  0.83785793211E+02 0.  0.
         24    2    4    4    0    0 -0.44703331080E+02 -0.47355036113E+03  0.61530283570E+03  0.78033484146E+03  0.63847888254E+02 0.  0.
         13    1    3    3    0    0 -0.12577673132E+03  0.11316169133E+03 -0.49660807512E+03  0.52463790827E+03  0.00000000000E+00 0.  1.
        -13    1    3    3    0    0 -0.25648212677E+03  0.33590110622E+03 -0.90228926481E+03  0.99636266084E+03  0.00000000000E+00 0. -1.
          2    1    6    6  502    0 -0.18072381344E+02 -0.24839589931E+03  0.27072607519E+03  0.36785831723E+03  0.00000000000E+00 0. -1.
          3    1    5    5  503    0  0.17692208458E+03 -0.11034464490E+02  0.14465785098E+02  0.17785511619E+03  0.00000000000E+00 0. -1.
         -4    1    5    5    0  503  0.25004010459E+03  0.35522028070E+02 -0.65578510017E+02  0.26092606109E+03  0.00000000000E+00 0.  1.
         -1    1    6    6    0  502 -0.26630949737E+02 -0.22515446182E+03  0.34457676051E+03  0.41247652423E+03  0.00000000000E+00 0.  1.
<mgrwt>
<rscale>  0 0.26098856E+04</rscale>
<asrwt>0</asrwt>
<pdfrwt beam="1">  1        1 0.27498644E+00 0.26098856E+04</pdfrwt>
<pdfrwt beam="2">  1       -1 0.14656995E+00 0.26098856E+04</pdfrwt>
<totfact> 0.13574738E+00</totfact>
</mgrwt>
</event>
<event>
12    1  0.2404191E-008  0.2455471E+04  0.7818608E-02  0.8419023E-01
          2   -1    0    0  501    0  0.00000000000E+00  0.00000000000E+00  0.17286570442E+04  0.17286570442E+04  0.00000000000E+00 0. -1.
         -2   -1    0    0    0  501 -0.00000000000E+00 -0.00000000000E+00 -0.87196827014E+03  0.87196827014E+03  0.00000000000E+00 0.  1.
         23    2    1    2    0    0 -0.85039989326E+03 -0.52018081933E+03  0.75773774631E+03  0.12552059498E+04  0.87220530171E+02 0.  0.
        254    2    1    2    0    0  0.85039989326E+03  0.52018081933E+03  0.98951027741E+02  0.13454193646E+04  0.89810572731E+03 0.  0.
        -24    2    4    4    0    0  0.99157969295E+03  0.42160911232E+03 -0.87055522554E+02  0.10840121808E+04  0.80741643782E+02 0.  0.
         24    2    4    4    0    0 -0.14117979969E+03  0.98571707006E+02  0.18600655029E+03  0.26140718378E+03  0.63930913607E+02 0.  0.
         13    1    3    3    0    0 -0.22898750348E+03 -0.14556683741E+03  0.25591283088E+03  0.37298305312E+03  0.00000000000E+00 0.  1.
        -13    1    3    3    0    0 -0.62141238978E+03 -0.37461398191E+03  0.50182491544E+03  0.88222289664E+03  0.00000000000E+00 0. -1.
          4    1    6    6  502    0 -0.84305408171E+02  0.26752146298E+02  0.11722085919E+03  0.14684620870E+03  0.00000000000E+00 0. -1.
          3    1    5    5  503    0  0.98891062927E+03  0.41898375022E+03 -0.81213488027E+02  0.10770734637E+04  0.00000000000E+00 0. -1.
         -4    1    5    5    0  503  0.26690636786E+01  0.26253621027E+01 -0.58420345271E+01  0.69387170649E+01  0.00000000000E+00 0.  1.
         -3    1    6    6    0  502 -0.56874391520E+02  0.71819560709E+02  0.68785691101E+02  0.11456097508E+03  0.00000000000E+00 0.  1.
<mgrwt>
<rscale>  0 0.24554707E+04</rscale>
<asrwt>0</asrwt>
<pdfrwt beam="1">  1        2 0.26594724E+00 0.24554707E+04</pdfrwt>
<pdfrwt beam="2">  1       -2 0.13414896E+00 0.24554707E+04</pdfrwt>
<totfact> 0.33933053E+00</totfact>
</mgrwt>
</event>
<event>
12    1  0.2404191E-008  0.2080467E+04  0.7818608E-02  0.8569897E-01
          1   -1    0    0  501    0  0.00000000000E+00  0.00000000000E+00  0.41398928284E+04  0.41398928284E+04  0.00000000000E+00 0. -1.
         -1   -1    0    0    0  501 -0.00000000000E+00 -0.00000000000E+00 -0.26138014702E+03  0.26138014702E+03  0.00000000000E+00 0.  1.
         23    2    1    2    0    0  0.78602752482E+03  0.65838016472E+02  0.10166939672E+04  0.12904204387E+04  0.96666289672E+02 0.  0.
        254    2    1    2    0    0 -0.78602752482E+03 -0.65838016472E+02  0.28618187141E+04  0.31108525366E+04  0.93017376768E+03 0.  0.
        -24    2    4    4    0    0 -0.39665974973E+03 -0.78664441397E+02  0.25971703271E+04  0.26296454022E+04  0.78830081073E+02 0.  0.
         24    2    4    4    0    0 -0.38936777509E+03  0.12826424925E+02  0.26464838698E+03  0.48120713445E+03  0.98740853068E+02 0.  0.
         11    1    3    3    0    0  0.74108714240E+03  0.39586412898E+02  0.93826839525E+03  0.11962962920E+04  0.00000000000E+00 0. -1.
        -11    1    3    3    0    0  0.44940382419E+02  0.26251603574E+02  0.78425571978E+02  0.94124146754E+02  0.00000000000E+00 0.  1.
          2    1    6    6  502    0 -0.10146234913E+03  0.28163770346E+02  0.11657968297E+03  0.15709433068E+03  0.00000000000E+00 0. -1.
          3    1    5    5  503    0 -0.14203275206E+02  0.99164161323E+01  0.17645277152E+03  0.17730101216E+03  0.00000000000E+00 0. -1.
         -4    1    5    5    0  503 -0.38245647452E+03 -0.88580857529E+02  0.24207175556E+04  0.24523443900E+04  0.00000000000E+00 0.  1.
         -1    1    6    6    0  502 -0.28790542596E+03 -0.15337345421E+02  0.14806870401E+03  0.32411280377E+03  0.00000000000E+00 0.  1.
<mgrwt>
<rscale>  0 0.20804671E+04</rscale>
<asrwt>0</asrwt>
<pdfrwt beam="1">  1        1 0.63690654E+00 0.20804671E+04</pdfrwt>
<pdfrwt beam="2">  1       -1 0.40212333E-01 0.20804671E+04</pdfrwt>
<totfact> 0.40268685E-01</totfact>
</mgrwt>
</event>
<event>
12    1  0.2404191E-008  0.1394115E+04  0.7818608E-02  0.8958089E-01
         -1   -1    0    0    0  501 -0.00000000000E+00  0.00000000000E+00  0.56295878712E+03  0.56295878712E+03  0.00000000000E+00 0.  1.
          1   -1    0    0  501    0  0.00000000000E+00 -0.00000000000E+00 -0.86309951621E+03  0.86309951621E+03  0.00000000000E+00 0. -1.
         23    2    1    2    0    0  0.22226678746E+03 -0.91777044358E+01  0.25768038580E+03  0.35227026947E+03  0.90600256387E+02 0.  0.
        254    2    1    2    0    0 -0.22226678746E+03  0.91777044358E+01 -0.55782111490E+03  0.10737880339E+04  0.89015144238E+03 0.  0.
        -24    2    4    4    0    0 -0.49540195526E+03 -0.56169874589E+02 -0.58944942750E+03  0.77595812089E+03  0.77988625483E+02 0.  0.
         24    2    4    4    0    0  0.27313516780E+03  0.65347579025E+02  0.31628312604E+02  0.29782991298E+03  0.93963721369E+02 0.  0.
         11    1    3    3    0    0  0.59503491199E+02 -0.43145275754E+02  0.69465070251E+02  0.10113148011E+03  0.00000000000E+00 0. -1.
        -11    1    3    3    0    0  0.16276329626E+03  0.33967571318E+02  0.18821531555E+03  0.25113878936E+03  0.00000000000E+00 0.  1.
          2    1    6    6  502    0  0.18299787186E+03  0.55348061133E+02 -0.22037743258E+02  0.19245074981E+03  0.00000000000E+00 0. -1.
          1    1    5    5  503    0 -0.77444352697E+02  0.78427693222E+01 -0.59387931192E+02  0.97908442775E+02  0.00000000000E+00 0. -1.
         -2    1    5    5    0  503 -0.41795760256E+03 -0.64012643911E+02 -0.53006149631E+03  0.67804967811E+03  0.00000000000E+00 0.  1.
         -1    1    6    6    0  502  0.90137295941E+02  0.99995178922E+01  0.53666055862E+02  0.10537916317E+03  0.00000000000E+00 0.  1.
<mgrwt>
<rscale>  0 0.13941154E+04</rscale>
<asrwt>0</asrwt>
<pdfrwt beam="1">  1        1 0.13278454E+00 0.13941154E+04</pdfrwt>
<pdfrwt beam="2">  1       -1 0.86609045E-01 0.13941154E+04</pdfrwt>
<totfact> 0.25043179E+01</totfact>
</mgrwt>
</event>
<event>
12    1  0.2404191E-008  0.3473309E+04  0.7818608E-02  0.8120145E-01
         -2   -1    0    0    0  501 -0.00000000000E+00  0.00000000000E+00  0.21664886321E+04  0.21664886321E+04  0.00000000000E+00 0.  1.
          2   -1    0    0  501    0  0.00000000000E+00 -0.00000000000E+00 -0.13921000129E+04  0.13921000129E+04  0.00000000000E+00 0. -1.
         23    2    1    2    0    0 -0.68917166438E+03 -0.35089680502E+02  0.18623136740E+04  0.19880420928E+04  0.88939718599E+02 0.  0.
        254    2    1    2    0    0  0.68917166438E+03  0.35089680502E+02 -0.10879250548E+04  0.15705465523E+04  0.89824644684E+03 0.  0.
        -24    2    4    4    0    0  0.83093572585E+02 -0.37134116138E+03 -0.27675250682E+03  0.47750029459E+03  0.81337453638E+02 0.  0.
         24    2    4    4    0    0  0.60607809179E+03  0.40643084189E+03 -0.81117254802E+03  0.10930462577E+04  0.65057944788E+02 0.  0.
         13    1    3    3    0    0 -0.67045251500E+02 -0.79740001956E+00  0.11706766801E+03  0.13490937880E+03  0.00000000000E+00 0. -1.
        -13    1    3    3    0    0 -0.62212641287E+03 -0.34292280483E+02  0.17452460060E+04  0.18531327140E+04  0.00000000000E+00 0.  1.
          2    1    6    6  502    0  0.38277144666E+03  0.27992394993E+03 -0.56203273773E+03  0.73535854956E+03  0.00000000000E+00 0. -1.
          3    1    5    5  503    0  0.92892341041E+02 -0.33141919346E+03 -0.22416367402E+03  0.41075177610E+03  0.00000000000E+00 0. -1.
         -4    1    5    5    0  503 -0.97987684560E+01 -0.39921967924E+02 -0.52588832802E+02  0.66748518498E+02  0.00000000000E+00 0.  1.
         -1    1    6    6    0  502  0.22330664513E+03  0.12650689195E+03 -0.24913981029E+03  0.35768770812E+03  0.00000000000E+00 0.  1.
<mgrwt>
<rscale>  0 0.34733090E+04</rscale>
<asrwt>0</asrwt>
<pdfrwt beam="1">  1        2 0.21416923E+00 0.34733090E+04</pdfrwt>
<pdfrwt beam="2">  1       -2 0.33330594E+00 0.34733090E+04</pdfrwt>
<totfact> 0.23832579E-01</totfact>
</mgrwt>
</event>
<event>
12    1  0.2404191E-008  0.1992919E+04  0.7818608E-02  0.8609939E-01
         -2   -1    0    0    0  501 -0.00000000000E+00  0.00000000000E+00  0.81283576722E+03  0.81283576722E+03  0.00000000000E+00 0.  1.
          2   -1    0    0  501    0  0.00000000000E+00 -0.00000000000E+00 -0.12215643451E+04  0.12215643451E+04  0.00000000000E+00 0. -1.
         23    2    1    2    0    0 -0.44022294685E+03 -0.42577182262E+03  0.38109676601E+03  0.72696676542E+03  0.90377237692E+02 0.  0.
        254    2    1    2    0    0  0.44022294685E+03  0.42577182262E+03 -0.78982534388E+03  0.13074333469E+04  0.84289975373E+03 0.  0.
        -24    2    4    4    0    0 -0.69288014223E+01  0.55686743732E+03 -0.38009053977E+03  0.67866091065E+03  0.77216981160E+02 0.  0.
         24    2    4    4    0    0  0.44715174827E+03 -0.13109561471E+03 -0.40973480411E+03  0.62877243624E+03  0.10169277601E+03 0.  0.
         11    1    3    3    0    0 -0.12438657588E+03 -0.90625029589E+02  0.58240969382E+02  0.16455068144E+03  0.00000000000E+00 0. -1.
        -11    1    3    3    0    0 -0.31583637097E+03 -0.33514679303E+03  0.32285579663E+03  0.56241608398E+03  0.00000000000E+00 0.  1.
          4    1    6    6  502    0  0.66680896876E+02 -0.50485175585E+02 -0.10762894105E+03  0.13630511331E+03  0.00000000000E+00 0. -1.
          3    1    5    5  503    0  0.13484235332E+02  0.51036945994E+03 -0.35630521610E+03  0.62258510845E+03  0.00000000000E+00 0. -1.
         -4    1    5    5    0  503 -0.20413036754E+02  0.46497977384E+02 -0.23785323669E+02  0.56075802200E+02  0.00000000000E+00 0.  1.
         -3    1    6    6    0  502  0.38047085140E+03 -0.80610439121E+02 -0.30210586305E+03  0.49246732293E+03  0.00000000000E+00 0.  1.
<mgrwt>
<rscale>  0 0.19929187E+04</rscale>
<asrwt>0</asrwt>
<pdfrwt beam="1">  1        2 0.18793298E+00 0.19929187E+04</pdfrwt>
<pdfrwt beam="2">  1       -2 0.12505166E+00 0.19929187E+04</pdfrwt>
<totfact> 0.81886350E+00</totfact>
</mgrwt>
</event>
<event>
12    1  0.2404191E-008  0.1569157E+04  0.7818608E-02  0.8839723E-01
          2   -1    0    0  501    0  0.00000000000E+00  0.00000000000E+00  0.10105989036E+04  0.10105989036E+04  0.00000000000E+00 0.  1.
         -2   -1    0    0    0  501 -0.00000000000E+00 -0.00000000000E+00 -0.60910737614E+03  0.60910737614E+03  0.00000000000E+00 0. -1.
         23    2    1    2    0    0  0.51431709412E+03  0.84175184012E+01  0.46516548526E+02  0.52422472305E+03  0.89748777429E+02 0.  0.
        254    2    1    2    0    0 -0.51431709412E+03 -0.84175184012E+01  0.35497497892E+03  0.10954815567E+04  0.89971088548E+03 0.  0.
        -24    2    4    4    0    0  0.20742181252E+03 -0.18197600313E+03  0.11340371162E+03  0.30896447840E+03  0.80371469301E+02 0.  0.
         24    2    4    4    0    0 -0.72173890664E+03  0.17355848473E+03  0.24157126730E+03  0.78651707829E+03  0.96035619838E+02 0.  0.
         13    1    3    3    0    0  0.27005283319E+03 -0.18972230880E+02  0.62744549707E+02  0.27789450656E+03  0.00000000000E+00 0.  1.
        -13    1    3    3    0    0  0.24426426093E+03  0.27389749282E+02 -0.16228001181E+02  0.24633021649E+03  0.00000000000E+00 0. -1.
          2    1    6    6  502    0 -0.17793671885E+02 -0.18644864435E+01  0.22382772553E+02  0.28654486142E+02  0.00000000000E+00 0. -1.
          1    1    5    5  503    0  0.14815664977E+02  0.64606301797E+01  0.15157149631E+02  0.22158132953E+02  0.00000000000E+00 0. -1.
         -2    1    5    5    0  503  0.19260614754E+03 -0.18843663331E+03  0.98246561994E+02  0.28680634544E+03  0.00000000000E+00 0.  1.
         -1    1    6    6    0  502 -0.70394523475E+03  0.17542297117E+03  0.21918849475E+03  0.75786259215E+03  0.00000000000E+00 0.  1.
<mgrwt>
<rscale>  0 0.15691568E+04</rscale>
<asrwt>0</asrwt>
<pdfrwt beam="1">  1        2 0.15547675E+00 0.15691568E+04</pdfrwt>
<pdfrwt beam="2">  1       -2 0.93708828E-01 0.15691568E+04</pdfrwt>
<totfact> 0.22940141E+01</totfact>
</mgrwt>
</event>
<event>
11    1  0.2404191E-008  0.1814242E+04  0.7818608E-02  0.8698762E-01
         -1   -1    0    0    0  501 -0.00000000000E+00  0.00000000000E+00  0.46935757707E+03  0.46935757707E+03  0.00000000000E+00 0.  1.
          1   -1    0    0  501    0  0.00000000000E+00 -0.00000000000E+00 -0.17531801262E+04  0.17531801262E+04  0.00000000000E+00 0. -1.
         23    2    1    2    0    0 -0.50982741264E+03  0.45315817960E+03 -0.43328165751E+03  0.81310811605E+03  0.90196935889E+02 0.  0.
        254    2    1    2    0    0  0.50982741264E+03 -0.45315817960E+03 -0.85054089161E+03  0.14094295872E+04  0.89319405873E+03 0.  0.
        -24    2    4    4    0    0  0.32708258975E+03  0.11874054528E+03  0.43117783813E+01  0.35640852285E+03  0.76981206250E+02 0.  0.
         11    1    3    3    0    0 -0.70339502216E+02  0.10948747861E+03 -0.83496996126E+02  0.15461856909E+03  0.00000000000E+00 0.  1.
        -11    1    3    3    0    0 -0.43948791042E+03  0.34367070099E+03 -0.34978466138E+03  0.65848954696E+03  0.00000000000E+00 0. -1.
          4    1    4    4  502    0  0.18835320483E+03 -0.51038913215E+03 -0.70178586776E+03  0.88796249931E+03  0.00000000000E+00 0. -1.
          1    1    5    5  503    0  0.32661246165E+03  0.12432884601E+03  0.23613444052E+00  0.34947591879E+03  0.00000000000E+00 0. -1.
         -2    1    5    5    0  503  0.47012810174E+00 -0.55883007323E+01  0.40756439407E+01  0.69326040590E+01  0.00000000000E+00 0.  1.
         -3    1    4    4    0  502 -0.56083819472E+01 -0.61509592727E+02 -0.15306680223E+03  0.16505856503E+03  0.00000000000E+00 0.  1.
<mgrwt>
<rscale>  0 0.18142419E+04</rscale>
<asrwt>0</asrwt>
<pdfrwt beam="1">  1        1 0.26972002E+00 0.18142419E+04</pdfrwt>
<pdfrwt beam="2">  1       -1 0.72208859E-01 0.18142419E+04</pdfrwt>
<totfact> 0.79947034E+00</totfact>
</mgrwt>
</event>
<event>
12    1  0.2404191E-008  0.1826023E+04  0.7818608E-02  0.8692582E-01
          1   -1    0    0  501    0  0.00000000000E+00  0.00000000000E+00  0.37501569369E+03  0.37501569369E+03  0.00000000000E+00 0. -1.
         -1   -1    0    0    0  501 -0.00000000000E+00 -0.00000000000E+00 -0.22228128966E+04  0.22228128966E+04  0.00000000000E+00 0.  1.
         23    2    1    2    0    0  0.30174072644E+03 -0.43660695778E+03 -0.82114702886E+02  0.54474375343E+03  0.91267907317E+02 0.  0.
        254    2    1    2    0    0 -0.30174072644E+03  0.43660695778E+03 -0.17656825001E+04  0.20530848369E+04  0.90324390664E+03 0.  0.
        -24    2    4    4    0    0 -0.36515010870E+03  0.47986070179E+03 -0.51492528965E+03  0.79646448770E+03  0.74878109234E+02 0.  0.
         24    2    4    4    0    0  0.63409382260E+02 -0.43253744019E+02 -0.12507572104E+04  0.12566203492E+04  0.93858758115E+02 0.  0.
         13    1    3    3    0    0 -0.55628095684E+00 -0.18079992889E+02  0.94429517210E+01  0.20405022141E+02  0.00000000000E+00 0.  1.
        -13    1    3    3    0    0  0.30229700739E+03 -0.41852696489E+03 -0.91557654607E+02  0.52433873129E+03  0.00000000000E+00 0. -1.
          2    1    6    6  502    0  0.15021204284E+02  0.27673245530E+02 -0.21265749247E+03  0.21497593865E+03  0.00000000000E+00 0. -1.
          1    1    5    5  503    0 -0.49919595888E+02  0.31706715688E+02 -0.60800983184E+02  0.84817695261E+02  0.00000000000E+00 0. -1.
         -2    1    5    5    0  503 -0.31523051281E+03  0.44815398611E+03 -0.45412430647E+03  0.71164679244E+03  0.00000000000E+00 0.  1.
         -3    1    6    6    0  502  0.48388177976E+02 -0.70926989549E+02 -0.10380997179E+04  0.10416444105E+04  0.00000000000E+00 0.  1.
<mgrwt>
<rscale>  0 0.18260227E+04</rscale>
<asrwt>0</asrwt>
<pdfrwt beam="1">  1        1 0.57694722E-01 0.18260227E+04</pdfrwt>
<pdfrwt beam="2">  1       -1 0.34197122E+00 0.18260227E+04</pdfrwt>
<totfact> 0.10831044E+00</totfact>
</mgrwt>
</event>
<event>
12    1  0.2404191E-008  0.1301003E+04  0.7818608E-02  0.9028770E-01
          2   -1    0    0  501    0  0.00000000000E+00  0.00000000000E+00  0.18852925004E+04  0.18852925004E+04  0.00000000000E+00 0. -1.
         -2   -1    0    0    0  501 -0.00000000000E+00 -0.00000000000E+00 -0.22444911756E+03  0.22444911756E+03  0.00000000000E+00 0.  1.
         23    2    1    2    0    0 -0.17212684556E+03  0.28775583780E+03  0.25350869078E+03  0.43010986709E+03  0.91086597902E+02 0.  0.
        254    2    1    2    0    0  0.17212684556E+03 -0.28775583780E+03  0.14073346920E+04  0.16796317508E+04  0.85331167219E+03 0.  0.
        -24    2    4    4    0    0  0.17724396708E+03  0.23761875782E+03  0.88017772187E+03  0.93229443924E+03  0.81129534898E+02 0.  0.
         24    2    4    4    0    0 -0.51171215151E+01 -0.52537459562E+03  0.52715697016E+03  0.74733731160E+03  0.67630876529E+02 0.  0.
         11    1    3    3    0    0 -0.12361975664E+03  0.13157203950E+03  0.10300231206E+03  0.20785216405E+03  0.00000000000E+00 0.  1.
        -11    1    3    3    0    0 -0.48507088923E+02  0.15618379829E+03  0.15050637872E+03  0.22225770304E+03  0.00000000000E+00 0. -1.
          4    1    6    6  502    0 -0.33861185229E+02 -0.27288919907E+03  0.29224113615E+03  0.40127294513E+03  0.00000000000E+00 0. -1.
          1    1    5    5  503    0  0.14085772462E+03  0.18801437268E+03  0.57800646941E+03  0.62392449992E+03  0.00000000000E+00 0. -1.
         -2    1    5    5    0  503  0.36386242457E+02  0.49604385143E+02  0.30217125245E+03  0.30836993932E+03  0.00000000000E+00 0.  1.
         -3    1    6    6    0  502  0.28744063714E+02 -0.25248539655E+03  0.23491583401E+03  0.34606436647E+03  0.00000000000E+00 0.  1.
<mgrwt>
<rscale>  0 0.13010031E+04</rscale>
<asrwt>0</asrwt>
<pdfrwt beam="1">  1        2 0.29004499E+00 0.13010031E+04</pdfrwt>
<pdfrwt beam="2">  1       -2 0.34530635E-01 0.13010031E+04</pdfrwt>
<totfact> 0.59640156E+01</totfact>
</mgrwt>
</event>
<event>
11    1  0.2404191E-008  0.1953364E+04  0.7818608E-02  0.8628740E-01
          1   -1    0    0  501    0  0.00000000000E+00  0.00000000000E+00  0.14629345557E+04  0.14629345557E+04  0.00000000000E+00 0. -1.
         -1   -1    0    0    0  501 -0.00000000000E+00 -0.00000000000E+00 -0.65205074860E+03  0.65205074860E+03  0.00000000000E+00 0.  1.
         23    2    1    2    0    0 -0.51689420709E+03 -0.31060557098E+03  0.82009679185E+03  0.10221178633E+04  0.92253652462E+02 0.  0.
        254    2    1    2    0    0  0.51689420709E+03  0.31060557098E+03 -0.92129847861E+01  0.10928674410E+04  0.91138297242E+03 0.  0.
        -24    2    4    4    0    0 -0.14149017056E+03  0.29782161138E+03  0.19689783273E+03  0.39130238853E+03  0.75044134828E+02 0.  0.
         11    1    3    3    0    0 -0.90033670545E+02 -0.59486929801E+02  0.21183847829E+03  0.23773997883E+03  0.00000000000E+00 0. -1.
        -11    1    3    3    0    0 -0.42686053654E+03 -0.25111864118E+03  0.60825831356E+03  0.78437788445E+03  0.00000000000E+00 0.  1.
          4    1    4    4  502    0  0.78688663290E+00  0.38569818527E+01  0.88348658127E+01  0.96721431706E+01  0.00000000000E+00 0. -1.
          3    1    5    5  503    0 -0.34332151344E+02  0.35597345206E+02  0.56683947221E+02  0.75225909594E+02  0.00000000000E+00 0. -1.
         -4    1    5    5    0  503 -0.10715801922E+03  0.26222426617E+03  0.14021388551E+03  0.31607647894E+03  0.00000000000E+00 0.  1.
         -3    1    4    4    0  502  0.65759749102E+03  0.89269777501E+01 -0.21494568332E+03  0.69189290927E+03  0.00000000000E+00 0.  1.
<mgrwt>
<rscale>  0 0.19533638E+04</rscale>
<asrwt>0</asrwt>
<pdfrwt beam="1">  1        1 0.22506685E+00 0.19533638E+04</pdfrwt>
<pdfrwt beam="2">  1       -1 0.10031550E+00 0.19533638E+04</pdfrwt>
<totfact> 0.61176992E+00</totfact>
</mgrwt>
</event>
<event>
11    1  0.2404191E-008  0.2875746E+04  0.7818608E-02  0.8280130E-01
         -2   -1    0    0    0  501 -0.00000000000E+00  0.00000000000E+00  0.61692758578E+03  0.61692758578E+03  0.00000000000E+00 0. -1.
          2   -1    0    0  501    0  0.00000000000E+00 -0.00000000000E+00 -0.33512510577E+04  0.33512510577E+04  0.00000000000E+00 0.  1.
         23    2    1    2    0    0  0.34795980051E+03 -0.12287313649E+04 -0.15267070153E+04  0.19925032289E+04  0.91531506631E+02 0.  0.
        254    2    1    2    0    0 -0.34795980051E+03  0.12287313649E+04 -0.12076164567E+04  0.19756754146E+04  0.90227437488E+03 0.  0.
        -24    2    4    4    0    0  0.22744018206E+03  0.40299735574E+03 -0.11460675762E+03  0.48340960103E+03  0.80088877662E+02 0.  0.
         13    1    3    3    0    0  0.30498666503E+03 -0.10984028084E+04 -0.14030698722E+04  0.18077916533E+04  0.00000000000E+00 0. -1.
        -13    1    3    3    0    0  0.42973135477E+02 -0.13032855648E+03 -0.12363714302E+03  0.18471157555E+03  0.00000000000E+00 0.  1.
          2    1    4    4  502    0 -0.55099572121E+03  0.72735317661E+03 -0.10108784510E+04  0.13618054821E+04  0.00000000000E+00 0. -1.
          1    1    5    5  503    0  0.10659738265E+03  0.26423535262E+03 -0.56755456528E+02  0.29052453495E+03  0.00000000000E+00 0. -1.
         -2    1    5    5    0  503  0.12084279940E+03  0.13876200313E+03 -0.57851301092E+02  0.19288506608E+03  0.00000000000E+00 0.  1.
         -1    1    4    4    0  502 -0.24404261353E+02  0.98380832575E+02 -0.82131248043E+02  0.13046033150E+03  0.00000000000E+00 0.  1.
<mgrwt>
<rscale>  0 0.28757463E+04</rscale>
<asrwt>0</asrwt>
<pdfrwt beam="1">  1        2 0.51557710E+00 0.28757463E+04</pdfrwt>
<pdfrwt beam="2">  1       -2 0.94911934E-01 0.28757463E+04</pdfrwt>
<totfact> 0.83072513E-01</totfact>
</mgrwt>
</event>
<event>
12    1  0.2404191E-008  0.1489844E+04  0.7818608E-02  0.8891235E-01
         -1   -1    0    0    0  501 -0.00000000000E+00  0.00000000000E+00  0.57500145356E+03  0.57500145356E+03  0.00000000000E+00 0.  1.
          1   -1    0    0  501    0  0.00000000000E+00 -0.00000000000E+00 -0.96505668772E+03  0.96505668772E+03  0.00000000000E+00 0. -1.
         23    2    1    2    0    0 -0.23755371994E+02  0.14151784749E+03 -0.57985121956E+03  0.60574375482E+03  0.10053079541E+03 0.  0.
        254    2    1    2    0    0  0.23755371994E+02 -0.14151784749E+03  0.18979598540E+03  0.93431438646E+03  0.90350940107E+03 0.  0.
        -24    2    4    4    0    0  0.38193875698E+03 -0.29770015867E+03  0.19820049315E+03  0.52966596637E+03  0.82219230616E+02 0.  0.
         24    2    4    4    0    0 -0.35818338499E+03  0.15618231118E+03 -0.84045077530E+01  0.40464842009E+03  0.10479244498E+03 0.  0.
         13    1    3    3    0    0 -0.49165269711E+02  0.57225827352E+02 -0.16183184938E+03  0.17855409974E+03  0.00000000000E+00 0.  1.
        -13    1    3    3    0    0  0.25409897717E+02  0.84292020139E+02 -0.41801937018E+03  0.42718965508E+03  0.00000000000E+00 0. -1.
          2    1    6    6  502    0 -0.33117898903E+03  0.16930092095E+03 -0.19959865759E+02  0.37247915492E+03  0.00000000000E+00 0. -1.
          3    1    5    5  503    0  0.61674152785E+02 -0.48335526492E+02  0.66983702130E+02  0.10308656845E+03  0.00000000000E+00 0. -1.
         -2    1    5    5    0  503  0.32026460420E+03 -0.24936463218E+03  0.13121679102E+03  0.42657939792E+03  0.00000000000E+00 0.  1.
         -1    1    6    6    0  502 -0.27004395955E+02 -0.13118609763E+02  0.11555358006E+02  0.32169265171E+02  0.00000000000E+00 0.  1.
<mgrwt>
<rscale>  0 0.14898443E+04</rscale>
<asrwt>0</asrwt>
<pdfrwt beam="1">  1        1 0.14847026E+00 0.14898443E+04</pdfrwt>
<pdfrwt beam="2">  1       -1 0.88461763E-01 0.14898443E+04</pdfrwt>
<totfact> 0.19590406E+01</totfact>
</mgrwt>
</event>
<event>
11    1  0.2404191E-008  0.1253879E+04  0.7818608E-02  0.9066961E-01
          1   -1    0    0  501    0  0.00000000000E+00  0.00000000000E+00  0.15665862802E+04  0.15665862802E+04  0.00000000000E+00 0. -1.
         -1   -1    0    0    0  501 -0.00000000000E+00 -0.00000000000E+00 -0.25089805321E+03  0.25089805321E+03  0.00000000000E+00 0.  1.
         23    2    1    2    0    0 -0.22091223300E+03  0.17239958166E+02  0.63261992503E+03  0.67637184866E+03  0.90396223802E+02 0.  0.
        254    2    1    2    0    0  0.22091223300E+03 -0.17239958166E+02  0.68306830194E+03  0.11411124847E+04  0.88682352633E+03 0.  0.
        -24    2    4    4    0    0 -0.23177579443E+03  0.12544071891E+03  0.26788467532E+02  0.27623712006E+03  0.78319420690E+02 0.  0.
         11    1    3    3    0    0 -0.16213979803E+03  0.27996806005E+02  0.34008379712E+03  0.37779640590E+03  0.00000000000E+00 0. -1.
        -11    1    3    3    0    0 -0.58772434973E+02 -0.10756847838E+02  0.29253612791E+03  0.29857544276E+03  0.00000000000E+00 0.  1.
          4    1    4    4  502    0  0.70848848751E+02  0.87940187177E+02  0.17850200700E+03  0.21122500419E+03  0.00000000000E+00 0. -1.
          3    1    5    5  503    0 -0.17702002637E+03  0.54561526004E+02  0.14050264875E+02  0.18576991091E+03  0.00000000000E+00 0. -1.
         -4    1    5    5    0  503 -0.54755768059E+02  0.70879192910E+02  0.12738202656E+02  0.90467209143E+02  0.00000000000E+00 0.  1.
         -3    1    4    4    0  502  0.38183917868E+03 -0.23062086426E+03  0.47777782741E+03  0.65365036049E+03  0.00000000000E+00 0.  1.
<mgrwt>
<rscale>  0 0.12538795E+04</rscale>
<asrwt>0</asrwt>
<pdfrwt beam="1">  1        1 0.24101327E+00 0.12538795E+04</pdfrwt>
<pdfrwt beam="2">  1       -1 0.38599701E-01 0.12538795E+04</pdfrwt>
<totfact> 0.37704542E+01</totfact>
</mgrwt>
</event>
<event>
11    1  0.2404191E-008  0.2383346E+04  0.7818608E-02  0.8445765E-01
          2   -1    0    0  501    0  0.00000000000E+00  0.00000000000E+00  0.20393449544E+04  0.20393449544E+04  0.00000000000E+00 0. -1.
         -2   -1    0    0    0  501 -0.00000000000E+00 -0.00000000000E+00 -0.69634361170E+03  0.69634361170E+03  0.00000000000E+00 0.  1.
         23    2    1    2    0    0  0.17411104973E+03  0.95517451363E+03  0.91574452722E+03  0.13379874406E+04  0.94600967222E+02 0.  0.
        254    2    1    2    0    0 -0.17411104973E+03 -0.95517451363E+03  0.42725681552E+03  0.13977011255E+04  0.91013572657E+03 0.  0.
        -24    2    4    4    0    0  0.11991562533E+03 -0.87378326555E+03  0.36909244964E+03  0.95988424247E+03  0.85273502311E+02 0.  0.
         13    1    3    3    0    0  0.50500949791E+02  0.21712238402E+03  0.15970877602E+03  0.27422503298E+03  0.00000000000E+00 0. -1.
        -13    1    3    3    0    0  0.12361009994E+03  0.73805212961E+03  0.75603575120E+03  0.10637624076E+04  0.00000000000E+00 0.  1.
          4    1    4    4  502    0 -0.31172294458E+03  0.35982063856E+02  0.26177913269E+02  0.31488281350E+03  0.00000000000E+00 0. -1.
          3    1    5    5  503    0  0.12729764897E+03 -0.79271882377E+03  0.31669418492E+03  0.86307765106E+03  0.00000000000E+00 0. -1.
         -4    1    5    5    0  503 -0.73820236430E+01 -0.81064441781E+02  0.52398264717E+02  0.96806591406E+02  0.00000000000E+00 0.  1.
         -3    1    4    4    0  502  0.17696269519E+02 -0.11737331193E+03  0.31986452610E+02  0.12293406956E+03  0.00000000000E+00 0.  1.
<mgrwt>
<rscale>  0 0.23833462E+04</rscale>
<asrwt>0</asrwt>
<pdfrwt beam="1">  1        2 0.31374537E+00 0.23833462E+04</pdfrwt>
<pdfrwt beam="2">  1       -2 0.10712979E+00 0.23833462E+04</pdfrwt>
<totfact> 0.40060632E+00</totfact>
</mgrwt>
</event>
<event>
12    1  0.2404191E-008  0.1146745E+04  0.7818608E-02  0.9160792E-01
          2   -1    0    0  501    0  0.00000000000E+00  0.00000000000E+00  0.14640494197E+04  0.14640494197E+04  0.00000000000E+00 0. -1.
         -2   -1    0    0    0  501 -0.00000000000E+00 -0.00000000000E+00 -0.22455261477E+03  0.22455261477E+03  0.00000000000E+00 0.  1.
         23    2    1    2    0    0 -0.10427196594E+03 -0.15894169297E+03  0.30573860303E+03  0.37132109127E+03  0.90929394551E+02 0.  0.
        254    2    1    2    0    0  0.10427196594E+03  0.15894169297E+03  0.93375820188E+03  0.13172809432E+04  0.90949964214E+03 0.  0.
        -24    2    4    4    0    0  0.25770767302E+02 -0.34115307662E+03  0.15736499175E+03  0.38479945571E+03  0.79103263876E+02 0.  0.
         24    2    4    4    0    0  0.78501198636E+02  0.50009476959E+03  0.77639321013E+03  0.93248148747E+03  0.10236254672E+03 0.  0.
         11    1    3    3    0    0 -0.11024181691E+03 -0.16721833385E+03  0.28689119039E+03  0.34988824572E+03  0.00000000000E+00 0. -1.
        -11    1    3    3    0    0  0.59698509724E+01  0.82766408825E+01  0.18847412643E+02  0.21432845548E+02  0.00000000000E+00 0.  1.
          2    1    6    6  502    0  0.15865411101E+02  0.15343951727E+03  0.32629586328E+03  0.36092158030E+03  0.00000000000E+00 0. -1.
          1    1    5    5  503    0 -0.13142408923E+02 -0.45806984205E+02 -0.49902134721E+00  0.47657651396E+02  0.00000000000E+00 0. -1.
         -2    1    5    5    0  503  0.38913176225E+02 -0.29534609241E+03  0.15786401310E+03  0.33714180432E+03  0.00000000000E+00 0.  1.
         -1    1    6    6    0  502  0.62635787535E+02  0.34665525232E+03  0.45009734685E+03  0.57155990717E+03  0.00000000000E+00 0.  1.
<mgrwt>
<rscale>  0 0.11467452E+04</rscale>
<asrwt>0</asrwt>
<pdfrwt beam="1">  1        2 0.22523837E+00 0.11467452E+04</pdfrwt>
<pdfrwt beam="2">  1       -2 0.34546557E-01 0.11467452E+04</pdfrwt>
<totfact> 0.10337639E+02</totfact>
</mgrwt>
</event>
<event>
12    1  0.2404191E-008  0.2886781E+04  0.7818608E-02  0.8276821E-01
          1   -1    0    0  501    0  0.00000000000E+00  0.00000000000E+00  0.20110148225E+04  0.20110148225E+04  0.00000000000E+00 0. -1.
         -1   -1    0    0    0  501 -0.00000000000E+00 -0.00000000000E+00 -0.10359825078E+04  0.10359825078E+04  0.00000000000E+00 0.  1.
         23    2    1    2    0    0 -0.13158471534E+04 -0.38427696881E+02  0.33709485468E+03  0.13618896167E+04  0.90443175866E+02 0.  0.
        254    2    1    2    0    0  0.13158471534E+04  0.38427696881E+02  0.63793745999E+03  0.16851077137E+04  0.83647676884E+03 0.  0.
        -24    2    4    4    0    0  0.11731483662E+04  0.30379405751E+03  0.37739826131E+03  0.12723493434E+04  0.88743933079E+02 0.  0.
         24    2    4    4    0    0  0.14269878723E+03 -0.26536636063E+03  0.26053919868E+03  0.41275837024E+03  0.10819680645E+03 0.  0.
         11    1    3    3    0    0 -0.57556207274E+03 -0.16995046004E+02  0.10124032893E+03  0.58464530732E+03  0.00000000000E+00 0.  1.
        -11    1    3    3    0    0 -0.74028508064E+03 -0.21432650878E+02  0.23585452575E+03  0.77724430938E+03  0.00000000000E+00 0. -1.
          2    1    6    6  502    0  0.13412365803E+03 -0.21136163126E+03  0.15648859552E+03  0.29521445652E+03  0.00000000000E+00 0. -1.
          3    1    5    5  503    0  0.10109068320E+04  0.28201608913E+03  0.30179675680E+03  0.10920379938E+04  0.00000000000E+00 0. -1.
         -2    1    5    5    0  503  0.16224153416E+03  0.21777968377E+02  0.75601504509E+02  0.18031134961E+03  0.00000000000E+00 0.  1.
         -3    1    6    6    0  502  0.85751292023E+01 -0.54004729366E+02  0.10405060316E+03  0.11754391372E+03  0.00000000000E+00 0.  1.
<mgrwt>
<rscale>  0 0.28867810E+04</rscale>
<asrwt>0</asrwt>
<pdfrwt beam="1">  1        1 0.30938690E+00 0.28867810E+04</pdfrwt>
<pdfrwt beam="2">  1       -1 0.15938192E+00 0.28867810E+04</pdfrwt>
<totfact> 0.74353238E-01</totfact>
</mgrwt>
</event>
<event>
12    1  0.2404191E-008  0.1487884E+04  0.7818608E-02  0.8892550E-01
          2   -1    0    0  501    0  0.00000000000E+00  0.00000000000E+00  0.19217250685E+04  0.19217250685E+04  0.00000000000E+00 0. -1.
         -2   -1    0    0    0  501 -0.00000000000E+00 -0.00000000000E+00 -0.28799638678E+03  0.28799638678E+03  0.00000000000E+00 0.  1.
         23    2    1    2    0    0  0.59297415528E+02 -0.12399752147E+03  0.12070128642E+04  0.12181470829E+04  0.90059381944E+02 0.  0.
        254    2    1    2    0    0 -0.59297415528E+02  0.12399752147E+03  0.42671581746E+03  0.99157437238E+03  0.88444433305E+03 0.  0.
        -24    2    4    4    0    0 -0.16061616044E+03  0.15022533774E+03 -0.22403896411E+03  0.32426614555E+03  0.81178030359E+02 0.  0.
         24    2    4    4    0    0  0.10131874491E+03 -0.26227816269E+02  0.65075478157E+03  0.66730822683E+03  0.10423577810E+03 0.  0.
         13    1    3    3    0    0  0.76319905647E+02 -0.69841293941E+02  0.90035206633E+03  0.90627610456E+03  0.00000000000E+00 0. -1.
        -13    1    3    3    0    0 -0.17022490119E+02 -0.54156227531E+02  0.30666079788E+03  0.31187097830E+03  0.00000000000E+00 0.  1.
          4    1    6    6  502    0  0.86621763652E+02  0.28162870423E+02  0.42187955302E+03  0.43160031796E+03  0.00000000000E+00 0. -1.
          3    1    5    5  503    0 -0.11297360462E+02 -0.99075080809E+01 -0.98107890575E+01  0.17945491125E+02  0.00000000000E+00 0. -1.
         -4    1    5    5    0  503 -0.14931879998E+03  0.16013284582E+03 -0.21422817505E+03  0.30632065442E+03  0.00000000000E+00 0.  1.
         -3    1    6    6    0  502  0.14696981261E+02 -0.54390686692E+02  0.22887522855E+03  0.23570790887E+03  0.00000000000E+00 0.  1.
<mgrwt>
<rscale>  0 0.14878842E+04</rscale>
<asrwt>0</asrwt>
<pdfrwt beam="1">  1        2 0.29565000E+00 0.14878842E+04</pdfrwt>
<pdfrwt beam="2">  1       -2 0.44307138E-01 0.14878842E+04</pdfrwt>
<totfact> 0.34509459E+01</totfact>
</mgrwt>
</event>
<event>
12    1  0.2404191E-008  0.1550729E+04  0.7818608E-02  0.8851402E-01
          2   -1    0    0  501    0  0.00000000000E+00  0.00000000000E+00  0.67958579788E+03  0.67958579788E+03  0.00000000000E+00 0. -1.
         -2   -1    0    0    0  501 -0.00000000000E+00 -0.00000000000E+00 -0.88464232912E+03  0.88464232912E+03  0.00000000000E+00 0.  1.
         23    2    1    2    0    0 -0.23373209600E+03  0.25133851433E+03  0.24250561822E+03  0.42964805537E+03  0.89368535449E+02 0.  0.
        254    2    1    2    0    0  0.23373209600E+03 -0.25133851433E+03 -0.44756214946E+03  0.11345800716E+04  0.98445838908E+03 0.  0.
        -24    2    4    4    0    0  0.57425560160E+02  0.35537833025E+03 -0.21405049802E+02  0.36956553410E+03  0.80802569701E+02 0.  0.
         24    2    4    4    0    0  0.17630653584E+03 -0.60671684458E+03 -0.42615709966E+03  0.76501453753E+03  0.66693665131E+02 0.  0.
         13    1    3    3    0    0 -0.19469438261E+03  0.24767533819E+03  0.22200694582E+03  0.38540376199E+03  0.00000000000E+00 0. -1.
        -13    1    3    3    0    0 -0.39037713385E+02  0.36631761377E+01  0.20498672406E+02  0.44244293374E+02  0.00000000000E+00 0.  1.
          2    1    6    6  502    0  0.50248983736E+02 -0.29198377377E+03 -0.19663483386E+03  0.35559069504E+03  0.00000000000E+00 0. -1.
          3    1    5    5  503    0  0.52521844192E+02  0.12437260169E+03  0.14309159372E+02  0.13576391351E+03  0.00000000000E+00 0. -1.
         -4    1    5    5    0  503  0.49037159682E+01  0.23100572856E+03 -0.35714209175E+02  0.23380162060E+03  0.00000000000E+00 0.  1.
         -1    1    6    6    0  502  0.12605755210E+03 -0.31473307081E+03 -0.22952226579E+03  0.40942384249E+03  0.00000000000E+00 0.  1.
<mgrwt>
<rscale>  0 0.15507293E+04</rscale>
<asrwt>0</asrwt>
<pdfrwt beam="1">  1        2 0.10455166E+00 0.15507293E+04</pdfrwt>
<pdfrwt beam="2">  1       -2 0.13609882E+00 0.15507293E+04</pdfrwt>
<totfact> 0.15812622E+01</totfact>
</mgrwt>
</event>
<event>
11    1  0.2404191E-008  0.1645431E+04  0.7818608E-02  0.8793114E-01
          1   -1    0    0  501    0  0.00000000000E+00  0.00000000000E+00  0.53417453099E+03  0.53417453099E+03  0.00000000000E+00 0. -1.
         -1   -1    0    0    0  501 -0.00000000000E+00 -0.00000000000E+00 -0.12671147223E+04  0.12671147223E+04  0.00000000000E+00 0.  1.
         23    2    1    2    0    0 -0.22593358844E+03  0.42672978173E+02 -0.83481067669E+03  0.87063015880E+03  0.90669940064E+02 0.  0.
        254    2    1    2    0    0  0.22593358844E+03 -0.42672978173E+02  0.10187048535E+03  0.93065909452E+03  0.89603670961E+03 0.  0.
        -24    2    4    4    0    0  0.49845498704E+03  0.12518902229E+03 -0.12626302506E+03  0.53518813978E+03  0.79714039307E+02 0.  0.
         11    1    3    3    0    0 -0.15373757424E+03  0.28130774414E+02 -0.69771781425E+03  0.71500820311E+03  0.00000000000E+00 0.  1.
        -11    1    3    3    0    0 -0.72196014199E+02  0.14542203760E+02 -0.13709286245E+03  0.15562195568E+03  0.00000000000E+00 0. -1.
          2    1    4    4  502    0 -0.59796570226E+02 -0.19337460224E+02  0.55464808931E+02  0.83820714674E+02  0.00000000000E+00 0. -1.
          3    1    5    5  503    0  0.33344451198E+03  0.45398133892E+02 -0.73476243208E+02  0.34444882268E+03  0.00000000000E+00 0. -1.
         -4    1    5    5    0  503  0.16501047506E+03  0.79790888402E+02 -0.52786781850E+02  0.19073931710E+03  0.00000000000E+00 0.  1.
         -1    1    4    4    0  502 -0.21272482837E+03 -0.14852454024E+03  0.17266870148E+03  0.31165024006E+03  0.00000000000E+00 0.  1.
<mgrwt>
<rscale>  0 0.16454305E+04</rscale>
<asrwt>0</asrwt>
<pdfrwt beam="1">  1        1 0.82180698E-01 0.16454305E+04</pdfrwt>
<pdfrwt beam="2">  1       -1 0.19494072E+00 0.16454305E+04</pdfrwt>
<totfact> 0.63038810E+00</totfact>
</mgrwt>
</event>
<event>
11    1  0.2404191E-008  0.1081963E+04  0.7818608E-02  0.9222953E-01
         -2   -1    0    0    0  501 -0.00000000000E+00  0.00000000000E+00  0.40396291392E+03  0.40396291392E+03  0.00000000000E+00 0.  1.
          2   -1    0    0  501    0  0.00000000000E+00 -0.00000000000E+00 -0.72447471162E+03  0.72447471162E+03  0.00000000000E+00 0. -1.
         23    2    1    2    0    0 -0.11224146511E+03 -0.12172533812E+02  0.38886015105E+02  0.14924782937E+03  0.89534771633E+02 0.  0.
        254    2    1    2    0    0  0.11224146511E+03  0.12172533812E+02 -0.35939781280E+03  0.97918979617E+03  0.90382495651E+03 0.  0.
        -24    2    4    4    0    0  0.20771559332E+03 -0.38309033075E+03 -0.10968461087E+03  0.45651133082E+03  0.80423330498E+02 0.  0.
         13    1    3    3    0    0 -0.10835345841E+03 -0.36840771558E+01  0.61597026900E+02  0.12469257435E+03  0.00000000000E+00 0.  1.
        -13    1    3    3    0    0 -0.38880066981E+01 -0.84884566563E+01 -0.22711011795E+02  0.24555255023E+02  0.00000000000E+00 0. -1.
          4    1    4    4  502    0  0.43512759597E+02  0.55185052504E+01 -0.37198668807E+02  0.57511347654E+02  0.00000000000E+00 0. -1.
          1    1    5    5  503    0  0.37363126134E+01 -0.34241251765E+02 -0.27629749394E+02  0.44156838722E+02  0.00000000000E+00 0. -1.
         -2    1    5    5    0  503  0.20397928071E+03 -0.34884907898E+03 -0.82054861479E+02  0.41235449210E+03  0.00000000000E+00 0.  1.
         -3    1    4    4    0  502 -0.13898688781E+03  0.38974435931E+03 -0.21251453312E+03  0.46516711769E+03  0.00000000000E+00 0.  1.
<mgrwt>
<rscale>  0 0.10819629E+04</rscale>
<asrwt>0</asrwt>
<pdfrwt beam="1">  1        2 0.11145765E+00 0.10819629E+04</pdfrwt>
<pdfrwt beam="2">  1       -2 0.62148141E-01 0.10819629E+04</pdfrwt>
<totfact> 0.93721723E+01</totfact>
</mgrwt>
</event>
<event>
11    1  0.2404191E-008  0.1890437E+04  0.7818608E-02  0.8659631E-01
          2   -1    0    0  501    0  0.00000000000E+00  0.00000000000E+00  0.13569211147E+04  0.13569211147E+04  0.00000000000E+00 0. -1.
         -2   -1    0    0    0  501 -0.00000000000E+00 -0.00000000000E+00 -0.65843027860E+03  0.65843027860E+03  0.00000000000E+00 0.  1.
         23    2    1    2    0    0  0.24823475356E+03  0.56056857358E+03  0.69584674702E+03  0.93186800082E+03  0.91201190035E+02 0.  0.
        254    2    1    2    0    0 -0.24823475356E+03 -0.56056857358E+03  0.26440890973E+01  0.10834833925E+04  0.89334856134E+03 0.  0.
        -24    2    4    4    0    0 -0.44906218544E+03 -0.64139071968E+03 -0.12877847963E+03  0.79754380742E+03  0.80332597692E+02 0.  0.
         13    1    3    3    0    0  0.94635826032E+01  0.10396819004E+03  0.10947219955E+03  0.15127163122E+03  0.00000000000E+00 0.  1.
        -13    1    3    3    0    0  0.23877117096E+03  0.45660038353E+03  0.58637454747E+03  0.78059636960E+03  0.00000000000E+00 0. -1.
          2    1    4    4  502    0  0.16603270149E+03  0.39723616050E+02  0.15171791182E+03  0.22839253141E+03  0.00000000000E+00 0. -1.
          1    1    5    5  503    0 -0.43658438510E+03 -0.59442359662E+03 -0.11118205092E+03  0.74585976294E+03  0.00000000000E+00 0. -1.
         -2    1    5    5    0  503 -0.12477800338E+02 -0.46967123061E+02 -0.17596428710E+02  0.51684044475E+02  0.00000000000E+00 0.  1.
         -1    1    4    4    0  502  0.34794730389E+02  0.41098530053E+02 -0.20295343092E+02  0.57547053674E+02  0.00000000000E+00 0.  1.
<mgrwt>
<rscale>  0 0.18904369E+04</rscale>
<asrwt>0</asrwt>
<pdfrwt beam="1">  1        2 0.20875709E+00 0.18904369E+04</pdfrwt>
<pdfrwt beam="2">  1       -2 0.10129697E+00 0.18904369E+04</pdfrwt>
<totfact> 0.11504364E+01</totfact>
</mgrwt>
</event>
<event>
12    1  0.2404191E-008  0.1868119E+04  0.7818608E-02  0.8670890E-01
          1   -1    0    0  501    0  0.00000000000E+00  0.00000000000E+00  0.13490193884E+04  0.13490193884E+04  0.00000000000E+00 0. -1.
         -1   -1    0    0    0  501 -0.00000000000E+00 -0.00000000000E+00 -0.64674183087E+03  0.64674183087E+03  0.00000000000E+00 0.  1.
         23    2    1    2    0    0  0.69002138849E+03  0.10791792450E+03  0.43684521820E+03  0.82872915781E+03  0.90457046862E+02 0.  0.
        254    2    1    2    0    0 -0.69002138849E+03 -0.10791792450E+03  0.26543233937E+03  0.11670320615E+04  0.89651196913E+03 0.  0.
        -24    2    4    4    0    0  0.54655661663E+02 -0.23793299314E+03 -0.15114461942E+03  0.29794231825E+03  0.79533505178E+02 0.  0.
         24    2    4    4    0    0 -0.74467705016E+03  0.13001506864E+03  0.41657695878E+03  0.86908974326E+03  0.10165034256E+03 0.  0.
         11    1    3    3    0    0  0.77866635599E+02  0.90072339374E+01  0.85589765496E+02  0.11606011873E+03  0.00000000000E+00 0.  1.
        -11    1    3    3    0    0  0.61215475290E+03  0.98910690567E+02  0.35125545271E+03  0.71266903908E+03  0.00000000000E+00 0. -1.
          2    1    6    6  502    0 -0.52028747966E+03  0.81286788464E+02  0.34094225084E+03  0.62733421864E+03  0.00000000000E+00 0. -1.
          3    1    5    5  503    0  0.27666711118E+02 -0.18412271855E+03 -0.14767405934E+03  0.23764311518E+03  0.00000000000E+00 0. -1.
         -4    1    5    5    0  503  0.26988950545E+02 -0.53810274592E+02 -0.34705600763E+01  0.60299203066E+02  0.00000000000E+00 0.  1.
         -1    1    6    6    0  502 -0.22438957050E+03  0.48728280173E+02  0.75634707939E+02  0.24175552462E+03  0.00000000000E+00 0.  1.
<mgrwt>
<rscale>  0 0.18681191E+04</rscale>
<asrwt>0</asrwt>
<pdfrwt beam="1">  1        1 0.20754144E+00 0.18681191E+04</pdfrwt>
<pdfrwt beam="2">  1       -1 0.99498743E-01 0.18681191E+04</pdfrwt>
<totfact> 0.75500330E+00</totfact>
</mgrwt>
</event>
<event>
11    1  0.2404191E-008  0.1119742E+04  0.7818608E-02  0.9186161E-01
         -1   -1    0    0    0  501 -0.00000000000E+00  0.00000000000E+00  0.11633670078E+03  0.11633670078E+03  0.00000000000E+00 0.  1.
          1   -1    0    0  501    0  0.00000000000E+00 -0.00000000000E+00 -0.26943804435E+04  0.26943804435E+04  0.00000000000E+00 0. -1.
         23    2    1    2    0    0 -0.12170288627E+03  0.37216028025E+02 -0.37308801544E+03  0.40463832179E+03  0.91328412478E+02 0.  0.
        254    2    1    2    0    0  0.12170288627E+03 -0.37216028025E+02 -0.22049557273E+04  0.24060788225E+04  0.95456215905E+03 0.  0.
        -24    2    4    4    0    0 -0.23067542589E+03 -0.26937392297E+03 -0.37896290187E+03  0.52501251484E+03  0.79068307539E+02 0.  0.
         11    1    3    3    0    0 -0.45942294455E+02  0.43594493172E+02 -0.26516855706E+03  0.27262710414E+03  0.00000000000E+00 0. -1.
        -11    1    3    3    0    0 -0.75760591811E+02 -0.63784651470E+01 -0.10791945838E+03  0.13201121765E+03  0.00000000000E+00 0.  1.
          4    1    4    4  502    0  0.23983088847E+03  0.23288679438E+03 -0.14776088848E+04  0.15149531777E+04  0.00000000000E+00 0. -1.
          3    1    5    5  503    0 -0.12850677707E+03 -0.17336109229E+03 -0.17670941939E+03  0.27891625800E+03  0.00000000000E+00 0. -1.
         -4    1    5    5    0  503 -0.10216864883E+03 -0.96012830678E+02 -0.20225348248E+03  0.24609625684E+03  0.00000000000E+00 0.  1.
         -3    1    4    4    0  502  0.11254742369E+03 -0.72889943621E+00 -0.34838394059E+03  0.36611312997E+03  0.00000000000E+00 0.  1.
<mgrwt>
<rscale>  0 0.11197416E+04</rscale>
<asrwt>0</asrwt>
<pdfrwt beam="1">  1        1 0.41452006E+00 0.11197416E+04</pdfrwt>
<pdfrwt beam="2">  1       -1 0.17897954E-01 0.11197416E+04</pdfrwt>
<totfact> 0.24532352E+01</totfact>
</mgrwt>
</event>
<event>
11    1  0.2404191E-008  0.1615663E+04  0.7818608E-02  0.8810983E-01
          2   -1    0    0  501    0  0.00000000000E+00  0.00000000000E+00  0.69972348096E+03  0.69972348096E+03  0.00000000000E+00 0. -1.
         -2   -1    0    0    0  501 -0.00000000000E+00 -0.00000000000E+00 -0.93264281472E+03  0.93264281472E+03  0.00000000000E+00 0.  1.
         23    2    1    2    0    0 -0.51998142228E+03 -0.10726342554E+03 -0.23334382438E+03  0.58710426921E+03  0.91410943459E+02 0.  0.
        254    2    1    2    0    0  0.51998142228E+03  0.10726342554E+03  0.42449061867E+00  0.10452620265E+04  0.90038125358E+03 0.  0.
        -24    2    4    4    0    0  0.39663899365E+03 -0.17120363828E+03  0.16917444730E+03  0.47056124393E+03  0.78579346037E+02 0.  0.
         11    1    3    3    0    0 -0.24545505495E+02  0.14533637581E+02 -0.13710776330E+02  0.31649547373E+02  0.00000000000E+00 0. -1.
        -11    1    3    3    0    0 -0.49543591678E+03 -0.12179706312E+03 -0.21963304805E+03  0.55545472184E+03  0.00000000000E+00 0.  1.
          4    1    4    4  502    0 -0.51416385725E+01 -0.11835534838E+03  0.14050836273E+02  0.11929732158E+03  0.00000000000E+00 0. -1.
          1    1    5    5  503    0  0.64209255685E+02 -0.94213317336E+01  0.50642292192E+02  0.82317870270E+02  0.00000000000E+00 0. -1.
         -2    1    5    5    0  503  0.33242973796E+03 -0.16178230654E+03  0.11853215511E+03  0.38824337366E+03  0.00000000000E+00 0.  1.
         -3    1    4    4    0  502  0.12848406720E+03  0.39682241219E+03 -0.18280079295E+03  0.45540346095E+03  0.00000000000E+00 0.  1.
<mgrwt>
<rscale>  0 0.16156634E+04</rscale>
<asrwt>0</asrwt>
<pdfrwt beam="1">  1        2 0.10764977E+00 0.16156634E+04</pdfrwt>
<pdfrwt beam="2">  1       -2 0.14348351E+00 0.16156634E+04</pdfrwt>
<totfact> 0.13218967E+01</totfact>
</mgrwt>
</event>
<event>
12    1  0.2404191E-008  0.3614100E+04  0.7818608E-02  0.8087270E-01
          2   -1    0    0  501    0  0.00000000000E+00  0.00000000000E+00  0.22688189630E+04  0.22688189630E+04  0.00000000000E+00 0. -1.
         -2   -1    0    0    0  501 -0.00000000000E+00 -0.00000000000E+00 -0.14392638568E+04  0.14392638568E+04  0.00000000000E+00 0.  1.
         23    2    1    2    0    0  0.39494348942E+02 -0.79463740265E+03  0.19217612061E+04  0.20819601763E+04  0.91562202996E+02 0.  0.
        254    2    1    2    0    0 -0.39494348942E+02  0.79463740265E+03 -0.10922060999E+04  0.16261226435E+04  0.90462825615E+03 0.  0.
        -24    2    4    4    0    0  0.22221920386E+03  0.29462798931E+03  0.19186686482E+02  0.37782447100E+03  0.78715788152E+02 0.  0.
         24    2    4    4    0    0 -0.26171355280E+03  0.50000941334E+03 -0.11113927863E+04  0.12482981725E+04  0.67461135169E+02 0.  0.
         11    1    3    3    0    0  0.45229703375E+02 -0.36740124668E+03  0.98852194575E+03  0.10555591122E+04  0.00000000000E+00 0.  1.
        -11    1    3    3    0    0 -0.57353544332E+01 -0.42723615597E+03  0.93323926040E+03  0.10264010641E+04  0.00000000000E+00 0. -1.
          2    1    6    6  502    0 -0.25104430238E+03  0.48986802924E+03 -0.10543864756E+04  0.11894220310E+04  0.00000000000E+00 0. -1.
          1    1    5    5  503    0  0.20398647233E+03  0.23265427353E+03  0.34791744486E+02  0.31136627526E+03  0.00000000000E+00 0. -1.
         -2    1    5    5    0  503  0.18232731529E+02  0.61973715774E+02 -0.15605058004E+02  0.66458195741E+02  0.00000000000E+00 0.  1.
         -1    1    6    6    0  502 -0.10669250424E+02  0.10141384105E+02 -0.57006310730E+02  0.58876141511E+02  0.00000000000E+00 0.  1.
<mgrwt>
<rscale>  0 0.36140997E+04</rscale>
<asrwt>0</asrwt>
<pdfrwt beam="1">  1        2 0.34904907E+00 0.36140997E+04</pdfrwt>
<pdfrwt beam="2">  1       -2 0.22142521E+00 0.36140997E+04</pdfrwt>
<totfact> 0.37213015E-01</totfact>
</mgrwt>
</event>
<event>
12    1  0.2404191E-008  0.1619245E+04  0.7818608E-02  0.8808811E-01
          1   -1    0    0  501    0  0.00000000000E+00  0.00000000000E+00  0.10673258816E+04  0.10673258816E+04  0.00000000000E+00 0. -1.
         -1   -1    0    0    0  501 -0.00000000000E+00 -0.00000000000E+00 -0.61414120844E+03  0.61414120844E+03  0.00000000000E+00 0.  1.
         23    2    1    2    0    0  0.19926581814E+03 -0.46345886997E+03 -0.73001393693E+02  0.51786646458E+03  0.91408321396E+02 0.  0.
        254    2    1    2    0    0 -0.19926581814E+03  0.46345886997E+03  0.52618606685E+03  0.11636006255E+04  0.90696948580E+03 0.  0.
        -24    2    4    4    0    0  0.16119226230E+03  0.27174073710E+03 -0.15651238775E+03  0.36122046169E+03  0.78473694964E+02 0.  0.
         24    2    4    4    0    0 -0.36045808045E+03  0.19171813287E+03  0.68269845460E+03  0.80238016376E+03  0.10512315183E+03 0.  0.
         11    1    3    3    0    0  0.32370696465E+02 -0.78952893578E+02  0.21892401811E+02  0.88094827606E+02  0.00000000000E+00 0. -1.
        -11    1    3    3    0    0  0.16689512168E+03 -0.38450597639E+03 -0.94893795504E+02  0.42977163697E+03  0.00000000000E+00 0.  1.
          2    1    6    6  502    0 -0.29748270044E+03  0.15454914291E+03  0.46881236005E+03  0.57633880970E+03  0.00000000000E+00 0. -1.
          3    1    5    5  503    0  0.14486645242E+03  0.27058135867E+03 -0.15720466918E+03  0.34483890254E+03  0.00000000000E+00 0. -1.
         -4    1    5    5    0  503  0.16325809885E+02  0.11593784345E+01  0.69228142711E+00  0.16381559155E+02  0.00000000000E+00 0.  1.
         -1    1    6    6    0  502 -0.62975380007E+02  0.37168989963E+02  0.21388609455E+03  0.22604135406E+03  0.00000000000E+00 0.  1.
<mgrwt>
<rscale>  0 0.16192453E+04</rscale>
<asrwt>0</asrwt>
<pdfrwt beam="1">  1        1 0.16420398E+00 0.16192453E+04</pdfrwt>
<pdfrwt beam="2">  1       -1 0.94483263E-01 0.16192453E+04</pdfrwt>
<totfact> 0.13942038E+01</totfact>
</mgrwt>
</event>
<event>
12    1  0.2404191E-008  0.1701121E+04  0.7818608E-02  0.8760725E-01
         -2   -1    0    0    0  501 -0.00000000000E+00  0.00000000000E+00  0.11061374788E+04  0.11061374788E+04  0.00000000000E+00 0.  1.
          2   -1    0    0  501    0  0.00000000000E+00 -0.00000000000E+00 -0.65403555415E+03  0.65403555415E+03  0.00000000000E+00 0. -1.
         23    2    1    2    0    0 -0.19087165054E+03  0.58625244442E+03  0.28436315187E+02  0.62449816614E+03  0.95212498784E+02 0.  0.
        254    2    1    2    0    0  0.19087165054E+03 -0.58625244442E+03  0.42366560941E+03  0.11356748668E+04  0.85448284876E+03 0.  0.
        -24    2    4    4    0    0 -0.14268131873E+02 -0.48734720527E+03  0.63741408137E+03  0.80641077181E+03  0.79314208558E+02 0.  0.
         24    2    4    4    0    0  0.20513978242E+03 -0.98905239148E+02 -0.21374847196E+03  0.32926409496E+03  0.10422023940E+03 0.  0.
         13    1    3    3    0    0 -0.22232586537E+02  0.55949689469E+02  0.31650526012E+02  0.68017728958E+02  0.00000000000E+00 0.  1.
        -13    1    3    3    0    0 -0.16863906401E+03  0.53030275495E+03 -0.32142108250E+01  0.55648043719E+03  0.00000000000E+00 0. -1.
          4    1    6    6  502    0  0.18121769371E+03 -0.11243859143E+03 -0.15264808752E+03  0.26226652089E+03  0.00000000000E+00 0. -1.
          1    1    5    5  503    0 -0.27390743355E+02 -0.14818727040E+03  0.24435316404E+03  0.28708568182E+03  0.00000000000E+00 0. -1.
         -2    1    5    5    0  503  0.13122611483E+02 -0.33915993487E+03  0.39306091734E+03  0.51932508999E+03  0.00000000000E+00 0.  1.
         -3    1    6    6    0  502  0.23922088709E+02  0.13533352281E+02 -0.61100384443E+02  0.66997574070E+02  0.00000000000E+00 0.  1.
<mgrwt>
<rscale>  0 0.17011211E+04</rscale>
<asrwt>0</asrwt>
<pdfrwt beam="1">  1        2 0.10062085E+00 0.17011211E+04</pdfrwt>
<pdfrwt beam="2">  1       -2 0.17017500E+00 0.17011211E+04</pdfrwt>
<totfact> 0.90151215E+00</totfact>
</mgrwt>
</event>
<event>
11    1  0.2404191E-008  0.1705090E+04  0.7818608E-02  0.8758467E-01
         -2   -1    0    0    0  501 -0.00000000000E+00  0.00000000000E+00  0.34770026100E+03  0.34770026100E+03  0.00000000000E+00 0.  1.
          2   -1    0    0  501    0  0.00000000000E+00 -0.00000000000E+00 -0.20904003024E+04  0.20904003024E+04  0.00000000000E+00 0. -1.
         23    2    1    2    0    0 -0.58078209367E+03  0.12993915799E+03 -0.43966250680E+03  0.74567783966E+03  0.92413719612E+02 0.  0.
        254    2    1    2    0    0  0.58078209367E+03 -0.12993915799E+03 -0.13030375346E+04  0.16924227237E+04  0.90121908220E+03 0.  0.
        -24    2    4    4    0    0  0.30968431247E+02 -0.39373311251E+03 -0.54373680076E+03  0.67716999187E+03  0.83214672737E+02 0.  0.
         13    1    3    3    0    0 -0.29868866854E+03  0.11067721003E+03 -0.25417670236E+03  0.40751706903E+03  0.00000000000E+00 0. -1.
        -13    1    3    3    0    0 -0.28209342514E+03  0.19261947955E+02 -0.18548580444E+03  0.33816077063E+03  0.00000000000E+00 0.  1.
          2    1    4    4  502    0  0.30545837504E+03  0.22683357774E+02 -0.22452481223E+03  0.37977723063E+03  0.00000000000E+00 0. -1.
          3    1    5    5  503    0  0.19092007645E+02 -0.22964975365E+02 -0.64984755381E+02  0.71518621921E+02  0.00000000000E+00 0. -1.
         -4    1    5    5    0  503  0.11876423602E+02 -0.37076813714E+03 -0.47875204538E+03  0.60565136994E+03  0.00000000000E+00 0.  1.
         -1    1    4    4    0  502  0.24435528738E+03  0.24111059675E+03 -0.53477592158E+03  0.63547550121E+03  0.00000000000E+00 0.  1.
<mgrwt>
<rscale>  0 0.17050897E+04</rscale>
<asrwt>0</asrwt>
<pdfrwt beam="1">  1        2 0.32160005E+00 0.17050897E+04</pdfrwt>
<pdfrwt beam="2">  1       -2 0.53492348E-01 0.17050897E+04</pdfrwt>
<totfact> 0.18641588E+01</totfact>
</mgrwt>
</event>
<event>
12    1  0.2404191E-008  0.2701326E+04  0.7818608E-02  0.8334575E-01
         -2   -1    0    0    0  501 -0.00000000000E+00  0.00000000000E+00  0.12726185547E+04  0.12726185547E+04  0.00000000000E+00 0.  1.
          2   -1    0    0  501    0  0.00000000000E+00 -0.00000000000E+00 -0.14334935644E+04  0.14334935644E+04  0.00000000000E+00 0. -1.
         23    2    1    2    0    0 -0.78471953677E+02  0.22941398736E+03  0.11048424713E+04  0.11346391611E+04  0.89109563852E+02 0.  0.
        254    2    1    2    0    0  0.78471953677E+02 -0.22941398736E+03 -0.12657174811E+04  0.15714729580E+04  0.89927631497E+03 0.  0.
        -24    2    4    4    0    0  0.45805188899E+03 -0.24680507263E+03 -0.59235846990E+03  0.79231491666E+03  0.78422531307E+02 0.  0.
         24    2    4    4    0    0 -0.37957993531E+03  0.17391085271E+02 -0.67335901120E+03  0.77915804135E+03  0.96392521971E+02 0.  0.
         11    1    3    3    0    0 -0.66944506599E+02  0.22057048457E+03  0.10890631581E+04  0.11131897718E+04  0.00000000000E+00 0.  1.
        -11    1    3    3    0    0 -0.11527447078E+02  0.88435027874E+01  0.15779313246E+02  0.21449389367E+02  0.00000000000E+00 0. -1.
          4    1    6    6  502    0 -0.67654997311E+02 -0.29811400125E+02 -0.16592957517E+03  0.18165500861E+03  0.00000000000E+00 0. -1.
          3    1    5    5  503    0  0.34291569841E+01 -0.16270999774E+01  0.24663072590E+01  0.45265045514E+01  0.00000000000E+00 0. -1.
         -4    1    5    5    0  503  0.45462273200E+03 -0.24517797265E+03 -0.59482477716E+03  0.78778841211E+03  0.00000000000E+00 0.  1.
         -3    1    6    6    0  502 -0.31192493800E+03  0.47202485396E+02 -0.50742943604E+03  0.59750303274E+03  0.00000000000E+00 0.  1.
<mgrwt>
<rscale>  0 0.27013260E+04</rscale>
<asrwt>0</asrwt>
<pdfrwt beam="1">  1        2 0.22053747E+00 0.27013260E+04</pdfrwt>
<pdfrwt beam="2">  1       -2 0.19578747E+00 0.27013260E+04</pdfrwt>
<totfact> 0.17225095E+00</totfact>
</mgrwt>
</event>
<event>
11    1  0.2404191E-008  0.3026211E+04  0.7818608E-02  0.8236285E-01
         -1   -1    0    0    0  501 -0.00000000000E+00  0.00000000000E+00  0.11274482037E+04  0.11274482037E+04  0.00000000000E+00 0.  1.
          1   -1    0    0  501    0  0.00000000000E+00 -0.00000000000E+00 -0.20306821504E+04  0.20306821504E+04  0.00000000000E+00 0. -1.
         23    2    1    2    0    0  0.10861510753E+04 -0.59296885793E+03  0.21871927847E+03  0.12601147828E+04  0.93353726517E+02 0.  0.
        254    2    1    2    0    0 -0.10861510753E+04  0.59296885793E+03 -0.11219532252E+04  0.18980155713E+04  0.90130341426E+03 0.  0.
        -24    2    4    4    0    0 -0.52114230945E+03  0.71792571629E+03 -0.41267288226E+03  0.98154984197E+03  0.78323327996E+02 0.  0.
         11    1    3    3    0    0  0.10705986030E+04 -0.59307229954E+03  0.20855688441E+03  0.12415361836E+04  0.00000000000E+00 0.  1.
        -11    1    3    3    0    0  0.15552472307E+02  0.10344161275E+00  0.10162394057E+02  0.18578599193E+02  0.00000000000E+00 0. -1.
          2    1    4    4  502    0 -0.10137793254E+02 -0.29820921452E+01 -0.52459097008E+01  0.11797766493E+02  0.00000000000E+00 0. -1.
          3    1    5    5  503    0 -0.16259193882E+03  0.24896614448E+03 -0.17609146930E+03  0.34558426646E+03  0.00000000000E+00 0. -1.
         -4    1    5    5    0  503 -0.35855037062E+03  0.46895957182E+03 -0.23658141296E+03  0.63596557551E+03  0.00000000000E+00 0.  1.
         -1    1    4    4    0  502 -0.55487097259E+03 -0.12197476622E+03 -0.70403443322E+03  0.90466796284E+03  0.00000000000E+00 0.  1.
<mgrwt>
<rscale>  0 0.30262115E+04</rscale>
<asrwt>0</asrwt>
<pdfrwt beam="1">  1        1 0.31241264E+00 0.30262115E+04</pdfrwt>
<pdfrwt beam="2">  1       -1 0.17345357E+00 0.30262115E+04</pdfrwt>
<totfact> 0.55989860E-01</totfact>
</mgrwt>
</event>
<event>
11    1  0.2404191E-008  0.2123253E+04  0.7818608E-02  0.8551069E-01
          4   -1    0    0  501    0  0.00000000000E+00  0.00000000000E+00  0.13339116520E+04  0.13339116520E+04  0.00000000000E+00 0. -1.
         -4   -1    0    0    0  501 -0.00000000000E+00 -0.00000000000E+00 -0.84492164114E+03  0.84492164114E+03  0.00000000000E+00 0.  1.
         23    2    1    2    0    0  0.23839977274E+03 -0.56733386148E+03 -0.42989764744E+03  0.75628026102E+03  0.91900402101E+02 0.  0.
        254    2    1    2    0    0 -0.23839977274E+03  0.56733386148E+03  0.91888765829E+03  0.14225530321E+04  0.89476278340E+03 0.  0.
        -24    2    4    4    0    0 -0.56057216776E+02 -0.20959964119E+03  0.88571165590E+02  0.24458707578E+03  0.70025460552E+02 0.  0.
         11    1    3    3    0    0  0.21548038262E+03 -0.47918253549E+03 -0.40026288470E+03  0.66049835313E+03  0.00000000000E+00 0.  1.
        -11    1    3    3    0    0  0.22919390123E+02 -0.88151325989E+02 -0.29634762745E+02  0.95781907896E+02  0.00000000000E+00 0. -1.
          2    1    4    4  502    0 -0.31411496220E+02  0.34522825731E+03  0.52124769666E+03  0.62599392410E+03  0.00000000000E+00 0. -1.
          1    1    5    5  503    0 -0.47723175199E+01 -0.13577938726E+03  0.69867691542E+02  0.15277536235E+03  0.00000000000E+00 0. -1.
         -2    1    5    5    0  503 -0.51284899256E+02 -0.73820253928E+02  0.18703474048E+02  0.91811713431E+02  0.00000000000E+00 0.  1.
         -1    1    4    4    0  502 -0.15093105975E+03  0.43170524536E+03  0.30906879604E+03  0.55197203222E+03  0.00000000000E+00 0.  1.
<mgrwt>
<rscale>  0 0.21232530E+04</rscale>
<asrwt>0</asrwt>
<pdfrwt beam="1">  1        4 0.20521718E+00 0.21232530E+04</pdfrwt>
<pdfrwt beam="2">  1       -4 0.12998794E+00 0.21232530E+04</pdfrwt>
<totfact> 0.96731355E-02</totfact>
</mgrwt>
</event>
<event>
11    1  0.2404191E-008  0.1763360E+04  0.7818608E-02  0.8726030E-01
          1   -1    0    0  501    0  0.00000000000E+00  0.00000000000E+00  0.25137880781E+04  0.25137880781E+04  0.00000000000E+00 0. -1.
         -1   -1    0    0    0  501 -0.00000000000E+00 -0.00000000000E+00 -0.30923839541E+03  0.30923839541E+03  0.00000000000E+00 0.  1.
         23    2    1    2    0    0  0.13354527172E+03 -0.34207714708E+02 -0.19438604527E+03  0.25471435210E+03  0.89938641446E+02 0.  0.
        254    2    1    2    0    0 -0.13354527172E+03  0.34207714708E+02  0.23989357280E+04  0.25683121214E+04  0.90682413879E+03 0.  0.
        -24    2    4    4    0    0 -0.63414169278E+02 -0.30774980845E+02  0.24127185122E+04  0.24150798197E+04  0.80196384602E+02 0.  0.
         11    1    3    3    0    0  0.24228169776E+02 -0.81371774067E+00  0.51267032425E+01  0.24778003015E+02  0.00000000000E+00 0. -1.
        -11    1    3    3    0    0  0.10931710194E+03 -0.33393996968E+02 -0.19951274852E+03  0.22993634909E+03  0.00000000000E+00 0.  1.
          2    1    4    4  502    0  0.94224577709E+01  0.17385463779E+01  0.37986901159E+02  0.39176650107E+02  0.00000000000E+00 0. -1.
          1    1    5    5  503    0 -0.44473342510E+02 -0.16170498347E+01  0.48245241094E+03  0.48450059016E+03  0.00000000000E+00 0. -1.
         -2    1    5    5    0  503 -0.18940826768E+02 -0.29157931011E+02  0.19302661012E+04  0.19305792295E+04  0.00000000000E+00 0.  1.
         -3    1    4    4    0  502 -0.79553560209E+02  0.63244149176E+02 -0.51769685358E+02  0.11405565163E+03  0.00000000000E+00 0.  1.
<mgrwt>
<rscale>  0 0.17633602E+04</rscale>
<asrwt>0</asrwt>
<pdfrwt beam="1">  1        1 0.38673661E+00 0.17633602E+04</pdfrwt>
<pdfrwt beam="2">  1       -1 0.47575139E-01 0.17633602E+04</pdfrwt>
<totfact> 0.55401897E+00</totfact>
</mgrwt>
</event>
<event>
11    1  0.2404191E-008  0.2256294E+04  0.7818608E-02  0.8495356E-01
         -2   -1    0    0    0  501 -0.00000000000E+00  0.00000000000E+00  0.12096044419E+04  0.12096044419E+04  0.00000000000E+00 0.  1.
          2   -1    0    0  501    0  0.00000000000E+00 -0.00000000000E+00 -0.10521752069E+04  0.10521752069E+04  0.00000000000E+00 0. -1.
         23    2    1    2    0    0 -0.40592473523E+03  0.65186870678E+03 -0.48903247308E+03  0.91480991912E+03  0.89536176104E+02 0.  0.
        254    2    1    2    0    0  0.40592473523E+03 -0.65186870678E+03  0.64646170809E+03  0.13469697297E+04  0.89816869855E+03 0.  0.
        -24    2    4    4    0    0  0.45388607869E+03 -0.55287935865E+03  0.50018769779E+02  0.72163171116E+03  0.81007972320E+02 0.  0.
         13    1    3    3    0    0 -0.34730473050E+02  0.10478142613E+03 -0.49980823711E+02  0.12117522749E+03  0.00000000000E+00 0.  1.
        -13    1    3    3    0    0 -0.37119426218E+03  0.54708728066E+03 -0.43905164937E+03  0.79363469162E+03  0.00000000000E+00 0. -1.
          2    1    4    4  502    0  0.45347796607E+02 -0.22858288932E+02  0.77872526920E+02  0.92968029337E+02  0.00000000000E+00 0. -1.
          1    1    5    5  503    0  0.17433614470E+03 -0.23011469946E+03  0.58443510122E+02  0.29455306844E+03  0.00000000000E+00 0. -1.
         -2    1    5    5    0  503  0.27954993400E+03 -0.32276465919E+03 -0.84247403422E+01  0.42707864272E+03  0.00000000000E+00 0.  1.
         -3    1    4    4    0  502 -0.93309140066E+02 -0.76131059206E+02  0.51857041139E+03  0.53236998917E+03  0.00000000000E+00 0.  1.
<mgrwt>
<rscale>  0 0.22562941E+04</rscale>
<asrwt>0</asrwt>
<pdfrwt beam="1">  1        2 0.16187311E+00 0.22562941E+04</pdfrwt>
<pdfrwt beam="2">  1       -2 0.18609299E+00 0.22562941E+04</pdfrwt>
<totfact> 0.34963959E+00</totfact>
</mgrwt>
</event>
<event>
11    1  0.2404191E-008  0.1511365E+04  0.7818608E-02  0.8876930E-01
          2   -1    0    0  501    0  0.00000000000E+00  0.00000000000E+00  0.14075489932E+04  0.14075489932E+04  0.00000000000E+00 0. -1.
         -2   -1    0    0    0  501 -0.00000000000E+00 -0.00000000000E+00 -0.40570976997E+03  0.40570976997E+03  0.00000000000E+00 0.  1.
         23    2    1    2    0    0  0.28240912784E+03  0.12308588821E+03  0.76699267850E+03  0.83141491262E+03  0.89821693893E+02 0.  0.
        254    2    1    2    0    0 -0.28240912784E+03 -0.12308588821E+03  0.23484654473E+03  0.98184385055E+03  0.90219698289E+03 0.  0.
        -24    2    4    4    0    0 -0.35442669756E+03  0.30676495211E+03  0.10441058690E+02  0.47564230233E+03  0.80022273590E+02 0.  0.
         11    1    3    3    0    0  0.27821725062E+03  0.10043767362E+03  0.68253180730E+03  0.74386976871E+03  0.00000000000E+00 0. -1.
        -11    1    3    3    0    0  0.41918772189E+01  0.22648214586E+02  0.84460871196E+02  0.87545143907E+02  0.00000000000E+00 0.  1.
          2    1    4    4  502    0 -0.30827076592E+02 -0.17746924451E+03  0.10652590058E+03  0.20926874801E+03  0.00000000000E+00 0. -1.
          1    1    5    5  503    0 -0.10031853854E+03  0.43621349430E+02  0.98401457591E+01  0.10983378246E+03  0.00000000000E+00 0. -1.
         -2    1    5    5    0  503 -0.25410815902E+03  0.26314360268E+03  0.60091293079E+00  0.36580851987E+03  0.00000000000E+00 0.  1.
         -1    1    4    4    0  502  0.10284464631E+03 -0.25238159581E+03  0.11787958546E+03  0.29693280022E+03  0.00000000000E+00 0.  1.
<mgrwt>
<rscale>  0 0.15113654E+04</rscale>
<asrwt>0</asrwt>
<pdfrwt beam="1">  1        2 0.21654600E+00 0.15113654E+04</pdfrwt>
<pdfrwt beam="2">  1       -2 0.62416888E-01 0.15113654E+04</pdfrwt>
<totfact> 0.32934544E+01</totfact>
</mgrwt>
</event>
<event>
11    1  0.2404191E-008  0.2868651E+04  0.7818608E-02  0.8282266E-01
          1   -1    0    0  501    0  0.00000000000E+00  0.00000000000E+00  0.11234405668E+04  0.11234405668E+04  0.00000000000E+00 0. -1.
         -1   -1    0    0    0  501 -0.00000000000E+00 -0.00000000000E+00 -0.18312402007E+04  0.18312402007E+04  0.00000000000E+00 0.  1.
         23    2    1    2    0    0 -0.26913626606E+03  0.11374788651E+03 -0.16150109356E+04  0.16437769167E+04  0.91483977324E+02 0.  0.
        254    2    1    2    0    0  0.26913626606E+03 -0.11374788651E+03  0.90721130168E+03  0.13109038508E+04  0.90003535978E+03 0.  0.
        -24    2    4    4    0    0 -0.12106516902E+03 -0.17391162956E+03  0.74381161084E+03  0.77742231394E+03  0.78915852329E+02 0.  0.
         11    1    3    3    0    0 -0.48296494184E+02  0.38145856119E+02 -0.55312798499E+03  0.55654130616E+03  0.00000000000E+00 0. -1.
        -11    1    3    3    0    0 -0.22083977188E+03  0.75602030394E+02 -0.10618829507E+04  0.10872356105E+04  0.00000000000E+00 0.  1.
          2    1    4    4  502    0  0.30781113309E+03  0.15395619961E+03  0.20655589202E+03  0.40139200488E+03  0.00000000000E+00 0. -1.
          1    1    5    5  503    0 -0.11243458918E+03 -0.16098079504E+03  0.56914307450E+03  0.60206327945E+03  0.00000000000E+00 0. -1.
         -2    1    5    5    0  503 -0.86305798427E+01 -0.12930834523E+02  0.17466853634E+03  0.17535903449E+03  0.00000000000E+00 0.  1.
         -1    1    4    4    0  502  0.82390301994E+02 -0.93792456558E+02 -0.43156201175E+02  0.13208953202E+03  0.00000000000E+00 0.  1.
<mgrwt>
<rscale>  0 0.28686509E+04</rscale>
<asrwt>0</asrwt>
<pdfrwt beam="1">  1        1 0.17283701E+00 0.28686509E+04</pdfrwt>
<pdfrwt beam="2">  1       -1 0.28172926E+00 0.28686509E+04</pdfrwt>
<totfact> 0.45446342E-01</totfact>
</mgrwt>
</event>
<event>
11    1  0.2404191E-008  0.1034334E+04  0.7818608E-02  0.9271669E-01
          2   -1    0    0  501    0  0.00000000000E+00  0.00000000000E+00  0.12109871114E+04  0.12109871114E+04  0.00000000000E+00 0. -1.
         -2   -1    0    0    0  501 -0.00000000000E+00 -0.00000000000E+00 -0.22086268927E+03  0.22086268927E+03  0.00000000000E+00 0.  1.
         23    2    1    2    0    0  0.89678675254E+02 -0.63268132211E+01  0.11921869453E+03  0.17547835067E+03  0.92180589423E+02 0.  0.
        254    2    1    2    0    0 -0.89678675254E+02  0.63268132211E+01  0.87090572758E+03  0.12563714500E+04  0.90106056436E+03 0.  0.
        -24    2    4    4    0    0  0.77639134897E+02  0.30652527398E+03  0.48893006592E+03  0.58788538356E+03  0.81061926922E+02 0.  0.
         11    1    3    3    0    0  0.87898603917E+02 -0.28399931213E+02  0.12214522238E+03  0.15314103308E+03  0.00000000000E+00 0. -1.
        -11    1    3    3    0    0  0.17800713370E+01  0.22073117992E+02 -0.29265278425E+01  0.22337317589E+02  0.00000000000E+00 0.  1.
          2    1    4    4  502    0  0.76282888048E+02 -0.58376040304E+02 -0.56651784523E+02  0.11151800653E+03  0.00000000000E+00 0. -1.
          1    1    5    5  503    0  0.42926384197E+02  0.43532903856E+02  0.89102638887E+02  0.10806048508E+03  0.00000000000E+00 0. -1.
         -2    1    5    5    0  503  0.34712750700E+02  0.26299237012E+03  0.39982742703E+03  0.47982489849E+03  0.00000000000E+00 0.  1.
         -1    1    4    4    0  502 -0.24360069820E+03 -0.24182242045E+03  0.43862744619E+03  0.55696805990E+03  0.00000000000E+00 0.  1.
<mgrwt>
<rscale>  0 0.10343343E+04</rscale>
<asrwt>0</asrwt>
<pdfrwt beam="1">  1        2 0.18630571E+00 0.10343343E+04</pdfrwt>
<pdfrwt beam="2">  1       -2 0.33978876E-01 0.10343343E+04</pdfrwt>
<totfact> 0.15054153E+02</totfact>
</mgrwt>
</event>
<event>
11    1  0.2404191E-008  0.1623149E+04  0.7818608E-02  0.8806452E-01
          2   -1    0    0  501    0  0.00000000000E+00  0.00000000000E+00  0.12401331172E+04  0.12401331172E+04  0.00000000000E+00 0. -1.
         -2   -1    0    0    0  501 -0.00000000000E+00 -0.00000000000E+00 -0.53111457615E+03  0.53111457615E+03  0.00000000000E+00 0.  1.
         23    2    1    2    0    0  0.19012054532E+02 -0.21547545279E+03  0.80716699557E+03  0.84044977410E+03  0.89700251220E+02 0.  0.
        254    2    1    2    0    0 -0.19012054532E+02  0.21547545279E+03 -0.98148454516E+02  0.93079791926E+03  0.89997806552E+03 0.  0.
        -24    2    4    4    0    0  0.27083709972E+02  0.47195771872E+03  0.15459091235E+03  0.50362009110E+03  0.79102657181E+02 0.  0.
         11    1    3    3    0    0  0.10973388545E+02 -0.22097335460E+03  0.79280271970E+03  0.82309525030E+03  0.00000000000E+00 0. -1.
        -11    1    3    3    0    0  0.80386659872E+01  0.54979018036E+01  0.14364275877E+02  0.17354523807E+02  0.00000000000E+00 0.  1.
          2    1    4    4  502    0 -0.11056944984E+03 -0.25667965455E+03 -0.21353083697E+03  0.35171787932E+03  0.00000000000E+00 0. -1.
          3    1    5    5  503    0  0.41907902565E+02  0.13851453689E+03  0.33340629777E+02  0.14850638647E+03  0.00000000000E+00 0. -1.
         -4    1    5    5    0  503 -0.14824192593E+02  0.33344318183E+03  0.12125028257E+03  0.35511370464E+03  0.00000000000E+00 0.  1.
         -1    1    4    4    0  502  0.64473685334E+02  0.19738861967E+00 -0.39208529893E+02  0.75459948841E+02  0.00000000000E+00 0.  1.
<mgrwt>
<rscale>  0 0.16231485E+04</rscale>
<asrwt>0</asrwt>
<pdfrwt beam="1">  1        2 0.19078971E+00 0.16231485E+04</pdfrwt>
<pdfrwt beam="2">  1       -2 0.81709935E-01 0.16231485E+04</pdfrwt>
<totfact> 0.22617911E+01</totfact>
</mgrwt>
</event>
<event>
12    1  0.2404191E-008  0.1149641E+04  0.7818608E-02  0.9158115E-01
         -2   -1    0    0    0  501 -0.00000000000E+00  0.00000000000E+00  0.14532643671E+03  0.14532643671E+03  0.00000000000E+00 0. -1.
          2   -1    0    0  501    0  0.00000000000E+00 -0.00000000000E+00 -0.22736296489E+04  0.22736296489E+04  0.00000000000E+00 0.  1.
         23    2    1    2    0    0  0.12182057430E+03 -0.12845599906E+03 -0.22034082082E+03  0.29816187743E+03  0.94916973265E+02 0.  0.
        254    2    1    2    0    0 -0.12182057430E+03  0.12845599906E+03 -0.19079623914E+04  0.21207942082E+04  0.90890395014E+03 0.  0.
        -24    2    4    4    0    0 -0.25727908065E+03 -0.87045204794E+02 -0.18059059493E+04  0.18280268154E+04  0.81340932400E+02 0.  0.
         24    2    4    4    0    0  0.13545850634E+03  0.21550120385E+03 -0.10205644209E+03  0.29276739275E+03  0.10250586853E+03 0.  0.
         13    1    3    3    0    0  0.64497758837E+00  0.15452406815E+01 -0.56247790253E+02  0.56272708067E+02  0.00000000000E+00 0.  1.
        -13    1    3    3    0    0  0.12117559671E+03 -0.13000123974E+03 -0.16409303057E+03  0.24188916936E+03  0.00000000000E+00 0. -1.
          4    1    6    6  502    0  0.58487399697E+02  0.13406716067E+03 -0.10600691527E+03  0.18064397465E+03  0.00000000000E+00 0. -1.
          3    1    5    5  503    0 -0.25249628150E+03 -0.98503100517E+02 -0.17175733371E+04  0.17388258686E+04  0.00000000000E+00 0. -1.
         -4    1    5    5    0  503 -0.47827991420E+01  0.11457895723E+02 -0.88332612176E+02  0.89200946833E+02  0.00000000000E+00 0.  1.
         -3    1    6    6    0  502  0.76971106646E+02  0.81434043188E+02  0.39504731821E+01  0.11212341810E+03  0.00000000000E+00 0.  1.
<mgrwt>
<rscale>  0 0.11496408E+04</rscale>
<asrwt>0</asrwt>
<pdfrwt beam="1">  1        2 0.34978918E+00 0.11496408E+04</pdfrwt>
<pdfrwt beam="2">  1       -2 0.22357913E-01 0.11496408E+04</pdfrwt>
<totfact> 0.81851047E+01</totfact>
</mgrwt>
</event>
<event>
12    1  0.2404191E-008  0.1551850E+04  0.7818608E-02  0.8850687E-01
         -1   -1    0    0    0  501 -0.00000000000E+00  0.00000000000E+00  0.12698753168E+04  0.12698753168E+04  0.00000000000E+00 0.  1.
          1   -1    0    0  501    0  0.00000000000E+00 -0.00000000000E+00 -0.47410918665E+03  0.47410918665E+03  0.00000000000E+00 0. -1.
         23    2    1    2    0    0  0.15450242437E+03  0.39299589632E+03  0.57184693864E+03  0.71652890071E+03  0.89933145458E+02 0.  0.
        254    2    1    2    0    0 -0.15450242437E+03 -0.39299589632E+03  0.22391919149E+03  0.10274556027E+04  0.90950999861E+03 0.  0.
        -24    2    4    4    0    0  0.19992599389E+02 -0.50265833074E+03 -0.19893817807E+03  0.54701847119E+03  0.81164694518E+02 0.  0.
         24    2    4    4    0    0 -0.17449502376E+03  0.10966243441E+03  0.42285736956E+03  0.48043713153E+03  0.97658176948E+02 0.  0.
         13    1    3    3    0    0  0.11440456192E+03  0.20503093114E+03  0.26101397781E+03  0.35107603610E+03  0.00000000000E+00 0. -1.
        -13    1    3    3    0    0  0.40097862446E+02  0.18796496519E+03  0.31083296083E+03  0.36545286460E+03  0.00000000000E+00 0.  1.
          4    1    6    6  502    0 -0.12673249707E+03  0.11193783252E+03  0.25551356781E+03  0.30639580202E+03  0.00000000000E+00 0. -1.
          3    1    5    5  503    0  0.31606357429E+02 -0.45479882785E+03 -0.19981557099E+03  0.49776219026E+03  0.00000000000E+00 0. -1.
         -4    1    5    5    0  503 -0.11613758040E+02 -0.47859502881E+02  0.87739291796E+00  0.49256280921E+02  0.00000000000E+00 0.  1.
         -3    1    6    6    0  502 -0.47762526691E+02 -0.22753981105E+01  0.16734380175E+03  0.17404132951E+03  0.00000000000E+00 0.  1.
<mgrwt>
<rscale>  0 0.15518499E+04</rscale>
<asrwt>0</asrwt>
<pdfrwt beam="1">  1        1 0.72939876E-01 0.15518499E+04</pdfrwt>
<pdfrwt beam="2">  1       -1 0.19536543E+00 0.15518499E+04</pdfrwt>
<totfact> 0.74435243E+00</totfact>
</mgrwt>
</event>
<event>
11    1  0.2404191E-008  0.1999471E+04  0.7818608E-02  0.8606868E-01
         -1   -1    0    0    0  501 -0.00000000000E+00  0.00000000000E+00  0.37500421606E+03  0.37500421606E+03  0.00000000000E+00 0.  1.
          1   -1    0    0  501    0  0.00000000000E+00 -0.00000000000E+00 -0.26652254388E+04  0.26652254388E+04  0.00000000000E+00 0. -1.
         23    2    1    2    0    0  0.73351182433E+03 -0.29044646740E+03 -0.85519017590E+03  0.11674217113E+04  0.95522082493E+02 0.  0.
        254    2    1    2    0    0 -0.73351182433E+03  0.29044646740E+03 -0.14350310469E+04  0.18728079436E+04  0.90867856869E+03 0.  0.
        -24    2    4    4    0    0 -0.88555213761E+03  0.56825001900E+02 -0.10552340665E+04  0.13810714772E+04  0.80048864816E+02 0.  0.
         11    1    3    3    0    0  0.13106753205E+03 -0.29035595332E+02 -0.10525778002E+03  0.17059004663E+03  0.00000000000E+00 0. -1.
        -11    1    3    3    0    0  0.60244429227E+03 -0.26141087207E+03 -0.74993239588E+03  0.99683166468E+03  0.00000000000E+00 0.  1.
          4    1    4    4  502    0  0.16700668868E+03  0.15306888458E+03 -0.24252455489E+03  0.33187268223E+03  0.00000000000E+00 0. -1.
          1    1    5    5  503    0 -0.70512912487E+03  0.63794784172E+02 -0.88002383207E+03  0.11294772252E+04  0.00000000000E+00 0. -1.
         -2    1    5    5    0  503 -0.18042301274E+03 -0.69697822716E+01 -0.17521023446E+03  0.25159425202E+03  0.00000000000E+00 0.  1.
         -3    1    4    4    0  502 -0.14966375392E+02  0.80552580922E+02 -0.13727242545E+03  0.15986378412E+03  0.00000000000E+00 0.  1.
<mgrwt>
<rscale>  0 0.19994707E+04</rscale>
<asrwt>0</asrwt>
<pdfrwt beam="1">  1        1 0.41003467E+00 0.19994707E+04</pdfrwt>
<pdfrwt beam="2">  1       -1 0.57692958E-01 0.19994707E+04</pdfrwt>
<totfact> 0.29339957E+00</totfact>
</mgrwt>
</event>
<event>
12    1  0.2404191E-008  0.1200032E+04  0.7818608E-02  0.9112828E-01
          2   -1    0    0  501    0  0.00000000000E+00  0.00000000000E+00  0.61267086635E+03  0.61267086635E+03  0.00000000000E+00 0. -1.
         -2   -1    0    0    0  501 -0.00000000000E+00 -0.00000000000E+00 -0.58762262078E+03  0.58762262078E+03  0.00000000000E+00 0.  1.
         23    2    1    2    0    0 -0.15816295608E+03  0.90321414168E+02 -0.16262636660E+03  0.26079675718E+03  0.91619511595E+02 0.  0.
        254    2    1    2    0    0  0.15816295608E+03 -0.90321414168E+02  0.18767461218E+03  0.93949672995E+03  0.90236293530E+03 0.  0.
        -24    2    4    4    0    0  0.81935434000E+02  0.16465052909E+03  0.48815662227E+03  0.52783188357E+03  0.80538173392E+02 0.  0.
         24    2    4    4    0    0  0.76227522084E+02 -0.25497194326E+03 -0.30048201009E+03  0.41166484638E+03  0.91417615307E+02 0.  0.
         13    1    3    3    0    0 -0.10220476772E+03  0.52743501426E+02 -0.41671336770E+02  0.12232821341E+03  0.00000000000E+00 0. -1.
        -13    1    3    3    0    0 -0.55958188360E+02  0.37577912742E+02 -0.12095502983E+03  0.13846854377E+03  0.00000000000E+00 0.  1.
          4    1    6    6  502    0  0.71732091411E+02 -0.93073167456E+02 -0.10297941713E+03  0.15624617689E+03  0.00000000000E+00 0. -1.
          3    1    5    5  503    0 -0.13133132920E+02  0.25604595431E+02  0.11282906883E+03  0.11644085735E+03  0.00000000000E+00 0. -1.
         -4    1    5    5    0  503  0.95068566920E+02  0.13904593366E+03  0.37532755344E+03  0.41139102622E+03  0.00000000000E+00 0.  1.
         -3    1    6    6    0  502  0.44954306734E+01 -0.16189877581E+03 -0.19750259296E+03  0.25541866950E+03  0.00000000000E+00 0.  1.
<mgrwt>
<rscale>  0 0.12000321E+04</rscale>
<asrwt>0</asrwt>
<pdfrwt beam="1">  1        2 0.94257056E-01 0.12000321E+04</pdfrwt>
<pdfrwt beam="2">  1       -2 0.90403480E-01 0.12000321E+04</pdfrwt>
<totfact> 0.49924506E+01</totfact>
</mgrwt>
</event>
<event>
11    1  0.2404191E-008  0.1340399E+04  0.7818608E-02  0.8998128E-01
          1   -1    0    0  501    0  0.00000000000E+00  0.00000000000E+00  0.16209158815E+04  0.16209158815E+04  0.00000000000E+00 0. -1.
         -1   -1    0    0    0  501 -0.00000000000E+00 -0.00000000000E+00 -0.27710705837E+03  0.27710705837E+03  0.00000000000E+00 0.  1.
         23    2    1    2    0    0 -0.31739919130E+03  0.21495438547E+02  0.59975328782E+03  0.68505669611E+03  0.91620795221E+02 0.  0.
        254    2    1    2    0    0  0.31739919130E+03 -0.21495438547E+02  0.74405553533E+03  0.12129662438E+04  0.90358406825E+03 0.  0.
        -24    2    4    4    0    0  0.49505162508E+03  0.17636868552E+03  0.70057509904E+03  0.87937282073E+03  0.79429614797E+02 0.  0.
         13    1    3    3    0    0 -0.17868770443E+03  0.13117681124E+02  0.42894312475E+03  0.46485865975E+03  0.00000000000E+00 0. -1.
        -13    1    3    3    0    0 -0.13871148687E+03  0.83777574226E+01  0.17081016307E+03  0.22019803636E+03  0.00000000000E+00 0.  1.
          4    1    4    4  502    0 -0.60042622140E+02 -0.18986981707E+03  0.72959827595E+02  0.21208206042E+03  0.00000000000E+00 0. -1.
          1    1    5    5  503    0  0.45475668964E+03  0.15276833454E+03  0.59782744515E+03  0.76651122952E+03  0.00000000000E+00 0. -1.
         -2    1    5    5    0  503  0.40294935440E+02  0.23600350983E+02  0.10274765389E+03  0.11286159120E+03  0.00000000000E+00 0.  1.
         -3    1    4    4    0  502 -0.11760981164E+03 -0.79943069947E+01 -0.29479391310E+02  0.12151136264E+03  0.00000000000E+00 0.  1.
<mgrwt>
<rscale>  0 0.13403988E+04</rscale>
<asrwt>0</asrwt>
<pdfrwt beam="1">  1        1 0.24937167E+00 0.13403988E+04</pdfrwt>
<pdfrwt beam="2">  1       -1 0.42631856E-01 0.13403988E+04</pdfrwt>
<totfact> 0.28641089E+01</totfact>
</mgrwt>
</event>
<event>
11    1  0.2404191E-008  0.1941373E+04  0.7818608E-02  0.8634532E-01
          2   -1    0    0  501    0  0.00000000000E+00  0.00000000000E+00  0.54402402622E+03  0.54402402622E+03  0.00000000000E+00 0. -1.
         -2   -1    0    0    0  501 -0.00000000000E+00 -0.00000000000E+00 -0.17319680002E+04  0.17319680002E+04  0.00000000000E+00 0.  1.
         23    2    1    2    0    0  0.68482167654E+02  0.73801654532E+03 -0.60534502550E+03  0.96125877248E+03  0.90650975357E+02 0.  0.
        254    2    1    2    0    0 -0.68482167654E+02 -0.73801654532E+03 -0.58259894852E+03  0.13147332540E+04  0.91637534115E+03 0.  0.
        -24    2    4    4    0    0  0.12493938212E+03 -0.54403482653E+03 -0.64690195082E+03  0.85840745929E+03  0.82446895094E+02 0.  0.
         13    1    3    3    0    0  0.55655383026E+02  0.32174058347E+03 -0.21883961331E+03  0.39307162332E+03  0.00000000000E+00 0. -1.
        -13    1    3    3    0    0  0.12826784628E+02  0.41627596185E+03 -0.38650541219E+03  0.56818714916E+03  0.00000000000E+00 0.  1.
          2    1    4    4  502    0 -0.79041721241E+02  0.45969674110E+02  0.15117102987E+03  0.17667338483E+03  0.00000000000E+00 0. -1.
          1    1    5    5  503    0  0.13445658190E+03 -0.52526883900E+03 -0.61184599111E+03  0.81752152417E+03  0.00000000000E+00 0. -1.
         -2    1    5    5    0  503 -0.95171997791E+01 -0.18765987524E+02 -0.35055959716E+02  0.40885935124E+02  0.00000000000E+00 0.  1.
         -1    1    4    4    0  502 -0.11437982853E+03 -0.23995139290E+03 -0.86868027575E+02  0.27965240987E+03  0.00000000000E+00 0.  1.
<mgrwt>
<rscale>  0 0.19413729E+04</rscale>
<asrwt>0</asrwt>
<pdfrwt beam="1">  1        2 0.83696002E-01 0.19413729E+04</pdfrwt>
<pdfrwt beam="2">  1       -2 0.26645662E+00 0.19413729E+04</pdfrwt>
<totfact> 0.26526887E+00</totfact>
</mgrwt>
</event>
<event>
12    1  0.2404191E-008  0.1681414E+04  0.7818608E-02  0.8772036E-01
         -1   -1    0    0    0  501 -0.00000000000E+00  0.00000000000E+00  0.48185241395E+03  0.48185241395E+03  0.00000000000E+00 0.  1.
          1   -1    0    0  501    0  0.00000000000E+00 -0.00000000000E+00 -0.14668153022E+04  0.14668153022E+04  0.00000000000E+00 0. -1.
         23    2    1    2    0    0 -0.32946638618E+03  0.50034362825E+03 -0.39095652569E+03  0.72074713958E+03  0.87963562222E+02 0.  0.
        254    2    1    2    0    0  0.32946638618E+03 -0.50034362825E+03 -0.59400636251E+03  0.12279205765E+04  0.89221832395E+03 0.  0.
        -24    2    4    4    0    0  0.27226869730E+03 -0.73984759630E+03 -0.53906219813E+03  0.95825695068E+03  0.78508730653E+02 0.  0.
         24    2    4    4    0    0  0.57197688876E+02  0.23950396806E+03 -0.54944164381E+02  0.26966362584E+03  0.95214933570E+02 0.  0.
         13    1    3    3    0    0 -0.28282709198E+03  0.40177269716E+03 -0.28160867407E+03  0.56631785196E+03  0.00000000000E+00 0.  1.
        -13    1    3    3    0    0 -0.46639294200E+02  0.98570931087E+02 -0.10934785162E+03  0.15442928761E+03  0.00000000000E+00 0. -1.
          2    1    6    6  502    0  0.72327060044E+01 -0.26966561912E+01  0.11262564571E+02  0.13653913413E+02  0.00000000000E+00 0. -1.
          1    1    5    5  503    0  0.10172430338E+03 -0.20813279718E+03 -0.19117079755E+03  0.30035540448E+03  0.00000000000E+00 0. -1.
         -2    1    5    5    0  503  0.17054439392E+03 -0.53171479912E+03 -0.34789140058E+03  0.65790154620E+03  0.00000000000E+00 0.  1.
         -1    1    6    6    0  502  0.49964982872E+02  0.24220062425E+03 -0.66206728952E+02  0.25600971243E+03  0.00000000000E+00 0.  1.
<mgrwt>
<rscale>  0 0.16814143E+04</rscale>
<asrwt>0</asrwt>
<pdfrwt beam="1">  1        1 0.22566389E+00 0.16814143E+04</pdfrwt>
<pdfrwt beam="2">  1       -1 0.74131142E-01 0.16814143E+04</pdfrwt>
<totfact> 0.12045144E+01</totfact>
</mgrwt>
</event>
<event>
11    1  0.2404191E-008  0.1485236E+04  0.7818608E-02  0.8894331E-01
          1   -1    0    0  501    0  0.00000000000E+00  0.00000000000E+00  0.23945366561E+04  0.23945366561E+04  0.00000000000E+00 0. -1.
         -1   -1    0    0    0  501 -0.00000000000E+00 -0.00000000000E+00 -0.23030814589E+03  0.23030814589E+03  0.00000000000E+00 0.  1.
         23    2    1    2    0    0 -0.23057432950E+03 -0.35498788839E+03  0.10369191239E+04  0.11237977556E+04  0.92407811716E+02 0.  0.
        254    2    1    2    0    0  0.23057432950E+03  0.35498788839E+03  0.11273093863E+04  0.15010470464E+04  0.89617791800E+03 0.  0.
        -24    2    4    4    0    0 -0.91023585595E+02 -0.14420988528E+03  0.25233022373E+03  0.31520662906E+03  0.81258187589E+02 0.  0.
         13    1    3    3    0    0 -0.15406706955E+03 -0.28860820810E+03  0.85706024527E+03  0.91737866975E+03  0.00000000000E+00 0. -1.
        -13    1    3    3    0    0 -0.76507259950E+02 -0.66379680292E+02  0.17985887862E+03  0.20641908584E+03  0.00000000000E+00 0.  1.
          2    1    4    4  502    0 -0.44469281278E+02  0.23997995853E+02  0.44485699456E+03  0.44771773071E+03  0.00000000000E+00 0. -1.
          1    1    5    5  503    0 -0.30391161255E+01 -0.13653851081E+01 -0.61848088916E+01  0.70251237955E+01  0.00000000000E+00 0. -1.
         -2    1    5    5    0  503 -0.87984469469E+02 -0.14284450017E+03  0.25851503263E+03  0.30818150527E+03  0.00000000000E+00 0.  1.
         -1    1    4    4    0  502  0.36606719638E+03  0.47519977781E+03  0.43012216805E+03  0.73812268665E+03  0.00000000000E+00 0.  1.
<mgrwt>
<rscale>  0 0.14852357E+04</rscale>
<asrwt>0</asrwt>
<pdfrwt beam="1">  1        1 0.36839024E+00 0.14852357E+04</pdfrwt>
<pdfrwt beam="2">  1       -1 0.35432024E-01 0.14852357E+04</pdfrwt>
<totfact> 0.11806977E+01</totfact>
</mgrwt>
</event>
<event>
12    1  0.2404191E-008  0.2418866E+04  0.7818608E-02  0.8432474E-01
         -2   -1    0    0    0  501 -0.00000000000E+00  0.00000000000E+00  0.11535666398E+04  0.11535666398E+04  0.00000000000E+00 0.  1.
          2   -1    0    0  501    0  0.00000000000E+00 -0.00000000000E+00 -0.12680046264E+04  0.12680046264E+04  0.00000000000E+00 0. -1.
         23    2    1    2    0    0 -0.65172851474E+03  0.76790475327E+03  0.22069087577E+03  0.10352569222E+04  0.92869075612E+02 0.  0.
        254    2    1    2    0    0  0.65172851474E+03 -0.76790475327E+03 -0.33512886240E+03  0.13863143440E+04  0.89169969109E+03 0.  0.
        -24    2    4    4    0    0  0.64579113250E+03 -0.38151664108E+03 -0.54898028970E+03  0.93303785380E+03  0.81111922068E+02 0.  0.
         24    2    4    4    0    0  0.59373822391E+01 -0.38638811218E+03  0.21385142730E+03  0.45327649025E+03  0.10196135500E+03 0.  0.
         13    1    3    3    0    0 -0.50848903414E+03  0.62102487135E+03  0.13980358409E+03  0.81472573962E+03  0.00000000000E+00 0.  1.
        -13    1    3    3    0    0 -0.14323948060E+03  0.14687988192E+03  0.80887291679E+02  0.22053118253E+03  0.00000000000E+00 0. -1.
          4    1    6    6  502    0  0.50354356925E+02 -0.23808436880E+03  0.14962546981E+03  0.28567028047E+03  0.00000000000E+00 0. -1.
          1    1    5    5  503    0  0.61313215667E+03 -0.36288551442E+03 -0.54101761787E+03  0.89460438238E+03  0.00000000000E+00 0. -1.
         -2    1    5    5    0  503  0.32658975825E+02 -0.18631126664E+02 -0.79626718302E+01  0.38433471420E+02  0.00000000000E+00 0.  1.
         -3    1    6    6    0  502 -0.44416974686E+02 -0.14830374339E+03  0.64225957490E+02  0.16760620978E+03  0.00000000000E+00 0.  1.
<mgrwt>
<rscale>  0 0.24188657E+04</rscale>
<asrwt>0</asrwt>
<pdfrwt beam="1">  1        2 0.19507763E+00 0.24188657E+04</pdfrwt>
<pdfrwt beam="2">  1       -2 0.17747179E+00 0.24188657E+04</pdfrwt>
<totfact> 0.29261682E+00</totfact>
</mgrwt>
</event>
<event>
12    1  0.2404191E-008  0.2260036E+04  0.7818608E-02  0.8493847E-01
          2   -1    0    0  501    0  0.00000000000E+00  0.00000000000E+00  0.25464214428E+04  0.25464214428E+04  0.00000000000E+00 0. -1.
         -2   -1    0    0    0  501 -0.00000000000E+00 -0.00000000000E+00 -0.50146475552E+03  0.50146475552E+03  0.00000000000E+00 0.  1.
         23    2    1    2    0    0  0.68717032361E+03 -0.98365502109E+02  0.17373400536E+04  0.18734017232E+04  0.96977982476E+02 0.  0.
        254    2    1    2    0    0 -0.68717032361E+03  0.98365502109E+02  0.30761663371E+03  0.11744844751E+04  0.89605075933E+03 0.  0.
        -24    2    4    4    0    0 -0.35712452168E+03 -0.30293950698E+03  0.41905374180E+03  0.63370974832E+03  0.81680705979E+02 0.  0.
         24    2    4    4    0    0 -0.33004580192E+03  0.40130500909E+03 -0.11143710809E+03  0.54077472679E+03  0.10021543989E+03 0.  0.
         11    1    3    3    0    0  0.51053128237E+03 -0.60338638618E+02  0.11693677859E+04  0.12773816816E+04  0.00000000000E+00 0. -1.
        -11    1    3    3    0    0  0.17663904123E+03 -0.38026863491E+02  0.56797226762E+03  0.59602004163E+03  0.00000000000E+00 0.  1.
          2    1    6    6  502    0 -0.13858389178E+03  0.15024125867E+03 -0.92828780240E+02  0.22448855942E+03  0.00000000000E+00 0. -1.
          1    1    5    5  503    0 -0.87786914661E+02 -0.11446514385E+03  0.15787076452E+03  0.21385039123E+03  0.00000000000E+00 0. -1.
         -4    1    5    5    0  503 -0.26933760702E+03 -0.18847436313E+03  0.26118297728E+03  0.41985935709E+03  0.00000000000E+00 0.  1.
         -1    1    6    6    0  502 -0.19146191014E+03  0.25106375041E+03 -0.18608327853E+02  0.31628616737E+03  0.00000000000E+00 0.  1.
<mgrwt>
<rscale>  0 0.22600359E+04</rscale>
<asrwt>0</asrwt>
<pdfrwt beam="1">  1        2 0.39175714E+00 0.22600359E+04</pdfrwt>
<pdfrwt beam="2">  1       -2 0.77148425E-01 0.22600359E+04</pdfrwt>
<totfact> 0.44618973E+00</totfact>
</mgrwt>
</event>
<event>
12    1  0.2404191E-008  0.1255351E+04  0.7818608E-02  0.9065741E-01
         -2   -1    0    0    0  501 -0.00000000000E+00  0.00000000000E+00  0.10803794459E+04  0.10803794459E+04  0.00000000000E+00 0. -1.
          2   -1    0    0  501    0  0.00000000000E+00 -0.00000000000E+00 -0.36466522860E+03  0.36466522860E+03  0.00000000000E+00 0.  1.
         23    2    1    2    0    0  0.28670374010E+03  0.14886417064E+02  0.17126612528E+03  0.34674973232E+03  0.92101309408E+02 0.  0.
        254    2    1    2    0    0 -0.28670374010E+03 -0.14886417064E+02  0.54444809199E+03  0.10982949422E+04  0.90961937924E+03 0.  0.
        -24    2    4    4    0    0 -0.53047442145E+02 -0.35914715270E+03  0.55678010881E+03  0.66952783151E+03  0.80391039252E+02 0.  0.
         24    2    4    4    0    0 -0.23365629796E+03  0.34426073563E+03 -0.12332016822E+02  0.42876711064E+03  0.10285152822E+03 0.  0.
         13    1    3    3    0    0  0.28604958694E+03  0.53738724589E+01  0.14910175867E+03  0.32262141766E+03  0.00000000000E+00 0. -1.
        -13    1    3    3    0    0  0.65415316180E+00  0.95125446051E+01  0.22164366609E+02  0.24128314661E+02  0.00000000000E+00 0.  1.
          2    1    6    6  502    0 -0.23185548898E+03  0.33253359533E+03 -0.31088000637E+02  0.40657351559E+03  0.00000000000E+00 0. -1.
          3    1    5    5  503    0  0.70278981834E+00 -0.23509085781E+03  0.38224043708E+03  0.44874932543E+03  0.00000000000E+00 0. -1.
         -4    1    5    5    0  503 -0.53750231963E+02 -0.12405629489E+03  0.17453967173E+03  0.22077850608E+03  0.00000000000E+00 0.  1.
         -1    1    6    6    0  502 -0.18008089754E+01  0.11727140304E+02  0.18755983815E+02  0.22193595057E+02  0.00000000000E+00 0.  1.
<mgrwt>
<rscale>  0 0.12553515E+04</rscale>
<asrwt>0</asrwt>
<pdfrwt beam="1">  1        2 0.56102343E-01 0.12553515E+04</pdfrwt>
<pdfrwt beam="2">  1       -2 0.16621222E+00 0.12553515E+04</pdfrwt>
<totfact> 0.19661513E+01</totfact>
</mgrwt>
</event>
<event>
12    1  0.2404191E-008  0.1964953E+04  0.7818608E-02  0.8623184E-01
          2   -1    0    0  501    0  0.00000000000E+00  0.00000000000E+00  0.73343963469E+03  0.73343963469E+03  0.00000000000E+00 0. -1.
         -2   -1    0    0    0  501 -0.00000000000E+00 -0.00000000000E+00 -0.13160727652E+04  0.13160727652E+04  0.00000000000E+00 0.  1.
         23    2    1    2    0    0 -0.82147706311E+02  0.76476532671E+03 -0.29063044647E+03  0.83050191141E+03  0.11684655687E+03 0.  0.
        254    2    1    2    0    0  0.82147706311E+02 -0.76476532671E+03 -0.29200268404E+03  0.12190104885E+04  0.89950361476E+03 0.  0.
        -24    2    4    4    0    0  0.70329247083E+02 -0.90734852485E+03 -0.42023803830E+03  0.10054367830E+04  0.77945925002E+02 0.  0.
         24    2    4    4    0    0  0.11818459228E+02  0.14258319814E+03  0.12823535426E+03  0.21357370549E+03  0.93272596328E+02 0.  0.
         11    1    3    3    0    0  0.16416797922E+02  0.25234766354E+03 -0.13113189504E+03  0.28485861133E+03  0.00000000000E+00 0.  1.
        -11    1    3    3    0    0 -0.98564504233E+02  0.51241766317E+03 -0.15949855143E+03  0.54564330008E+03  0.00000000000E+00 0. -1.
          4    1    6    6  502    0  0.24677331953E+02  0.61685056294E+02  0.63778499762E+01  0.66743492961E+02  0.00000000000E+00 0. -1.
          1    1    5    5  503    0  0.23397479830E+01 -0.43202310609E+03 -0.17323804076E+03  0.46546842791E+03  0.00000000000E+00 0. -1.
         -2    1    5    5    0  503  0.67989499100E+02 -0.47532541875E+03 -0.24699999754E+03  0.53996835508E+03  0.00000000000E+00 0.  1.
         -3    1    6    6    0  502 -0.12858872725E+02  0.80898141843E+02  0.12185750429E+03  0.14683021253E+03  0.00000000000E+00 0.  1.
<mgrwt>
<rscale>  0 0.19649529E+04</rscale>
<asrwt>0</asrwt>
<pdfrwt beam="1">  1        2 0.11283687E+00 0.19649529E+04</pdfrwt>
<pdfrwt beam="2">  1       -2 0.20247274E+00 0.19649529E+04</pdfrwt>
<totfact> 0.46050680E+00</totfact>
</mgrwt>
</event>
<event>
11    1  0.2404191E-008  0.3034855E+04  0.7818608E-02  0.8233847E-01
          2   -1    0    0  501    0  0.00000000000E+00  0.00000000000E+00  0.26270512005E+04  0.26270512005E+04  0.00000000000E+00 0. -1.
         -2   -1    0    0    0  501 -0.00000000000E+00 -0.00000000000E+00 -0.87649053067E+03  0.87649053067E+03  0.00000000000E+00 0.  1.
         23    2    1    2    0    0 -0.27735119941E+03  0.21536203281E+03 -0.74461048933E+03  0.82824664155E+03  0.90792210150E+02 0.  0.
        254    2    1    2    0    0  0.27735119941E+03 -0.21536203281E+03  0.24951711592E+04  0.26752950897E+04  0.89889944379E+03 0.  0.
        -24    2    4    4    0    0  0.36012505214E+03 -0.18862421641E+03  0.24141900608E+04  0.24494678618E+04  0.79435558842E+02 0.  0.
         11    1    3    3    0    0 -0.25555174125E+03  0.22117320943E+03 -0.71643976816E+03  0.79215542820E+03  0.00000000000E+00 0.  1.
        -11    1    3    3    0    0 -0.21799458161E+02 -0.58111766168E+01 -0.28170721175E+02  0.36091213354E+02  0.00000000000E+00 0. -1.
          2    1    4    4  502    0 -0.10937476449E+03  0.49924185499E+02  0.80479499002E+02  0.14467969161E+03  0.00000000000E+00 0. -1.
          3    1    5    5  503    0  0.16777682532E+03 -0.94546985240E+02  0.91353199690E+03  0.93361068165E+03  0.00000000000E+00 0. -1.
         -4    1    5    5    0  503  0.19234822681E+03 -0.94077231167E+02  0.15006580639E+04  0.15158571801E+04  0.00000000000E+00 0.  1.
         -1    1    4    4    0  502  0.26600911766E+02 -0.76662001901E+02  0.50159940422E+00  0.81147536279E+02  0.00000000000E+00 0.  1.
<mgrwt>
<rscale>  0 0.30348545E+04</rscale>
<asrwt>0</asrwt>
<pdfrwt beam="1">  1        2 0.40416172E+00 0.30348545E+04</pdfrwt>
<pdfrwt beam="2">  1       -2 0.13484470E+00 0.30348545E+04</pdfrwt>
<totfact> 0.99049926E-01</totfact>
</mgrwt>
</event>
<event>
12    1  0.2404191E-008  0.2386053E+04  0.7818608E-02  0.8444744E-01
         -2   -1    0    0    0  501 -0.00000000000E+00  0.00000000000E+00  0.57345182482E+03  0.57345182482E+03  0.00000000000E+00 0.  1.
          2   -1    0    0  501    0  0.00000000000E+00 -0.00000000000E+00 -0.24820085856E+04  0.24820085856E+04  0.00000000000E+00 0. -1.
         23    2    1    2    0    0  0.25071749061E+03  0.45055486263E+03  0.30854247466E+03  0.60797318711E+03  0.92595859684E+02 0.  0.
        254    2    1    2    0    0 -0.25071749061E+03 -0.45055486263E+03 -0.22170992354E+04  0.24474872233E+04  0.89933627980E+03 0.  0.
        -24    2    4    4    0    0 -0.34993090229E+02 -0.15242045427E+03 -0.20135474967E+04  0.20213124109E+04  0.82908562888E+02 0.  0.
         24    2    4    4    0    0 -0.21572440038E+03 -0.29813440836E+03 -0.20355173873E+03  0.42617481240E+03  0.69068936680E+02 0.  0.
         13    1    3    3    0    0  0.91496906509E+02  0.25937442294E+03  0.16493193388E+03  0.32070129091E+03  0.00000000000E+00 0.  1.
        -13    1    3    3    0    0  0.15922058410E+03  0.19118043969E+03  0.14361054078E+03  0.28727189620E+03  0.00000000000E+00 0. -1.
          2    1    6    6  502    0 -0.44654001076E+02 -0.94349880267E+02 -0.30383332358E+02  0.10871534668E+03  0.00000000000E+00 0. -1.
          3    1    5    5  503    0 -0.52511904192E+02 -0.14253588822E+03 -0.15761993383E+04  0.15835019209E+04  0.00000000000E+00 0. -1.
         -4    1    5    5    0  503  0.17518813963E+02 -0.98845660522E+01 -0.43734815839E+03  0.43781048997E+03  0.00000000000E+00 0.  1.
         -1    1    6    6    0  502 -0.17107039930E+03 -0.20378452810E+03 -0.17316840638E+03  0.31745946572E+03  0.00000000000E+00 0.  1.
<mgrwt>
<rscale>  0 0.23860531E+04</rscale>
<asrwt>0</asrwt>
<pdfrwt beam="1">  1        2 0.38184748E+00 0.23860531E+04</pdfrwt>
<pdfrwt beam="2">  1       -2 0.88223356E-01 0.23860531E+04</pdfrwt>
<totfact> 0.35515214E+00</totfact>
</mgrwt>
</event>
<event>
12    1  0.2404191E-008  0.1463132E+04  0.7818608E-02  0.8909347E-01
         -2   -1    0    0    0  501 -0.00000000000E+00  0.00000000000E+00  0.23992014171E+03  0.23992014171E+03  0.00000000000E+00 0.  1.
          2   -1    0    0  501    0  0.00000000000E+00 -0.00000000000E+00 -0.22306953391E+04  0.22306953391E+04  0.00000000000E+00 0. -1.
         23    2    1    2    0    0 -0.39356695547E+03  0.18540587452E+03 -0.44352290149E+03  0.62822550098E+03  0.93190284863E+02 0.  0.
        254    2    1    2    0    0  0.39356695547E+03 -0.18540587452E+03 -0.15472522959E+04  0.18423899799E+04  0.90063360134E+03 0.  0.
        -24    2    4    4    0    0  0.41166984718E+03  0.74165271485E+01 -0.15678773276E+04  0.16230119161E+04  0.80008108561E+02 0.  0.
         24    2    4    4    0    0 -0.18102891716E+02 -0.19282240167E+03  0.20625031658E+02  0.21937806377E+03  0.10096112944E+03 0.  0.
         11    1    3    3    0    0 -0.13967144196E+03  0.20787856762E+02 -0.12077935539E+03  0.18581684362E+03  0.00000000000E+00 0. -1.
        -11    1    3    3    0    0 -0.25389551351E+03  0.16461801776E+03 -0.32274354610E+03  0.44240865735E+03  0.00000000000E+00 0.  1.
          4    1    6    6  502    0  0.10127291086E+02 -0.55618638534E+02 -0.37371233788E+02  0.67768754541E+02  0.00000000000E+00 0. -1.
          3    1    5    5  503    0  0.11716401191E+02 -0.83615625316E+01 -0.23071986043E+02  0.27193865573E+02  0.00000000000E+00 0. -1.
         -4    1    5    5    0  503  0.39995344599E+03  0.15778089680E+02 -0.15448053415E+04  0.15958180505E+04  0.00000000000E+00 0.  1.
         -3    1    6    6    0  502 -0.28230182802E+02 -0.13720376313E+03  0.57996265446E+02  0.15160930923E+03  0.00000000000E+00 0.  1.
<mgrwt>
<rscale>  0 0.14631319E+04</rscale>
<asrwt>0</asrwt>
<pdfrwt beam="1">  1        2 0.34318390E+00 0.14631319E+04</pdfrwt>
<pdfrwt beam="2">  1       -2 0.36910791E-01 0.14631319E+04</pdfrwt>
<totfact> 0.33295109E+01</totfact>
</mgrwt>
</event>
<event>
11    1  0.2404191E-008  0.2116811E+04  0.7818608E-02  0.8553874E-01
         -1   -1    0    0    0  501 -0.00000000000E+00  0.00000000000E+00  0.80630112153E+03  0.80630112153E+03  0.00000000000E+00 0. -1.
          1   -1    0    0  501    0  0.00000000000E+00 -0.00000000000E+00 -0.13893346821E+04  0.13893346821E+04  0.00000000000E+00 0.  1.
         23    2    1    2    0    0 -0.59458258862E+03 -0.68382811249E+02 -0.88683065499E+03  0.10735907086E+04  0.89015366166E+02 0.  0.
        254    2    1    2    0    0  0.59458258862E+03  0.68382811249E+02  0.30379709444E+03  0.11220450950E+04  0.89915952814E+03 0.  0.
        -24    2    4    4    0    0  0.23853211602E+03 -0.22347142065E+03  0.50369261507E+03  0.60587793707E+03  0.80899801849E+02 0.  0.
         11    1    3    3    0    0 -0.27586434408E+03 -0.59303814469E+02 -0.47876620092E+03  0.55572938908E+03  0.00000000000E+00 0. -1.
        -11    1    3    3    0    0 -0.31871824455E+03 -0.90789967807E+01 -0.40806445407E+03  0.51786131953E+03  0.00000000000E+00 0.  1.
          4    1    4    4  502    0  0.29968287972E+03  0.29077855449E+03 -0.16032098653E+03  0.44728605486E+03  0.00000000000E+00 0. -1.
          3    1    5    5  503    0  0.24317640402E+03 -0.22551277274E+03  0.49622882351E+03  0.59685326457E+03  0.00000000000E+00 0. -1.
         -4    1    5    5    0  503 -0.46442880010E+01  0.20413520959E+01  0.74637915603E+01  0.90246725077E+01  0.00000000000E+00 0.  1.
         -3    1    4    4    0  502  0.56367592884E+02  0.10756774061E+01 -0.39574534103E+02  0.68881103061E+02  0.00000000000E+00 0.  1.
<mgrwt>
<rscale>  0 0.21168109E+04</rscale>
<asrwt>0</asrwt>
<pdfrwt beam="1">  1        1 0.21374380E+00 0.21168109E+04</pdfrwt>
<pdfrwt beam="2">  1       -1 0.12404633E+00 0.21168109E+04</pdfrwt>
<totfact> 0.40947396E+00</totfact>
</mgrwt>
</event>
<event>
12    1  0.2404191E-008  0.1650823E+04  0.7818608E-02  0.8789920E-01
          2   -1    0    0  501    0  0.00000000000E+00  0.00000000000E+00  0.10836462951E+04  0.10836462951E+04  0.00000000000E+00 0. -1.
         -2   -1    0    0    0  501 -0.00000000000E+00 -0.00000000000E+00 -0.62871434043E+03  0.62871434043E+03  0.00000000000E+00 0.  1.
         23    2    1    2    0    0  0.12736416359E+03 -0.17280150961E+03  0.72550370129E+03  0.76134715777E+03  0.84922801225E+02 0.  0.
        254    2    1    2    0    0 -0.12736416359E+03  0.17280150961E+03 -0.27057174660E+03  0.95101347777E+03  0.88607876227E+03 0.  0.
        -24    2    4    4    0    0 -0.17726844303E+03  0.42864161546E+03 -0.43068784854E+03  0.63764297182E+03  0.77063618090E+02 0.  0.
         24    2    4    4    0    0  0.49904279435E+02 -0.25584010585E+03  0.16011610194E+03  0.31337050595E+03  0.67965513516E+02 0.  0.
         13    1    3    3    0    0  0.59421980060E+02 -0.13749157239E+03  0.54650180998E+03  0.56665609721E+03  0.00000000000E+00 0. -1.
        -13    1    3    3    0    0  0.67942183533E+02 -0.35309937213E+02  0.17900189131E+03  0.19469106056E+03  0.00000000000E+00 0.  1.
          4    1    6    6  502    0  0.46671699582E+02 -0.82175203660E+02  0.70615368871E+02  0.11797263225E+03  0.00000000000E+00 0. -1.
          3    1    5    5  503    0 -0.10430733112E+03  0.15384073434E+03 -0.17306594097E+03  0.25396616072E+03  0.00000000000E+00 0. -1.
         -4    1    5    5    0  503 -0.72961111912E+02  0.27480088112E+03 -0.25762190758E+03  0.38367681110E+03  0.00000000000E+00 0.  1.
         -3    1    6    6    0  502  0.32325798537E+01 -0.17366490219E+03  0.89500733068E+02  0.19539787370E+03  0.00000000000E+00 0.  1.
<mgrwt>
<rscale>  0 0.16508228E+04</rscale>
<asrwt>0</asrwt>
<pdfrwt beam="1">  1        2 0.16671481E+00 0.16508228E+04</pdfrwt>
<pdfrwt beam="2">  1       -2 0.96725283E-01 0.16508228E+04</pdfrwt>
<totfact> 0.19036568E+01</totfact>
</mgrwt>
</event>
<event>
12    1  0.2404191E-008  0.1810184E+04  0.7818608E-02  0.8700902E-01
         -3   -1    0    0    0  501 -0.00000000000E+00  0.00000000000E+00  0.36415962740E+03  0.36415962740E+03  0.00000000000E+00 0.  1.
          3   -1    0    0  501    0  0.00000000000E+00 -0.00000000000E+00 -0.22495393630E+04  0.22495393630E+04  0.00000000000E+00 0. -1.
         23    2    1    2    0    0  0.53713488928E+03 -0.28481793559E+03 -0.11467851568E+04  0.13011896744E+04  0.91341268968E+02 0.  0.
        254    2    1    2    0    0 -0.53713488928E+03  0.28481793559E+03 -0.73859457886E+03  0.13125093160E+04  0.89862317289E+03 0.  0.
        -24    2    4    4    0    0 -0.51179878670E+03  0.32929604701E+03 -0.92462603995E+03  0.11100937459E+04  0.83671537912E+02 0.  0.
         24    2    4    4    0    0 -0.25336102574E+02 -0.44478111427E+02  0.18603146109E+03  0.20241557008E+03  0.61189361850E+02 0.  0.
         11    1    3    3    0    0  0.41985939175E+03 -0.26136506332E+03 -0.94622148987E+03  0.10676744415E+04  0.00000000000E+00 0. -1.
        -11    1    3    3    0    0  0.11727549753E+03 -0.23452872273E+02 -0.20056366688E+03  0.23351523293E+03  0.00000000000E+00 0.  1.
          2    1    6    6  502    0 -0.21096188172E+02 -0.45274569142E+02  0.19005956725E+03  0.19651329439E+03  0.00000000000E+00 0. -1.
          1    1    5    5  503    0 -0.32396573579E+03  0.20713725109E+03 -0.65489682206E+03  0.75944024538E+03  0.00000000000E+00 0. -1.
         -2    1    5    5    0  503 -0.18783305091E+03  0.12215879593E+03 -0.26972921789E+03  0.35065350051E+03  0.00000000000E+00 0.  1.
         -1    1    6    6    0  502 -0.42399144027E+01  0.79645771530E+00 -0.40281061629E+01  0.59022756878E+01  0.00000000000E+00 0.  1.
<mgrwt>
<rscale>  0 0.18101839E+04</rscale>
<asrwt>0</asrwt>
<pdfrwt beam="1">  1        3 0.34608298E+00 0.18101839E+04</pdfrwt>
<pdfrwt beam="2">  1       -3 0.56024558E-01 0.18101839E+04</pdfrwt>
<totfact> 0.16820570E-01</totfact>
</mgrwt>
</event>
<event>
11    1  0.2404191E-008  0.1984479E+04  0.7818608E-02  0.8613912E-01
          1   -1    0    0  501    0  0.00000000000E+00  0.00000000000E+00  0.11686879887E+04  0.11686879887E+04  0.00000000000E+00 0. -1.
         -1   -1    0    0    0  501 -0.00000000000E+00 -0.00000000000E+00 -0.84243126141E+03  0.84243126141E+03  0.00000000000E+00 0.  1.
         23    2    1    2    0    0 -0.67998095972E+03  0.27342148701E+03 -0.13636973946E+03  0.75109156913E+03  0.91697460390E+02 0.  0.
        254    2    1    2    0    0  0.67998095972E+03 -0.27342148701E+03  0.46262646676E+03  0.12600276810E+04  0.91461089760E+03 0.  0.
        -24    2    4    4    0    0  0.76210015116E+03 -0.76040522072E+01  0.13858863726E+03  0.77883411125E+03  0.80754569228E+02 0.  0.
         11    1    3    3    0    0 -0.34423461458E+03  0.11023235410E+03 -0.28807328470E+02  0.36259964691E+03  0.00000000000E+00 0.  1.
        -11    1    3    3    0    0 -0.33574634514E+03  0.16318913292E+03 -0.10756241099E+03  0.38849192223E+03  0.00000000000E+00 0. -1.
          4    1    4    4  502    0  0.12364678613E+02 -0.94713050298E+02 -0.80490379509E+01  0.95855277298E+02  0.00000000000E+00 0. -1.
          1    1    5    5  503    0  0.37428080150E+03  0.35482941871E+02  0.58264573819E+02  0.38044699775E+03  0.00000000000E+00 0. -1.
         -2    1    5    5    0  503  0.38781934966E+03 -0.43086994078E+02  0.80324063446E+02  0.39838711350E+03  0.00000000000E+00 0.  1.
         -3    1    4    4    0  502 -0.94483870060E+02 -0.17110438451E+03  0.33208686745E+03  0.38533829246E+03  0.00000000000E+00 0.  1.
<mgrwt>
<rscale>  0 0.19844791E+04</rscale>
<asrwt>0</asrwt>
<pdfrwt beam="1">  1        1 0.17979815E+00 0.19844791E+04</pdfrwt>
<pdfrwt beam="2">  1       -1 0.12960481E+00 0.19844791E+04</pdfrwt>
<totfact> 0.53494378E+00</totfact>
</mgrwt>
</event>
<event>
12    1  0.2404191E-008  0.2224981E+04  0.7818608E-02  0.8508102E-01
         -2   -1    0    0    0  501 -0.00000000000E+00  0.00000000000E+00  0.97524087372E+03  0.97524087372E+03  0.00000000000E+00 0.  1.
          2   -1    0    0  501    0  0.00000000000E+00 -0.00000000000E+00 -0.12690552583E+04  0.12690552583E+04  0.00000000000E+00 0. -1.
         23    2    1    2    0    0  0.72889877274E+03  0.58838832456E+02 -0.70311768474E+03  0.10204194063E+04  0.11011746970E+03 0.  0.
        254    2    1    2    0    0 -0.72889877274E+03 -0.58838832456E+02  0.40930330017E+03  0.12238767257E+04  0.89195830564E+03 0.  0.
        -24    2    4    4    0    0 -0.30046752867E+03  0.41097459090E+03  0.17904844332E+03  0.54543977853E+03  0.79154006798E+02 0.  0.
         24    2    4    4    0    0 -0.42843124407E+03 -0.46981342336E+03  0.23025485684E+03  0.67843694714E+03  0.54602275439E+02 0.  0.
         13    1    3    3    0    0  0.64858694640E+03  0.16718322770E+02 -0.61412806160E+03  0.89336319905E+03  0.00000000000E+00 0. -1.
        -13    1    3    3    0    0  0.80311826339E+02  0.42120509685E+02 -0.88989623134E+02  0.12705620729E+03  0.00000000000E+00 0.  1.
          4    1    6    6  502    0 -0.27331563660E+03 -0.30775930379E+03  0.17593471508E+03  0.44762735646E+03  0.00000000000E+00 0. -1.
          3    1    5    5  503    0 -0.27133840504E+03  0.39871224187E+03  0.17711445026E+03  0.51377573936E+03  0.00000000000E+00 0. -1.
         -4    1    5    5    0  503 -0.29129123633E+02  0.12262349037E+02  0.19339930678E+01  0.31664039173E+02  0.00000000000E+00 0.  1.
         -1    1    6    6    0  502 -0.15511560747E+03 -0.16205411957E+03  0.54320141760E+02  0.23080959068E+03  0.00000000000E+00 0.  1.
<mgrwt>
<rscale>  0 0.22249805E+04</rscale>
<asrwt>0</asrwt>
<pdfrwt beam="1">  1        2 0.19523927E+00 0.22249805E+04</pdfrwt>
<pdfrwt beam="2">  1       -2 0.15003706E+00 0.22249805E+04</pdfrwt>
<totfact> 0.47081833E+00</totfact>
</mgrwt>
</event>
<event>
11    1  0.2404191E-008  0.2263111E+04  0.7818608E-02  0.8492610E-01
         -2   -1    0    0    0  501 -0.00000000000E+00  0.00000000000E+00  0.71317842176E+03  0.71317842176E+03  0.00000000000E+00 0.  1.
          2   -1    0    0  501    0  0.00000000000E+00 -0.00000000000E+00 -0.17953674026E+04  0.17953674026E+04  0.00000000000E+00 0. -1.
         23    2    1    2    0    0  0.10845123280E+03 -0.82016007152E+03  0.56411643120E+02  0.83404792485E+03  0.89607224333E+02 0.  0.
        254    2    1    2    0    0 -0.10845123280E+03  0.82016007152E+03 -0.11386006240E+04  0.16744978995E+04  0.90725278824E+03 0.  0.
        -24    2    4    4    0    0  0.12045662522E+03  0.90425945096E+03 -0.91609580578E+03  0.12953190119E+04  0.80155250212E+02 0.  0.
         11    1    3    3    0    0  0.77451626627E+02 -0.32218350503E+03 -0.45756880940E+01  0.33139387789E+03  0.00000000000E+00 0. -1.
        -11    1    3    3    0    0  0.30999606169E+02 -0.49797656649E+03  0.60987331214E+02  0.50265404696E+03  0.00000000000E+00 0.  1.
          2    1    4    4  502    0 -0.62149645179E+02  0.34236154544E+02 -0.14328324966E+03  0.15988990683E+03  0.00000000000E+00 0. -1.
          3    1    5    5  503    0  0.91501510117E+01  0.31074452604E+03 -0.28270105051E+03  0.42019729852E+03  0.00000000000E+00 0. -1.
         -2    1    5    5    0  503  0.11130647421E+03  0.59351492492E+03 -0.63339475526E+03  0.87512171342E+03  0.00000000000E+00 0.  1.
         -1    1    4    4    0  502 -0.16675821284E+03 -0.11833553398E+03 -0.79221568526E+02  0.21928898074E+03  0.00000000000E+00 0.  1.
<mgrwt>
<rscale>  0 0.22631105E+04</rscale>
<asrwt>0</asrwt>
<pdfrwt beam="1">  1        2 0.27621037E+00 0.22631105E+04</pdfrwt>
<pdfrwt beam="2">  1       -2 0.10971976E+00 0.22631105E+04</pdfrwt>
<totfact> 0.52183255E+00</totfact>
</mgrwt>
</event>
<event>
11    1  0.2404191E-008  0.1570512E+04  0.7818608E-02  0.8838871E-01
          2   -1    0    0  501    0  0.00000000000E+00  0.00000000000E+00  0.52020180267E+03  0.52020180267E+03  0.00000000000E+00 0. -1.
         -2   -1    0    0    0  501 -0.00000000000E+00 -0.00000000000E+00 -0.11853612863E+04  0.11853612863E+04  0.00000000000E+00 0.  1.
         23    2    1    2    0    0 -0.10147706073E+03 -0.26276180787E+03  0.25529605457E+03  0.39163356476E+03  0.94124449758E+02 0.  0.
        254    2    1    2    0    0  0.10147706073E+03  0.26276180787E+03 -0.92045553815E+03  0.13139295242E+04  0.89433273183E+03 0.  0.
        -24    2    4    4    0    0 -0.13054676651E+03 -0.13470658670E+03 -0.75794987293E+03  0.78486866465E+03  0.79639739603E+02 0.  0.
         13    1    3    3    0    0 -0.68900993058E+02 -0.90288529977E+02  0.14557440434E+03  0.18463822110E+03  0.00000000000E+00 0. -1.
        -13    1    3    3    0    0 -0.32576067671E+02 -0.17247327789E+03  0.10972165023E+03  0.20699534367E+03  0.00000000000E+00 0.  1.
          4    1    4    4  502    0  0.15840237073E+03  0.38494288288E+03 -0.91890292007E+02  0.42628178462E+03  0.00000000000E+00 0. -1.
          3    1    5    5  503    0 -0.49125743103E+02 -0.10608386625E+03 -0.46494775931E+03  0.47942000813E+03  0.00000000000E+00 0. -1.
         -4    1    5    5    0  503 -0.81421023404E+02 -0.28622720448E+02 -0.29300211363E+03  0.30544865652E+03  0.00000000000E+00 0.  1.
         -3    1    4    4    0  502  0.73621456508E+02  0.12525511688E+02 -0.70615373215E+02  0.10277907489E+03  0.00000000000E+00 0.  1.
<mgrwt>
<rscale>  0 0.15705121E+04</rscale>
<asrwt>0</asrwt>
<pdfrwt beam="1">  1        2 0.80031047E-01 0.15705121E+04</pdfrwt>
<pdfrwt beam="2">  1       -2 0.18236327E+00 0.15705121E+04</pdfrwt>
<totfact> 0.98584655E+00</totfact>
</mgrwt>
</event>
<event>
12    1  0.2404191E-008  0.1505358E+04  0.7818608E-02  0.8880898E-01
          1   -1    0    0  501    0  0.00000000000E+00  0.00000000000E+00  0.15785039452E+04  0.15785039452E+04  0.00000000000E+00 0. -1.
         -1   -1    0    0    0  501 -0.00000000000E+00 -0.00000000000E+00 -0.35890049134E+03  0.35890049134E+03  0.00000000000E+00 0.  1.
         23    2    1    2    0    0 -0.31048434125E+03 -0.29744878667E+03  0.60629298851E+03  0.74896116482E+03  0.92061564418E+02 0.  0.
        254    2    1    2    0    0  0.31048434125E+03  0.29744878667E+03  0.61331046535E+03  0.11884432717E+04  0.92269787924E+03 0.  0.
        -24    2    4    4    0    0 -0.80731081003E+02  0.21392369626E+03  0.72840123594E+03  0.76754425541E+03  0.79214697092E+02 0.  0.
         24    2    4    4    0    0  0.39121542225E+03  0.83525090407E+02 -0.11509077058E+03  0.42089901632E+03  0.62322942242E+02 0.  0.
         13    1    3    3    0    0 -0.11652833738E+03 -0.11904276060E+03  0.31369896780E+03  0.35518597193E+03  0.00000000000E+00 0. -1.
        -13    1    3    3    0    0 -0.19395600387E+03 -0.17840602607E+03  0.29259402071E+03  0.39377519289E+03  0.00000000000E+00 0.  1.
          4    1    6    6  502    0  0.12997214044E+03  0.57221374255E+02 -0.47935983007E+02  0.14988295910E+03  0.00000000000E+00 0. -1.
          1    1    5    5  503    0 -0.43036528103E+02  0.36184676679E+02  0.11864923460E+03  0.13129780824E+03  0.00000000000E+00 0. -1.
         -4    1    5    5    0  503 -0.37694552899E+02  0.17773901958E+03  0.60975200134E+03  0.63624644717E+03  0.00000000000E+00 0.  1.
         -3    1    6    6    0  502  0.26124328181E+03  0.26303716152E+02 -0.67154787577E+02  0.27101605722E+03  0.00000000000E+00 0.  1.
<mgrwt>
<rscale>  0 0.15053582E+04</rscale>
<asrwt>0</asrwt>
<pdfrwt beam="1">  1        1 0.24284676E+00 0.15053582E+04</pdfrwt>
<pdfrwt beam="2">  1       -1 0.55215461E-01 0.15053582E+04</pdfrwt>
<totfact> 0.18509651E+01</totfact>
</mgrwt>
</event>
<event>
12    1  0.2404191E-008  0.2460685E+04  0.7818608E-02  0.8417127E-01
          1   -1    0    0  501    0  0.00000000000E+00  0.00000000000E+00  0.12618936816E+04  0.12618936816E+04  0.00000000000E+00 0. -1.
         -1   -1    0    0    0  501 -0.00000000000E+00 -0.00000000000E+00 -0.11995802914E+04  0.11995802914E+04  0.00000000000E+00 0.  1.
         23    2    1    2    0    0 -0.37853913343E+03  0.53519280541E+03 -0.81120868741E+03  0.10469404401E+04  0.91112765762E+02 0.  0.
        254    2    1    2    0    0  0.37853913343E+03 -0.53519280541E+03  0.87352207762E+03  0.14145335330E+04  0.89896667422E+03 0.  0.
        -24    2    4    4    0    0  0.20291992809E+03 -0.76448377797E+03  0.72147061344E+03  0.10735835227E+04  0.80310585841E+02 0.  0.
         24    2    4    4    0    0  0.17561920534E+03  0.22929097257E+03  0.15205146418E+03  0.34095001026E+03  0.98543423702E+02 0.  0.
         11    1    3    3    0    0 -0.37743296545E+03  0.52639393304E+03 -0.81120151317E+03  0.10380723053E+04  0.00000000000E+00 0.  1.
        -11    1    3    3    0    0 -0.11061679786E+01  0.87988723661E+01 -0.71742374289E-02  0.88681347521E+01  0.00000000000E+00 0. -1.
          2    1    6    6  502    0  0.12811876966E+03  0.17122198178E+03  0.15771166263E+03  0.26571479957E+03  0.00000000000E+00 0. -1.
          3    1    5    5  503    0  0.98968255907E+02 -0.37131826067E+03  0.29642515513E+03  0.48532446773E+03  0.00000000000E+00 0. -1.
         -4    1    5    5    0  503  0.10395167218E+03 -0.39316551730E+03  0.42504545831E+03  0.58825905499E+03  0.00000000000E+00 0.  1.
         -1    1    6    6    0  502  0.47500435679E+02  0.58068990791E+02 -0.56601984497E+01  0.75235210691E+02  0.00000000000E+00 0.  1.
<mgrwt>
<rscale>  0 0.24606851E+04</rscale>
<asrwt>0</asrwt>
<pdfrwt beam="1">  1        1 0.19413749E+00 0.24606851E+04</pdfrwt>
<pdfrwt beam="2">  1       -1 0.18455082E+00 0.24606851E+04</pdfrwt>
<totfact> 0.16583727E+00</totfact>
</mgrwt>
</event>
<event>
12    1  0.2404191E-008  0.2231300E+04  0.7818608E-02  0.8505512E-01
         -1   -1    0    0    0  501 -0.00000000000E+00  0.00000000000E+00  0.14833742825E+04  0.14833742825E+04  0.00000000000E+00 0.  1.
          1   -1    0    0  501    0  0.00000000000E+00 -0.00000000000E+00 -0.83908373731E+03  0.83908373731E+03  0.00000000000E+00 0. -1.
         23    2    1    2    0    0 -0.56286438002E+03  0.40693995837E+03 -0.37533303756E+03  0.79452104862E+03  0.89288115598E+02 0.  0.
        254    2    1    2    0    0  0.56286438002E+03 -0.40693995837E+03  0.10196235828E+04  0.15279369712E+04  0.90141150284E+03 0.  0.
        -24    2    4    4    0    0  0.19833975635E+02  0.20066234124E+03 -0.23305587855E+01  0.21765491613E+03  0.81911349828E+02 0.  0.
         24    2    4    4    0    0  0.54303040439E+03 -0.60760229961E+03  0.10219541416E+04  0.13102820551E+04  0.91576317106E+02 0.  0.
         13    1    3    3    0    0 -0.40697949920E+03  0.30410614918E+03 -0.22901938698E+03  0.55728156470E+03  0.00000000000E+00 0. -1.
        -13    1    3    3    0    0 -0.15588488082E+03  0.10283380919E+03 -0.14631365059E+03  0.23723948392E+03  0.00000000000E+00 0.  1.
          2    1    6    6  502    0  0.15598089590E+03 -0.16140717898E+03  0.34809114514E+03  0.41418566204E+03  0.00000000000E+00 0. -1.
          1    1    5    5  503    0  0.31788373784E+02  0.36338096285E+02 -0.19363524432E+02  0.52018304739E+02  0.00000000000E+00 0. -1.
         -2    1    5    5    0  503 -0.11954398149E+02  0.16432424496E+03  0.17032965646E+02  0.16563661139E+03  0.00000000000E+00 0.  1.
         -3    1    6    6    0  502  0.38704950849E+03 -0.44619512064E+03  0.67386299642E+03  0.89609639305E+03  0.00000000000E+00 0.  1.
<mgrwt>
<rscale>  0 0.22313003E+04</rscale>
<asrwt>0</asrwt>
<pdfrwt beam="1">  1        1 0.12908981E+00 0.22313003E+04</pdfrwt>
<pdfrwt beam="2">  1       -1 0.22821143E+00 0.22313003E+04</pdfrwt>
<totfact> 0.18044720E+00</totfact>
</mgrwt>
</event>
<event>
11    1  0.2404191E-008  0.1611827E+04  0.7818608E-02  0.8813315E-01
         -1   -1    0    0    0  501 -0.00000000000E+00  0.00000000000E+00  0.86755242481E+03  0.86755242481E+03  0.00000000000E+00 0.  1.
          1   -1    0    0  501    0  0.00000000000E+00 -0.00000000000E+00 -0.74865362798E+03  0.74865362798E+03  0.00000000000E+00 0. -1.
         23    2    1    2    0    0  0.25901673330E+02 -0.35694315975E+03 -0.38246038219E+03  0.53261929300E+03  0.96581837632E+02 0.  0.
        254    2    1    2    0    0 -0.25901673330E+02  0.35694315975E+03  0.50135917903E+03  0.10835867598E+04  0.89147065213E+03 0.  0.
        -24    2    4    4    0    0  0.18322289719E+03  0.12043899124E+03 -0.19668667124E+03  0.30517998249E+03  0.79831036596E+02 0.  0.
         13    1    3    3    0    0 -0.32595761588E+02 -0.20802045592E+03 -0.21041271349E+03  0.29767180544E+03  0.00000000000E+00 0. -1.
        -13    1    3    3    0    0  0.58497434918E+02 -0.14892270383E+03 -0.17204766870E+03  0.23494748757E+03  0.00000000000E+00 0.  1.
          4    1    4    4  502    0 -0.34180697868E+02 -0.81691748244E+01  0.31731464142E+02  0.47349142977E+02  0.00000000000E+00 0. -1.
          1    1    5    5  503    0  0.54328275956E+02  0.39198484201E+02 -0.16089803488E+02  0.68898218470E+02  0.00000000000E+00 0. -1.
         -2    1    5    5    0  503  0.12889462124E+03  0.81240507035E+02 -0.18059686776E+03  0.23628176402E+03  0.00000000000E+00 0.  1.
         -3    1    4    4    0  502 -0.17494387266E+03  0.24467334334E+03  0.66631438613E+03  0.73105763431E+03  0.00000000000E+00 0.  1.
<mgrwt>
<rscale>  0 0.16118266E+04</rscale>
<asrwt>0</asrwt>
<pdfrwt beam="1">  1        1 0.11517748E+00 0.16118266E+04</pdfrwt>
<pdfrwt beam="2">  1       -1 0.13346960E+00 0.16118266E+04</pdfrwt>
<totfact> 0.11169211E+01</totfact>
</mgrwt>
</event>
<event>
11    1  0.2404191E-008  0.1506757E+04  0.7818608E-02  0.8879972E-01
         -2   -1    0    0    0  501 -0.00000000000E+00  0.00000000000E+00  0.27315270663E+03  0.27315270663E+03  0.00000000000E+00 0.  1.
          2   -1    0    0  501    0  0.00000000000E+00 -0.00000000000E+00 -0.20778817414E+04  0.20778817414E+04  0.00000000000E+00 0. -1.
         23    2    1    2    0    0 -0.17899012545E+03  0.26995793973E+03 -0.25889584394E+02  0.33754904530E+03  0.91402041379E+02 0.  0.
        254    2    1    2    0    0  0.17899012545E+03 -0.26995793973E+03 -0.17788394504E+04  0.20134854028E+04  0.88596778869E+03 0.  0.
        -24    2    4    4    0    0  0.88915269859E+02  0.23695295701E+03 -0.75202016411E+03  0.79815449782E+03  0.86392396196E+02 0.  0.
         13    1    3    3    0    0 -0.12319841753E+03  0.24237671424E+03 -0.51217363461E+01  0.27193851119E+03  0.00000000000E+00 0.  1.
        -13    1    3    3    0    0 -0.55791707926E+02  0.27581225489E+02 -0.20767848048E+02  0.65610534103E+02  0.00000000000E+00 0. -1.
          4    1    4    4  502    0 -0.90089313737E+02 -0.89416761529E+02 -0.51628853525E+03  0.53166276277E+03  0.00000000000E+00 0. -1.
          3    1    5    5  503    0  0.76542855873E+02  0.83439253779E+02 -0.33334907734E+03  0.35205471907E+03  0.00000000000E+00 0. -1.
         -4    1    5    5    0  503  0.12372413986E+02  0.15351370323E+03 -0.41867108676E+03  0.44609977875E+03  0.00000000000E+00 0.  1.
         -3    1    4    4    0  502  0.18016416933E+03 -0.41749413521E+03 -0.51053075106E+03  0.68366814218E+03  0.00000000000E+00 0.  1.
<mgrwt>
<rscale>  0 0.15067568E+04</rscale>
<asrwt>0</asrwt>
<pdfrwt beam="1">  1        2 0.31967412E+00 0.15067568E+04</pdfrwt>
<pdfrwt beam="2">  1       -2 0.42023492E-01 0.15067568E+04</pdfrwt>
<totfact> 0.31349633E+01</totfact>
</mgrwt>
</event>
<event>
11    1  0.2404191E-008  0.1250534E+04  0.7818608E-02  0.9069739E-01
         -1   -1    0    0    0  501 -0.00000000000E+00  0.00000000000E+00  0.32931935001E+03  0.32931935001E+03  0.00000000000E+00 0.  1.
          1   -1    0    0  501    0  0.00000000000E+00 -0.00000000000E+00 -0.11871715832E+04  0.11871715832E+04  0.00000000000E+00 0. -1.
         23    2    1    2    0    0  0.20586301453E+03 -0.74433779440E+02  0.69078503559E+01  0.24186480870E+03  0.10262016869E+03 0.  0.
        254    2    1    2    0    0 -0.20586301453E+03  0.74433779440E+02 -0.86476008351E+03  0.12746261245E+04  0.91046240279E+03 0.  0.
        -24    2    4    4    0    0  0.11899467289E+03 -0.20889830622E+03  0.36869606351E+02  0.25615116513E+03  0.80348098970E+02 0.  0.
         11    1    3    3    0    0  0.20802076794E+03 -0.50068373383E+02 -0.63234142601E+01  0.21405482353E+03  0.00000000000E+00 0. -1.
        -11    1    3    3    0    0 -0.21577534148E+01 -0.24365406057E+02  0.13231264616E+02  0.27809985175E+02  0.00000000000E+00 0.  1.
          2    1    4    4  502    0 -0.16533130732E+02  0.40183208891E+02 -0.27903453116E+03  0.28239742256E+03  0.00000000000E+00 0. -1.
          1    1    5    5  503    0  0.10364574343E+03 -0.12391844086E+03 -0.17380518061E+01  0.16155878478E+03  0.00000000000E+00 0. -1.
         -2    1    5    5    0  503  0.15348929464E+02 -0.84979865356E+02  0.38607658157E+02  0.94592380348E+02  0.00000000000E+00 0.  1.
         -1    1    4    4    0  502 -0.30832455668E+03  0.24314887676E+03 -0.62259515871E+03  0.73607753679E+03  0.00000000000E+00 0.  1.
<mgrwt>
<rscale>  0 0.12505336E+04</rscale>
<asrwt>0</asrwt>
<pdfrwt beam="1">  1        1 0.18264178E+00 0.12505336E+04</pdfrwt>
<pdfrwt beam="2">  1       -1 0.50664516E-01 0.12505336E+04</pdfrwt>
<totfact> 0.42135926E+01</totfact>
</mgrwt>
</event>
<event>
12    1  0.2404191E-008  0.2642846E+04  0.7818608E-02  0.8353791E-01
          2   -1    0    0  501    0  0.00000000000E+00  0.00000000000E+00  0.22225736219E+04  0.22225736219E+04  0.00000000000E+00 0.  1.
         -2   -1    0    0    0  501 -0.00000000000E+00 -0.00000000000E+00 -0.78564736169E+03  0.78564736169E+03  0.00000000000E+00 0. -1.
         23    2    1    2    0    0  0.37735184467E+03 -0.99225666521E+03  0.11773556752E+04  0.15880917009E+04  0.94345959024E+02 0.  0.
        254    2    1    2    0    0 -0.37735184467E+03  0.99225666521E+03  0.25957058497E+03  0.14201292827E+04  0.90687517706E+03 0.  0.
        -24    2    4    4    0    0 -0.29864281129E+03  0.11281818292E+04  0.97105004381E+02  0.11738403071E+04  0.80560016424E+02 0.  0.
         24    2    4    4    0    0 -0.78709033377E+02 -0.13592516396E+03  0.16246558058E+03  0.24628897565E+03  0.97940964464E+02 0.  0.
         11    1    3    3    0    0  0.89073673857E+02 -0.22602645785E+03  0.21292717298E+03  0.32304807694E+03  0.00000000000E+00 0. -1.
        -11    1    3    3    0    0  0.28827817081E+03 -0.76623020736E+03  0.96442850227E+03  0.12650436239E+04  0.00000000000E+00 0.  1.
          4    1    6    6  502    0 -0.32604812638E+01  0.40907059859E+01 -0.10242992410E+02  0.11501456736E+02  0.00000000000E+00 0. -1.
          1    1    5    5  503    0 -0.97272557749E+02  0.26339258715E+03  0.45244712924E+02  0.28440233738E+03  0.00000000000E+00 0. -1.
         -2    1    5    5    0  503 -0.20137025354E+03  0.86478924201E+03  0.51860291458E+02  0.88943796970E+03  0.00000000000E+00 0.  1.
         -3    1    6    6    0  502 -0.75448552113E+02 -0.14001586995E+03  0.17270857299E+03  0.23478751892E+03  0.00000000000E+00 0.  1.
<mgrwt>
<rscale>  0 0.26428463E+04</rscale>
<asrwt>0</asrwt>
<pdfrwt beam="1">  1        2 0.34193440E+00 0.26428463E+04</pdfrwt>
<pdfrwt beam="2">  1       -2 0.12086883E+00 0.26428463E+04</pdfrwt>
<totfact> 0.23051220E+00</totfact>
</mgrwt>
</event>
<event>
12    1  0.2404191E-008  0.1220623E+04  0.7818608E-02  0.9094995E-01
         -2   -1    0    0    0  501 -0.00000000000E+00  0.00000000000E+00  0.44079902018E+03  0.44079902018E+03  0.00000000000E+00 0.  1.
          2   -1    0    0  501    0  0.00000000000E+00 -0.00000000000E+00 -0.84501077108E+03  0.84501077108E+03  0.00000000000E+00 0. -1.
         23    2    1    2    0    0  0.11875302901E+02 -0.26913275133E+03 -0.11455691897E+02  0.28486572795E+03  0.91890094296E+02 0.  0.
        254    2    1    2    0    0 -0.11875302901E+02  0.26913275133E+03 -0.39275605900E+03  0.10009440633E+04  0.88037391790E+03 0.  0.
        -24    2    4    4    0    0  0.14927793532E+03  0.50228882024E+03 -0.46240635523E+03  0.70338220565E+03  0.79680166708E+02 0.  0.
         24    2    4    4    0    0 -0.16115323822E+03 -0.23315606891E+03  0.69650296224E+02  0.29756185765E+03  0.57963580861E+02 0.  0.
         11    1    3    3    0    0  0.12323283838E+02 -0.23140257578E+03 -0.42997647709E+02  0.23568583562E+03  0.00000000000E+00 0. -1.
        -11    1    3    3    0    0 -0.44798093669E+00 -0.37730175543E+02  0.31541955811E+02  0.49179892332E+02  0.00000000000E+00 0.  1.
          2    1    6    6  502    0 -0.50311498975E+02 -0.98417756253E+02  0.52144385506E+02  0.12221431428E+03  0.00000000000E+00 0. -1.
          1    1    5    5  503    0 -0.83279219780E+01  0.49026722406E+02 -0.51842157696E+02  0.71837198643E+02  0.00000000000E+00 0. -1.
         -2    1    5    5    0  503  0.15760585729E+03  0.45326209783E+03 -0.41056419753E+03  0.63154500701E+03  0.00000000000E+00 0.  1.
         -1    1    6    6    0  502 -0.11084173924E+03 -0.13473831266E+03  0.17505910718E+02  0.17534754337E+03  0.00000000000E+00 0.  1.
<mgrwt>
<rscale>  0 0.12206227E+04</rscale>
<asrwt>0</asrwt>
<pdfrwt beam="1">  1        2 0.13000166E+00 0.12206227E+04</pdfrwt>
<pdfrwt beam="2">  1       -2 0.67815235E-01 0.12206227E+04</pdfrwt>
<totfact> 0.62825819E+01</totfact>
</mgrwt>
</event>
<event>
11    1  0.2404191E-008  0.1304067E+04  0.7818608E-02  0.9026346E-01
         -2   -1    0    0    0  501 -0.00000000000E+00  0.00000000000E+00  0.23559076860E+03  0.23559076860E+03  0.00000000000E+00 0. -1.
          2   -1    0    0  501    0  0.00000000000E+00 -0.00000000000E+00 -0.18046021622E+04  0.18046021622E+04  0.00000000000E+00 0.  1.
         23    2    1    2    0    0 -0.17331059329E+03 -0.25199107907E+03 -0.21580067146E+03  0.38544865842E+03  0.92003656430E+02 0.  0.
        254    2    1    2    0    0  0.17331059329E+03  0.25199107907E+03 -0.13532107222E+04  0.16547442724E+04  0.90192199373E+03 0.  0.
        -24    2    4    4    0    0  0.12904581336E+03  0.56391321416E+03 -0.81179825093E+03  0.99960630266E+03  0.74467610761E+02 0.  0.
         11    1    3    3    0    0 -0.13473151442E+02 -0.36349383362E+02  0.33747661306E+01  0.38912626833E+02  0.00000000000E+00 0. -1.
        -11    1    3    3    0    0 -0.15983744184E+03 -0.21564169571E+03 -0.21917543759E+03  0.34653603158E+03  0.00000000000E+00 0.  1.
          4    1    4    4  502    0 -0.14583740104E+02 -0.20373341986E+03 -0.47073929405E+03  0.51314274311E+03  0.00000000000E+00 0. -1.
          3    1    5    5  503    0  0.60253163170E+02  0.30599291285E+03 -0.37543602349E+03  0.48807203784E+03  0.00000000000E+00 0. -1.
         -2    1    5    5    0  503  0.68792650187E+02  0.25792030131E+03 -0.43636222744E+03  0.51153426482E+03  0.00000000000E+00 0.  1.
         -3    1    4    4    0  502  0.58848520032E+02 -0.10818871523E+03 -0.70673177191E+02  0.14199522664E+03  0.00000000000E+00 0.  1.
<mgrwt>
<rscale>  0 0.13040669E+04</rscale>
<asrwt>0</asrwt>
<pdfrwt beam="1">  1        2 0.27763110E+00 0.13040669E+04</pdfrwt>
<pdfrwt beam="2">  1       -2 0.36244734E-01 0.13040669E+04</pdfrwt>
<totfact> 0.60219408E+01</totfact>
</mgrwt>
</event>
<event>
12    1  0.2404191E-008  0.2385588E+04  0.7818608E-02  0.8444919E-01
         -2   -1    0    0    0  501 -0.00000000000E+00  0.00000000000E+00  0.41083705930E+03  0.41083705930E+03  0.00000000000E+00 0.  1.
          2   -1    0    0  501    0  0.00000000000E+00 -0.00000000000E+00 -0.34630704130E+04  0.34630704130E+04  0.00000000000E+00 0. -1.
         23    2    1    2    0    0  0.30088426671E+03 -0.64622261242E+03 -0.24806946867E+04  0.25827985718E+04  0.94166485581E+02 0.  0.
        254    2    1    2    0    0 -0.30088426671E+03  0.64622261242E+03 -0.57153866699E+03  0.12911089005E+04  0.91223392743E+03 0.  0.
        -24    2    4    4    0    0 -0.37488188730E+03 -0.99628432330E+02 -0.26494450825E+03  0.47611712477E+03  0.77650950373E+02 0.  0.
         24    2    4    4    0    0  0.73997620586E+02  0.74585104475E+03 -0.30659415874E+03  0.81499177574E+03  0.91881377549E+02 0.  0.
         11    1    3    3    0    0  0.21682414674E+03 -0.47147048963E+03 -0.19468092100E+04  0.20147861507E+04  0.00000000000E+00 0. -1.
        -11    1    3    3    0    0  0.84060119979E+02 -0.17475212279E+03 -0.53388547677E+03  0.56801242107E+03  0.00000000000E+00 0.  1.
          2    1    6    6  502    0  0.41762432605E+02  0.51976292402E+03 -0.16790982043E+03  0.54780590154E+03  0.00000000000E+00 0. -1.
          1    1    5    5  503    0 -0.37289346004E+03 -0.10550406101E+03 -0.26569861074E+03  0.46986848285E+03  0.00000000000E+00 0. -1.
         -2    1    5    5    0  503 -0.19884272649E+01  0.58756286757E+01  0.75410248720E+00  0.62486419232E+01  0.00000000000E+00 0.  1.
         -1    1    6    6    0  502  0.32235187981E+02  0.22608812073E+03 -0.13868433831E+03  0.26718587420E+03  0.00000000000E+00 0.  1.
<mgrwt>
<rscale>  0 0.23855881E+04</rscale>
<asrwt>0</asrwt>
<pdfrwt beam="1">  1        2 0.53278003E+00 0.23855881E+04</pdfrwt>
<pdfrwt beam="2">  1       -2 0.63205705E-01 0.23855881E+04</pdfrwt>
<totfact> 0.18039417E+00</totfact>
</mgrwt>
</event>
<event>
11    1  0.2404191E-008  0.2803720E+04  0.7818608E-02  0.8302114E-01
          2   -1    0    0  501    0  0.00000000000E+00  0.00000000000E+00  0.30865733852E+04  0.30865733852E+04  0.00000000000E+00 0. -1.
         -2   -1    0    0    0  501 -0.00000000000E+00 -0.00000000000E+00 -0.63669699911E+03  0.63669699911E+03  0.00000000000E+00 0.  1.
         23    2    1    2    0    0  0.14805234104E+03  0.12536618003E+04  0.13696259449E+04  0.18648457337E+04  0.90481912547E+02 0.  0.
        254    2    1    2    0    0 -0.14805234104E+03 -0.12536618003E+04  0.10802504413E+04  0.18584246506E+04  0.83259459571E+03 0.  0.
        -24    2    4    4    0    0 -0.15691423048E+03 -0.11108175887E+03  0.54772721794E+02  0.21483345190E+03  0.78690076395E+02 0.  0.
         13    1    3    3    0    0  0.32820503805E+02  0.27074361697E+03  0.35280376379E+03  0.44592576439E+03  0.00000000000E+00 0.  1.
        -13    1    3    3    0    0  0.11523183724E+03  0.98291818338E+03  0.10168221811E+04  0.14189199693E+04  0.00000000000E+00 0. -1.
          4    1    4    4  502    0  0.17285532807E+02 -0.11957457332E+04  0.86942359538E+03  0.14785141313E+04  0.00000000000E+00 0. -1.
          3    1    5    5  503    0 -0.96558800808E+02 -0.54358341244E+02 -0.77185844077E+01  0.11107658539E+03  0.00000000000E+00 0. -1.
         -4    1    5    5    0  503 -0.60355429672E+02 -0.56723417628E+02  0.62491306202E+02  0.10375686652E+03  0.00000000000E+00 0.  1.
         -3    1    4    4    0  502 -0.84236433698E+01  0.53165691746E+02  0.15605412410E+03  0.16507706744E+03  0.00000000000E+00 0.  1.
<mgrwt>
<rscale>  0 0.28037204E+04</rscale>
<asrwt>0</asrwt>
<pdfrwt beam="1">  1        2 0.47485743E+00 0.28037204E+04</pdfrwt>
<pdfrwt beam="2">  1       -2 0.97953386E-01 0.28037204E+04</pdfrwt>
<totfact> 0.11576104E+00</totfact>
</mgrwt>
</event>
<event>
11    1  0.2404191E-008  0.1241137E+04  0.7818608E-02  0.9077592E-01
         -2   -1    0    0    0  501 -0.00000000000E+00  0.00000000000E+00  0.30153827094E+03  0.30153827094E+03  0.00000000000E+00 0.  1.
          2   -1    0    0  501    0  0.00000000000E+00 -0.00000000000E+00 -0.12771356546E+04  0.12771356546E+04  0.00000000000E+00 0. -1.
         23    2    1    2    0    0  0.41594742101E+02  0.25683543176E+03 -0.32185900251E+03  0.42292072323E+03  0.87029644758E+02 0.  0.
        254    2    1    2    0    0 -0.41594742101E+02 -0.25683543176E+03 -0.65373838116E+03  0.11557532023E+04  0.91689532231E+03 0.  0.
        -24    2    4    4    0    0  0.27515438680E+03 -0.28900559407E+03 -0.60402523819E+03  0.72824047544E+03  0.79079274934E+02 0.  0.
         13    1    3    3    0    0 -0.75226694906E+01 -0.23254186838E+01 -0.22978129877E+02  0.24289762884E+02  0.00000000000E+00 0. -1.
        -13    1    3    3    0    0  0.49117411591E+02  0.25916085044E+03 -0.29888087263E+03  0.39863096035E+03  0.00000000000E+00 0.  1.
          2    1    4    4  502    0  0.46493560414E+02 -0.29212553457E+02 -0.17881430656E+02  0.57747467492E+02  0.00000000000E+00 0. -1.
          3    1    5    5  503    0  0.53210683160E+02 -0.92169308355E+02 -0.11864164233E+03  0.15938129595E+03  0.00000000000E+00 0. -1.
         -4    1    5    5    0  503  0.22194370364E+03 -0.19683628571E+03 -0.48538359586E+03  0.56885917949E+03  0.00000000000E+00 0.  1.
         -1    1    4    4    0  502 -0.36324268931E+03  0.61382715768E+02 -0.31831712309E+02  0.36976525938E+03  0.00000000000E+00 0.  1.
<mgrwt>
<rscale>  0 0.12411370E+04</rscale>
<asrwt>0</asrwt>
<pdfrwt beam="1">  1        2 0.19648241E+00 0.12411370E+04</pdfrwt>
<pdfrwt beam="2">  1       -2 0.46390504E-01 0.12411370E+04</pdfrwt>
<totfact> 0.73883472E+01</totfact>
</mgrwt>
</event>
<event>
12    1  0.2404191E-008  0.1349864E+04  0.7818608E-02  0.8990931E-01
         -1   -1    0    0    0  501 -0.00000000000E+00  0.00000000000E+00  0.48894961086E+03  0.48894961086E+03  0.00000000000E+00 0.  1.
          1   -1    0    0  501    0  0.00000000000E+00 -0.00000000000E+00 -0.93165681780E+03  0.93165681780E+03  0.00000000000E+00 0. -1.
         23    2    1    2    0    0 -0.10171308484E+03 -0.28394435719E+03  0.99228741644E+02  0.32845358631E+03  0.84056323869E+02 0.  0.
        254    2    1    2    0    0  0.10171308484E+03  0.28394435719E+03 -0.54193594858E+03  0.10921528423E+04  0.89896235130E+03 0.  0.
        -24    2    4    4    0    0 -0.25758932775E+03  0.43829333167E+03 -0.17040889013E+03  0.54238711363E+03  0.81800274097E+02 0.  0.
         24    2    4    4    0    0  0.35930241259E+03 -0.15434897447E+03 -0.37152705846E+03  0.54976572871E+03  0.10624580786E+03 0.  0.
         11    1    3    3    0    0  0.55628904210E+01  0.12934312281E+01  0.89530896915E+01  0.10619629429E+02  0.00000000000E+00 0. -1.
        -11    1    3    3    0    0 -0.10727597526E+03 -0.28523778842E+03  0.90275651953E+02  0.31783395688E+03  0.00000000000E+00 0.  1.
          4    1    6    6  502    0  0.25485134586E+03 -0.64831527449E+02 -0.28227071483E+03  0.38578373720E+03  0.00000000000E+00 0. -1.
          1    1    5    5  503    0 -0.10476203779E+03  0.11572469727E+03 -0.30768316357E+02  0.15910367504E+03  0.00000000000E+00 0. -1.
         -2    1    5    5    0  503 -0.15282728996E+03  0.32256863440E+03 -0.13964057377E+03  0.38328343859E+03  0.00000000000E+00 0.  1.
         -3    1    6    6    0  502  0.10445106673E+03 -0.89517447025E+02 -0.89256343628E+02  0.16398199151E+03  0.00000000000E+00 0.  1.
<mgrwt>
<rscale>  0 0.13498641E+04</rscale>
<asrwt>0</asrwt>
<pdfrwt beam="1">  1        1 0.14333181E+00 0.13498641E+04</pdfrwt>
<pdfrwt beam="2">  1       -1 0.75223019E-01 0.13498641E+04</pdfrwt>
<totfact> 0.29831085E+01</totfact>
</mgrwt>
</event>
<event>
12    1  0.2404191E-008  0.1403994E+04  0.7818608E-02  0.8950932E-01
         -1   -1    0    0    0  501 -0.00000000000E+00  0.00000000000E+00  0.24667242328E+03  0.24667242328E+03  0.00000000000E+00 0.  1.
          1   -1    0    0  501    0  0.00000000000E+00 -0.00000000000E+00 -0.19977912740E+04  0.19977912740E+04  0.00000000000E+00 0. -1.
         23    2    1    2    0    0 -0.34182481793E+03 -0.10476223501E+03 -0.11154350033E+03  0.38527364600E+03  0.90412929363E+02 0.  0.
        254    2    1    2    0    0  0.34182481793E+03  0.10476223501E+03 -0.16395753504E+04  0.18591900513E+04  0.80035053891E+03 0.  0.
        -24    2    4    4    0    0 -0.48421865835E+02  0.18697215669E+03 -0.13279130372E+04  0.13442393006E+04  0.79517283748E+02 0.  0.
         24    2    4    4    0    0  0.39024668377E+03 -0.82209921681E+02 -0.31166231317E+03  0.51495075068E+03  0.94815255915E+02 0.  0.
         13    1    3    3    0    0 -0.30916799459E+03 -0.72086377769E+02 -0.11788829015E+03  0.33864279660E+03  0.00000000000E+00 0.  1.
        -13    1    3    3    0    0 -0.32656823348E+02 -0.32675857238E+02  0.63447898225E+01  0.46630849395E+02  0.00000000000E+00 0. -1.
          4    1    6    6  502    0  0.33695364719E+03 -0.35417910311E+02 -0.25156217468E+03  0.42199018526E+03  0.00000000000E+00 0. -1.
          1    1    5    5  503    0 -0.25829942195E+02  0.18374354536E+03 -0.11509494743E+04  0.11658102628E+04  0.00000000000E+00 0. -1.
         -2    1    5    5    0  503 -0.22591923640E+02  0.32286113312E+01 -0.17696356292E+03  0.17842903785E+03  0.00000000000E+00 0.  1.
         -3    1    6    6    0  502  0.53293036580E+02 -0.46792011370E+02 -0.60100138490E+02  0.92960565416E+02  0.00000000000E+00 0.  1.
<mgrwt>
<rscale>  0 0.14039943E+04</rscale>
<asrwt>0</asrwt>
<pdfrwt beam="1">  1        1 0.30735249E+00 0.14039943E+04</pdfrwt>
<pdfrwt beam="2">  1       -1 0.37949605E-01 0.14039943E+04</pdfrwt>
<totfact> 0.19560948E+01</totfact>
</mgrwt>
</event>
<event>
11    1  0.2404191E-008  0.1766098E+04  0.7818608E-02  0.8724539E-01
         -2   -1    0    0    0  501 -0.00000000000E+00  0.00000000000E+00  0.63988659500E+03  0.63988659500E+03  0.00000000000E+00 0.  1.
          2   -1    0    0  501    0  0.00000000000E+00 -0.00000000000E+00 -0.12186148721E+04  0.12186148721E+04  0.00000000000E+00 0. -1.
         23    2    1    2    0    0  0.64562004940E+03 -0.44938607133E+02 -0.24685505447E+03  0.69781174227E+03  0.84611365233E+02 0.  0.
        254    2    1    2    0    0 -0.64562004940E+03  0.44938607133E+02 -0.33187322262E+03  0.11606897248E+04  0.90455296961E+03 0.  0.
        -24    2    4    4    0    0 -0.24859889276E+03  0.91279348228E+02 -0.61176343626E+03  0.67112648288E+03  0.77607507294E+02 0.  0.
         11    1    3    3    0    0  0.14430421647E+03 -0.34329956977E+02 -0.29181102347E+02  0.15117469885E+03  0.00000000000E+00 0. -1.
        -11    1    3    3    0    0  0.50131583293E+03 -0.10608650156E+02 -0.21767395212E+03  0.54663704342E+03  0.00000000000E+00 0.  1.
          4    1    4    4  502    0 -0.36562622560E+03 -0.53342747387E+02  0.25729608846E+03  0.45025466425E+03  0.00000000000E+00 0. -1.
          3    1    5    5  503    0 -0.18370996416E+03  0.62229012272E+02 -0.35305426828E+03  0.40282641082E+03  0.00000000000E+00 0. -1.
         -4    1    5    5    0  503 -0.64888928594E+02  0.29050335956E+02 -0.25870916798E+03  0.26830007207E+03  0.00000000000E+00 0.  1.
         -3    1    4    4    0  502 -0.31394931051E+02  0.70020062921E+01  0.22594125177E+02  0.39308577694E+02  0.00000000000E+00 0.  1.
<mgrwt>
<rscale>  0 0.17660978E+04</rscale>
<asrwt>0</asrwt>
<pdfrwt beam="1">  1        2 0.18747921E+00 0.17660978E+04</pdfrwt>
<pdfrwt beam="2">  1       -2 0.98444092E-01 0.17660978E+04</pdfrwt>
<totfact> 0.14983715E+01</totfact>
</mgrwt>
</event>
<event>
11    1  0.2404191E-008  0.1445458E+04  0.7818608E-02  0.8921555E-01
          2   -1    0    0  501    0  0.00000000000E+00  0.00000000000E+00  0.31528763094E+04  0.31528763094E+04  0.00000000000E+00 0. -1.
         -2   -1    0    0    0  501 -0.00000000000E+00 -0.00000000000E+00 -0.16567005855E+03  0.16567005855E+03  0.00000000000E+00 0.  1.
         23    2    1    2    0    0 -0.39473173806E+02  0.37952963573E+03  0.14052308382E+04  0.14589540763E+04  0.90952802960E+02 0.  0.
        254    2    1    2    0    0  0.39473173806E+02 -0.37952963573E+03  0.15819754127E+04  0.18595922916E+04  0.89990911150E+03 0.  0.
        -24    2    4    4    0    0 -0.12473582174E+02  0.22018911334E+03  0.17004263978E+03  0.28975445910E+03  0.80026941307E+02 0.  0.
         13    1    3    3    0    0  0.16068199262E+02  0.11563545247E+02  0.85331387608E+02  0.87597650182E+02  0.00000000000E+00 0.  1.
        -13    1    3    3    0    0 -0.55541373069E+02  0.36796609048E+03  0.13198994505E+04  0.13713564261E+04  0.00000000000E+00 0. -1.
          4    1    4    4  502    0 -0.13668214472E+03 -0.21247669526E+03  0.45516288513E+03  0.52057814659E+03  0.00000000000E+00 0. -1.
          1    1    5    5  503    0  0.48398676269E+01  0.32932733540E+02  0.68208595858E+02  0.75897310927E+02  0.00000000000E+00 0. -1.
         -2    1    5    5    0  503 -0.17313449801E+02  0.18725637980E+03  0.10183404392E+03  0.21385714817E+03  0.00000000000E+00 0.  1.
         -3    1    4    4    0  502  0.18862890070E+03 -0.38724205382E+03  0.95676988775E+03  0.10492596859E+04  0.00000000000E+00 0.  1.
<mgrwt>
<rscale>  0 0.14454580E+04</rscale>
<asrwt>0</asrwt>
<pdfrwt beam="1">  1        2 0.48505785E+00 0.14454580E+04</pdfrwt>
<pdfrwt beam="2">  1       -2 0.25487704E-01 0.14454580E+04</pdfrwt>
<totfact> 0.18890980E+01</totfact>
</mgrwt>
</event>
<event>
12    1  0.2404191E-008  0.2867205E+04  0.7818608E-02  0.8282702E-01
         -2   -1    0    0    0  501 -0.00000000000E+00  0.00000000000E+00  0.65036216313E+03  0.65036216313E+03  0.00000000000E+00 0.  1.
          2   -1    0    0  501    0  0.00000000000E+00 -0.00000000000E+00 -0.31601106339E+04  0.31601106339E+04  0.00000000000E+00 0. -1.
         23    2    1    2    0    0 -0.85831450013E+03  0.40144507461E+03 -0.22970988652E+04  0.24869548564E+04  0.10207512968E+03 0.  0.
        254    2    1    2    0    0  0.85831450013E+03 -0.40144507461E+03 -0.21264960557E+03  0.13235179407E+04  0.89923186967E+03 0.  0.
        -24    2    4    4    0    0  0.17540527278E+03  0.24010712876E+03 -0.22572015227E+03  0.38166045576E+03  0.79351580628E+02 0.  0.
         24    2    4    4    0    0  0.68290922735E+03 -0.64155220337E+03  0.13070546705E+02  0.94185748490E+03  0.94712408038E+02 0.  0.
         11    1    3    3    0    0 -0.84332805777E+03  0.38156622750E+03 -0.22017392747E+04  0.23883992197E+04  0.00000000000E+00 0. -1.
        -11    1    3    3    0    0 -0.14986442362E+02  0.19878847109E+02 -0.95359590544E+02  0.98555636702E+02  0.00000000000E+00 0.  1.
          2    1    6    6  502    0  0.17496573992E+03 -0.22279271536E+03  0.12324770619E+02  0.28355158990E+03  0.00000000000E+00 0. -1.
          3    1    5    5  503    0  0.63344133028E+02  0.72124671865E+02 -0.30317458711E+02  0.10066576272E+03  0.00000000000E+00 0. -1.
         -4    1    5    5    0  503  0.11206113975E+03  0.16798245689E+03 -0.19540269356E+03  0.28099469304E+03  0.00000000000E+00 0.  1.
         -1    1    6    6    0  502  0.50794348743E+03 -0.41875948800E+03  0.74577608601E+00  0.65830589500E+03  0.00000000000E+00 0.  1.
<mgrwt>
<rscale>  0 0.28672052E+04</rscale>
<asrwt>0</asrwt>
<pdfrwt beam="1">  1        2 0.48617085E+00 0.28672052E+04</pdfrwt>
<pdfrwt beam="2">  1       -2 0.10005572E+00 0.28672052E+04</pdfrwt>
<totfact> 0.98222036E-01</totfact>
</mgrwt>
</event>
<event>
12    1  0.2404191E-008  0.1516273E+04  0.7818608E-02  0.8873703E-01
         -2   -1    0    0    0  501 -0.00000000000E+00  0.00000000000E+00  0.49354611530E+03  0.49354611530E+03  0.00000000000E+00 0.  1.
          2   -1    0    0  501    0  0.00000000000E+00 -0.00000000000E+00 -0.11645734565E+04  0.11645734565E+04  0.00000000000E+00 0. -1.
         23    2    1    2    0    0 -0.46537872663E+03 -0.14101421930E+03 -0.28714032811E+03  0.57187816311E+03  0.90181462408E+02 0.  0.
        254    2    1    2    0    0  0.46537872663E+03  0.14101421930E+03 -0.38388701313E+03  0.10862414087E+04  0.89223807918E+03 0.  0.
        -24    2    4    4    0    0  0.35105731621E+02 -0.30254863726E+03 -0.33376217203E+03  0.45893210126E+03  0.80333030540E+02 0.  0.
         24    2    4    4    0    0  0.43027299501E+03  0.44356285656E+03 -0.50124841101E+02  0.62730930746E+03  0.95507117935E+02 0.  0.
         13    1    3    3    0    0 -0.13754018159E+03 -0.62071770435E+01 -0.55589585623E+02  0.14847906461E+03  0.00000000000E+00 0.  1.
        -13    1    3    3    0    0 -0.32783854505E+03 -0.13480704226E+03 -0.23155074249E+03  0.42339909850E+03  0.00000000000E+00 0. -1.
          2    1    6    6  502    0  0.74431955745E+02  0.13290870129E+03 -0.37778456324E+00  0.15233181426E+03  0.00000000000E+00 0. -1.
          3    1    5    5  503    0  0.47768161858E+02 -0.11813574422E+03 -0.10714011438E+03  0.16648379939E+03  0.00000000000E+00 0. -1.
         -2    1    5    5    0  503 -0.12662430237E+02 -0.18441289304E+03 -0.22662205764E+03  0.29244830187E+03  0.00000000000E+00 0.  1.
         -1    1    6    6    0  502  0.35584103927E+03  0.31065415526E+03 -0.49747056538E+02  0.47497749320E+03  0.00000000000E+00 0.  1.
<mgrwt>
<rscale>  0 0.15162727E+04</rscale>
<asrwt>0</asrwt>
<pdfrwt beam="1">  1        2 0.17916515E+00 0.15162727E+04</pdfrwt>
<pdfrwt beam="2">  1       -2 0.75930172E-01 0.15162727E+04</pdfrwt>
<totfact> 0.29830719E+01</totfact>
</mgrwt>
</event>
<event>
11    1  0.2404191E-008  0.3008103E+04  0.7818608E-02  0.8241421E-01
          1   -1    0    0  501    0  0.00000000000E+00  0.00000000000E+00  0.17091217840E+04  0.17091217840E+04  0.00000000000E+00 0. -1.
         -1   -1    0    0    0  501 -0.00000000000E+00 -0.00000000000E+00 -0.13235863307E+04  0.13235863307E+04  0.00000000000E+00 0.  1.
         23    2    1    2    0    0  0.10253461326E+04 -0.29867730643E+03 -0.69517934376E+03  0.12774511003E+04  0.89800716235E+02 0.  0.
        254    2    1    2    0    0 -0.10253461326E+04  0.29867730643E+03  0.10807147971E+04  0.17552570144E+04  0.87888559494E+03 0.  0.
        -24    2    4    4    0    0 -0.89155014184E+03  0.53239783493E+03  0.64194144754E+03  0.12234137776E+04  0.79645081646E+02 0.  0.
         11    1    3    3    0    0  0.90505368932E+03 -0.23365216536E+03 -0.61573787751E+03  0.11193072182E+04  0.00000000000E+00 0.  1.
        -11    1    3    3    0    0  0.12029244327E+03 -0.65025141068E+02 -0.79441466251E+02  0.15814388208E+03  0.00000000000E+00 0. -1.
          2    1    4    4  502    0 -0.15613892379E+03 -0.16393043887E+03  0.31323465567E+03  0.38648221411E+03  0.00000000000E+00 0. -1.
          1    1    5    5  503    0 -0.71036776077E+03  0.43019940295E+03  0.47524766336E+03  0.95684597683E+03  0.00000000000E+00 0. -1.
         -2    1    5    5    0  503 -0.18118238107E+03  0.10219843198E+03  0.16669378419E+03  0.26656780075E+03  0.00000000000E+00 0.  1.
         -1    1    4    4    0  502  0.22342933034E+02 -0.69790089625E+02  0.12553869391E+03  0.14536102275E+03  0.00000000000E+00 0.  1.
<mgrwt>
<rscale>  0 0.30081025E+04</rscale>
<asrwt>0</asrwt>
<pdfrwt beam="1">  1        1 0.26294181E+00 0.30081025E+04</pdfrwt>
<pdfrwt beam="2">  1       -1 0.20362867E+00 0.30081025E+04</pdfrwt>
<totfact> 0.56778821E-01</totfact>
</mgrwt>
</event>
<event>
12    1  0.2404191E-008  0.1030866E+04  0.7818608E-02  0.9275325E-01
          2   -1    0    0  501    0  0.00000000000E+00  0.00000000000E+00  0.17085207959E+04  0.17085207959E+04  0.00000000000E+00 0. -1.
         -2   -1    0    0    0  501 -0.00000000000E+00 -0.00000000000E+00 -0.15549772050E+03  0.15549772050E+03  0.00000000000E+00 0.  1.
         23    2    1    2    0    0 -0.31007454423E+02  0.75384688921E+02  0.22329195090E+03  0.25499104464E+03  0.92286640179E+02 0.  0.
        254    2    1    2    0    0  0.31007454423E+02 -0.75384688921E+02  0.13297311244E+04  0.16090274717E+04  0.90229719487E+03 0.  0.
        -24    2    4    4    0    0 -0.18716912815E+03  0.34790562880E+03  0.75559659037E+03  0.85648187146E+03  0.81020859542E+02 0.  0.
         24    2    4    4    0    0  0.21817658258E+03 -0.42329031772E+03  0.57413453408E+03  0.75254560025E+03  0.99592685406E+02 0.  0.
         11    1    3    3    0    0  0.24528469510E+02  0.12639120080E+01  0.85552364235E+02  0.89008147471E+02  0.00000000000E+00 0. -1.
        -11    1    3    3    0    0 -0.55535923933E+02  0.74120776913E+02  0.13773958667E+03  0.16598289717E+03  0.00000000000E+00 0.  1.
          2    1    6    6  502    0  0.33076661489E+02 -0.32610160748E+02  0.10376608027E+03  0.11368767538E+03  0.00000000000E+00 0. -1.
          1    1    5    5  503    0 -0.10714065742E+03  0.13455164570E+03  0.38096023607E+03  0.41798799899E+03  0.00000000000E+00 0. -1.
         -2    1    5    5    0  503 -0.80028470729E+02  0.21335398310E+03  0.37463635430E+03  0.43849387247E+03  0.00000000000E+00 0.  1.
         -1    1    6    6    0  502  0.18509992109E+03 -0.39068015697E+03  0.47036845380E+03  0.63885792487E+03  0.00000000000E+00 0.  1.
<mgrwt>
<rscale>  0 0.10308658E+04</rscale>
<asrwt>0</asrwt>
<pdfrwt beam="1">  1        2 0.26284934E+00 0.10308658E+04</pdfrwt>
<pdfrwt beam="2">  1       -2 0.23922727E-01 0.10308658E+04</pdfrwt>
<totfact> 0.15026613E+02</totfact>
</mgrwt>
</event>
<event>
11    1  0.2404191E-008  0.1210847E+04  0.7818608E-02  0.9103415E-01
         -1   -1    0    0    0  501 -0.00000000000E+00  0.00000000000E+00  0.52688573210E+03  0.52688573210E+03  0.00000000000E+00 0.  1.
          1   -1    0    0  501    0  0.00000000000E+00 -0.00000000000E+00 -0.69566845525E+03  0.69566845525E+03  0.00000000000E+00 0. -1.
         23    2    1    2    0    0  0.16222783420E+03  0.14311293658E+03  0.69223920564E+02  0.24962225023E+03  0.10353807909E+03 0.  0.
        254    2    1    2    0    0 -0.16222783420E+03 -0.14311293658E+03 -0.23800664372E+03  0.97293193712E+03  0.91823211064E+03 0.  0.
        -24    2    4    4    0    0  0.15953469316E+02  0.34934272458E+03 -0.13861844832E+03  0.38462267811E+03  0.80154088494E+02 0.  0.
         13    1    3    3    0    0  0.14622009118E+03  0.12927902480E+03  0.94342460693E+02  0.21678072149E+03  0.00000000000E+00 0.  1.
        -13    1    3    3    0    0  0.16007743023E+02  0.13833911781E+02 -0.25118540128E+02  0.32841528740E+02  0.00000000000E+00 0. -1.
          4    1    4    4  502    0 -0.91222797396E+02 -0.15023379250E+02 -0.34612202074E+02  0.98718312492E+02  0.00000000000E+00 0. -1.
          3    1    5    5  503    0  0.57553438574E+01  0.12687110041E+03 -0.98806636475E+01  0.12738535087E+03  0.00000000000E+00 0. -1.
         -4    1    5    5    0  503  0.10198125459E+02  0.22247162418E+03 -0.12873778468E+03  0.25723732725E+03  0.00000000000E+00 0.  1.
         -3    1    4    4    0  502 -0.86958506124E+02 -0.47743228192E+03 -0.64775993319E+02  0.48959094652E+03  0.00000000000E+00 0.  1.
<mgrwt>
<rscale>  0 0.12108473E+04</rscale>
<asrwt>0</asrwt>
<pdfrwt beam="1">  1        1 0.10702592E+00 0.12108473E+04</pdfrwt>
<pdfrwt beam="2">  1       -1 0.81059343E-01 0.12108473E+04</pdfrwt>
<totfact> 0.41271877E+01</totfact>
</mgrwt>
</event>
<event>
12    1  0.2404191E-008  0.1615298E+04  0.7818608E-02  0.8811204E-01
          1   -1    0    0  501    0  0.00000000000E+00  0.00000000000E+00  0.70095190850E+03  0.70095190850E+03  0.00000000000E+00 0. -1.
         -1   -1    0    0    0  501 -0.00000000000E+00 -0.00000000000E+00 -0.93058754089E+03  0.93058754089E+03  0.00000000000E+00 0.  1.
         23    2    1    2    0    0 -0.14463921546E+03 -0.13009774567E+03 -0.60282989177E+03  0.63990668524E+03  0.90723543396E+02 0.  0.
        254    2    1    2    0    0  0.14463921546E+03  0.13009774567E+03  0.37319425937E+03  0.99163276415E+03  0.89789512619E+03 0.  0.
        -24    2    4    4    0    0  0.41555052228E+03 -0.17514651108E+03  0.35304004915E+03  0.57833566120E+03  0.80475610020E+02 0.  0.
         24    2    4    4    0    0 -0.27091130682E+03  0.30524425675E+03  0.20154210227E+02  0.41329710295E+03  0.61978308070E+02 0.  0.
         13    1    3    3    0    0 -0.11541709143E+03 -0.64304327231E+02 -0.28663145817E+03  0.31561645126E+03  0.00000000000E+00 0. -1.
        -13    1    3    3    0    0 -0.29222124031E+02 -0.65793418442E+02 -0.31619843360E+03  0.32429023398E+03  0.00000000000E+00 0.  1.
          4    1    6    6  502    0 -0.29012449816E+02  0.49158955320E+02  0.21576154171E+02  0.61023401751E+02  0.00000000000E+00 0. -1.
          1    1    5    5  503    0  0.19632588400E+03 -0.12582928653E+03  0.18801455640E+03  0.29954354524E+03  0.00000000000E+00 0. -1.
         -2    1    5    5    0  503  0.21922463828E+03 -0.49317224546E+02  0.16502549274E+03  0.27879211596E+03  0.00000000000E+00 0.  1.
         -3    1    6    6    0  502 -0.24189885700E+03  0.25608530143E+03 -0.14219439438E+01  0.35227370120E+03  0.00000000000E+00 0.  1.
<mgrwt>
<rscale>  0 0.16152983E+04</rscale>
<asrwt>0</asrwt>
<pdfrwt beam="1">  1        1 0.10783876E+00 0.16152983E+04</pdfrwt>
<pdfrwt beam="2">  1       -1 0.14316731E+00 0.16152983E+04</pdfrwt>
<totfact> 0.10297905E+01</totfact>
</mgrwt>
</event>
<event>
12    1  0.2404191E-008  0.1261580E+04  0.7818608E-02  0.9060600E-01
         -1   -1    0    0    0  501 -0.00000000000E+00  0.00000000000E+00  0.27687309959E+03  0.27687309959E+03  0.00000000000E+00 0.  1.
          1   -1    0    0  501    0  0.00000000000E+00 -0.00000000000E+00 -0.14371059722E+04  0.14371059722E+04  0.00000000000E+00 0. -1.
         23    2    1    2    0    0  0.21371243810E+03 -0.88171475946E+02 -0.44945640743E+02  0.25296245532E+03  0.92318350327E+02 0.  0.
        254    2    1    2    0    0 -0.21371243810E+03  0.88171475946E+02 -0.11152872319E+04  0.14610166165E+04  0.91501733790E+03 0.  0.
        -24    2    4    4    0    0 -0.53015172278E+03  0.19651800156E+03 -0.50729926035E+03  0.76377939074E+03  0.79537689530E+02 0.  0.
         24    2    4    4    0    0  0.31643928468E+03 -0.10834652562E+03 -0.60798797150E+03  0.69723722572E+03  0.67952814071E+02 0.  0.
         11    1    3    3    0    0  0.81714003425E+02  0.56771830693E+00 -0.46262726255E+02  0.93902824773E+02  0.00000000000E+00 0. -1.
        -11    1    3    3    0    0  0.13199843468E+03 -0.88739194253E+02  0.13170855112E+01  0.15905963054E+03  0.00000000000E+00 0.  1.
          2    1    6    6  502    0  0.31512802454E+03 -0.10179084874E+03 -0.57470507390E+03  0.66328950746E+03  0.00000000000E+00 0. -1.
          1    1    5    5  503    0 -0.46064540619E+03  0.19003959994E+03 -0.46826688149E+03  0.68380049143E+03  0.00000000000E+00 0. -1.
         -2    1    5    5    0  503 -0.69506316593E+02  0.64784016191E+01 -0.39032378866E+02  0.79978899304E+02  0.00000000000E+00 0.  1.
         -1    1    6    6    0  502  0.13112601352E+01 -0.65556768771E+01 -0.33282897598E+02  0.33947718259E+02  0.00000000000E+00 0.  1.
<mgrwt>
<rscale>  0 0.12615799E+04</rscale>
<asrwt>0</asrwt>
<pdfrwt beam="1">  1        1 0.22109323E+00 0.12615799E+04</pdfrwt>
<pdfrwt beam="2">  1       -1 0.42595861E-01 0.12615799E+04</pdfrwt>
<totfact> 0.38665486E+01</totfact>
</mgrwt>
</event>
<event>
12    1  0.2404191E-008  0.1190591E+04  0.7818608E-02  0.9121132E-01
          1   -1    0    0  501    0  0.00000000000E+00  0.00000000000E+00  0.61503558567E+03  0.61503558567E+03  0.00000000000E+00 0. -1.
         -1   -1    0    0    0  501 -0.00000000000E+00 -0.00000000000E+00 -0.57618884749E+03  0.57618884749E+03  0.00000000000E+00 0.  1.
         23    2    1    2    0    0  0.23937278525E+03  0.51125046690E+02 -0.91711183088E+00  0.26142179898E+03  0.91800954083E+02 0.  0.
        254    2    1    2    0    0 -0.23937278525E+03 -0.51125046690E+02  0.39763850013E+02  0.92980263418E+03  0.89612425145E+03 0.  0.
        -24    2    4    4    0    0  0.23443813544E+03 -0.18765057143E+03  0.23646221314E+03  0.39005015810E+03  0.77786703752E+02 0.  0.
         24    2    4    4    0    0 -0.47381092070E+03  0.13652552474E+03 -0.19669836313E+03  0.53975247608E+03  0.97501189220E+02 0.  0.
         13    1    3    3    0    0  0.21874667811E+02  0.14082288723E+02  0.28787438312E+02  0.38801141118E+02  0.00000000000E+00 0. -1.
        -13    1    3    3    0    0  0.21749811744E+03  0.37042757967E+02 -0.29704550143E+02  0.22262065787E+03  0.00000000000E+00 0.  1.
          4    1    6    6  502    0 -0.55728397949E+02  0.96852467712E+01 -0.58840579074E+02  0.81619066943E+02  0.00000000000E+00 0. -1.
          1    1    5    5  503    0  0.34226290021E+02 -0.56915037642E+02  0.81407094994E+02  0.10506129427E+03  0.00000000000E+00 0. -1.
         -2    1    5    5    0  503  0.20021184542E+03 -0.13073553378E+03  0.15505511815E+03  0.28498886383E+03  0.00000000000E+00 0.  1.
         -3    1    6    6    0  502 -0.41808252275E+03  0.12684027796E+03 -0.13785778406E+03  0.45813340914E+03  0.00000000000E+00 0.  1.
<mgrwt>
<rscale>  0 0.11905909E+04</rscale>
<asrwt>0</asrwt>
<pdfrwt beam="1">  1        1 0.94620860E-01 0.11905909E+04</pdfrwt>
<pdfrwt beam="2">  1       -1 0.88644438E-01 0.11905909E+04</pdfrwt>
<totfact> 0.40892324E+01</totfact>
</mgrwt>
</event>
<event>
11    1  0.2404191E-008  0.1374600E+04  0.7818608E-02  0.8972412E-01
          1   -1    0    0  501    0  0.00000000000E+00  0.00000000000E+00  0.26481026323E+04  0.26481026323E+04  0.00000000000E+00 0. -1.
         -1   -1    0    0    0  501 -0.00000000000E+00 -0.00000000000E+00 -0.17838489997E+03  0.17838489997E+03  0.00000000000E+00 0.  1.
         23    2    1    2    0    0 -0.97795086153E+02 -0.15558297113E+01 -0.49296062646E+02  0.14855177819E+03  0.10035551570E+03 0.  0.
        254    2    1    2    0    0  0.97795086153E+02  0.15558297113E+01  0.25190137949E+04  0.26779357540E+04  0.90351707465E+03 0.  0.
        -24    2    4    4    0    0  0.48229283699E+02 -0.43278975776E+03  0.13573867589E+04  0.14275012110E+04  0.75019036100E+02 0.  0.
         11    1    3    3    0    0 -0.76243313713E+02  0.24615951787E+02 -0.72025552742E+02  0.10773424811E+03  0.00000000000E+00 0.  1.
        -11    1    3    3    0    0 -0.21551772440E+02 -0.26171781499E+02  0.22729490095E+02  0.40817530083E+02  0.00000000000E+00 0. -1.
          2    1    4    4  502    0  0.96783086708E+02  0.21312044792E+03  0.65618515714E+03  0.69668231759E+03  0.00000000000E+00 0. -1.
          3    1    5    5  503    0 -0.11376047063E+02 -0.12732038232E+03  0.32548839977E+03  0.34968928006E+03  0.00000000000E+00 0. -1.
         -4    1    5    5    0  503  0.59605330762E+02 -0.30546937544E+03  0.10318983592E+04  0.10778119309E+04  0.00000000000E+00 0.  1.
         -1    1    4    4    0  502 -0.47217284255E+02  0.22122513956E+03  0.50544187888E+03  0.55375222549E+03  0.00000000000E+00 0.  1.
<mgrwt>
<rscale>  0 0.13746003E+04</rscale>
<asrwt>0</asrwt>
<pdfrwt beam="1">  1        1 0.40740038E+00 0.13746003E+04</pdfrwt>
<pdfrwt beam="2">  1       -1 0.27443833E-01 0.13746003E+04</pdfrwt>
<totfact> 0.12497244E+01</totfact>
</mgrwt>
</event>
<event>
12    1  0.2420760E-008  0.3698630E+04  0.7818608E-02  0.8068266E-01
          2   -1    0    0  501    0  0.00000000000E+00  0.00000000000E+00  0.20368429369E+04  0.20368429369E+04  0.00000000000E+00 0.  1.
         -2   -1    0    0    0  501 -0.00000000000E+00 -0.00000000000E+00 -0.16790522295E+04  0.16790522295E+04  0.00000000000E+00 0. -1.
         23    2    1    2    0    0  0.13501369416E+04 -0.96262330533E+03  0.71014102333E+03  0.18061536476E+04  0.91527791616E+02 0.  0.
        254    2    1    2    0    0 -0.13501369416E+04  0.96262330533E+03 -0.35235031590E+03  0.19097415188E+04  0.87945922840E+03 0.  0.
        -24    2    4    4    0    0  0.10448535895E+03  0.65268621663E+02  0.43394009944E+02  0.15293124086E+03  0.79547100023E+02 0.  0.
         24    2    4    4    0    0 -0.14546223006E+04  0.89735468366E+03 -0.39574432584E+03  0.17568102779E+04  0.92721710704E+02 0.  0.
         11    1    3    3    0    0  0.94074836053E+03 -0.67087706625E+03  0.54018861892E+03  0.12754949078E+04  0.00000000000E+00 0. -1.
        -11    1    3    3    0    0  0.40938858109E+03 -0.29174623907E+03  0.16995240441E+03  0.53065873978E+03  0.00000000000E+00 0.  1.
          4    1    6    6  502    0 -0.10801306162E+03  0.66157172967E+02 -0.54844777924E+02  0.13802732585E+03  0.00000000000E+00 0. -1.
          1    1    5    5  503    0 -0.14149038596E+01  0.34641652797E+02  0.20698715599E+02  0.40379238339E+02  0.00000000000E+00 0. -1.
         -2    1    5    5    0  503  0.10590026281E+03  0.30626968866E+02  0.22695294346E+02  0.11255200252E+03  0.00000000000E+00 0.  1.
         -3    1    6    6    0  502 -0.13466092390E+04  0.83119751070E+03 -0.34089954792E+03  0.16187829521E+04  0.00000000000E+00 0.  1.
<mgrwt>
<rscale>  0 0.36986298E+04</rscale>
<asrwt>0</asrwt>
<pdfrwt beam="1">  1        2 0.31336045E+00 0.36986298E+04</pdfrwt>
<pdfrwt beam="2">  1       -2 0.25831573E+00 0.36986298E+04</pdfrwt>
<totfact> 0.29439434E-01</totfact>
</mgrwt>
</event>
<event>
12    1  0.2404191E-008  0.1808801E+04  0.7818608E-02  0.8701633E-01
          2   -1    0    0  501    0  0.00000000000E+00  0.00000000000E+00  0.19748212996E+04  0.19748212996E+04  0.00000000000E+00 0. -1.
         -2   -1    0    0    0  501 -0.00000000000E+00 -0.00000000000E+00 -0.41418444174E+03  0.41418444174E+03  0.00000000000E+00 0.  1.
         23    2    1    2    0    0  0.16527163997E+02  0.66846789664E+03  0.72744983650E+03  0.99216494011E+03  0.89919562763E+02 0.  0.
        254    2    1    2    0    0 -0.16527163997E+02 -0.66846789664E+03  0.83318702136E+03  0.13968408012E+04  0.89991173756E+03 0.  0.
        -24    2    4    4    0    0  0.38625500597E+03 -0.19535825766E+03  0.14411847047E+03  0.46346426360E+03  0.81677485440E+02 0.  0.
         24    2    4    4    0    0 -0.40278216996E+03 -0.47310963898E+03  0.68906855088E+03  0.93337653762E+03  0.10153859476E+03 0.  0.
         11    1    3    3    0    0  0.98833882979E+01  0.55331352724E+03  0.64776971955E+03  0.85197367938E+03  0.00000000000E+00 0. -1.
        -11    1    3    3    0    0  0.66437756991E+01  0.11515436940E+03  0.79680116953E+02  0.14019126073E+03  0.00000000000E+00 0.  1.
          4    1    6    6  502    0 -0.98395609242E+02 -0.95357668852E+02  0.21587860427E+03  0.25569190974E+03  0.00000000000E+00 0. -1.
          3    1    5    5  503    0  0.77380372425E+02 -0.67551092048E+02  0.96889061895E+01  0.10317338308E+03  0.00000000000E+00 0. -1.
         -4    1    5    5    0  503  0.30887463354E+03 -0.12780716562E+03  0.13442956428E+03  0.36029088051E+03  0.00000000000E+00 0.  1.
         -3    1    6    6    0  502 -0.30438656072E+03 -0.37775197013E+03  0.47318994662E+03  0.67768462788E+03  0.00000000000E+00 0.  1.
<mgrwt>
<rscale>  0 0.18088010E+04</rscale>
<asrwt>0</asrwt>
<pdfrwt beam="1">  1        2 0.30381866E+00 0.18088010E+04</pdfrwt>
<pdfrwt beam="2">  1       -2 0.63720685E-01 0.18088010E+04</pdfrwt>
<totfact> 0.14831198E+01</totfact>
</mgrwt>
</event>
<event>
11    1  0.2404191E-008  0.1407572E+04  0.7818608E-02  0.8948356E-01
         -4   -1    0    0    0  501 -0.00000000000E+00  0.00000000000E+00  0.19531657217E+04  0.19531657217E+04  0.00000000000E+00 0.  1.
          4   -1    0    0  501    0  0.00000000000E+00 -0.00000000000E+00 -0.25359568550E+03  0.25359568550E+03  0.00000000000E+00 0. -1.
         23    2    1    2    0    0  0.23003557815E+03 -0.33884040402E+03  0.53903777130E+03  0.68213181695E+03  0.83743120337E+02 0.  0.
        254    2    1    2    0    0 -0.23003557815E+03  0.33884040402E+03  0.11605322649E+04  0.15246295903E+04  0.89996170087E+03 0.  0.
        -24    2    4    4    0    0  0.43329253552E+02 -0.12003983936E+03 -0.67335061954E+02  0.16431325420E+03  0.78599285548E+02 0.  0.
         11    1    3    3    0    0  0.47924591821E+02 -0.89848787734E+02  0.82065046740E+02  0.13078319103E+03  0.00000000000E+00 0. -1.
        -11    1    3    3    0    0  0.18211098633E+03 -0.24899161628E+03  0.45697272456E+03  0.55134862593E+03  0.00000000000E+00 0.  1.
          2    1    4    4  502    0 -0.98497159442E+02  0.30501964883E+03  0.48133922636E+03  0.57829588225E+03  0.00000000000E+00 0. -1.
          3    1    5    5  503    0  0.16117049046E+01 -0.98522103983E+02 -0.26348197978E+02  0.10199720635E+03  0.00000000000E+00 0. -1.
         -4    1    5    5    0  503  0.41717548647E+02 -0.21517735380E+02 -0.40986863976E+02  0.62316047850E+02  0.00000000000E+00 0.  1.
         -1    1    4    4    0  502 -0.17486767226E+03  0.15386059455E+03  0.74652810054E+03  0.78202045386E+03  0.00000000000E+00 0.  1.
<mgrwt>
<rscale>  0 0.14075715E+04</rscale>
<asrwt>0</asrwt>
<pdfrwt beam="1">  1        4 0.39014722E-01 0.14075715E+04</pdfrwt>
<pdfrwt beam="2">  1       -4 0.30048702E+00 0.14075715E+04</pdfrwt>
<totfact> 0.38560884E-01</totfact>
</mgrwt>
</event>
<event>
11    1  0.2404191E-008  0.2550815E+04  0.7818608E-02  0.8385103E-01
         -1   -1    0    0    0  501 -0.00000000000E+00  0.00000000000E+00  0.11722655509E+04  0.11722655509E+04  0.00000000000E+00 0.  1.
          1   -1    0    0  501    0  0.00000000000E+00 -0.00000000000E+00 -0.13876248062E+04  0.13876248062E+04  0.00000000000E+00 0. -1.
         23    2    1    2    0    0  0.24073472608E+02 -0.16876464368E+03  0.10077686449E+04  0.10283717953E+04  0.11353356574E+03 0.  0.
        254    2    1    2    0    0 -0.24073472608E+02  0.16876464368E+03 -0.12231279003E+04  0.15315185618E+04  0.90578485728E+03 0.  0.
        -24    2    4    4    0    0  0.22533473043E+03  0.36521726947E+03 -0.25987728498E+03  0.50782054316E+03  0.78651803200E+02 0.  0.
         11    1    3    3    0    0  0.39986825544E+02 -0.13098341780E+03  0.93391318088E+03  0.94390117670E+03  0.00000000000E+00 0.  1.
        -11    1    3    3    0    0 -0.15913352936E+02 -0.37781225877E+02  0.73855464058E+02  0.84470618570E+02  0.00000000000E+00 0. -1.
          4    1    4    4  502    0  0.80890609019E+01 -0.11300550618E+02 -0.57520199870E+01  0.15040647741E+02  0.00000000000E+00 0. -1.
          3    1    5    5  503    0  0.17935366470E+02  0.71522177225E+02 -0.22921954995E+02  0.77217324651E+02  0.00000000000E+00 0. -1.
         -4    1    5    5    0  503  0.20739936396E+03  0.29369509225E+03 -0.23695532998E+03  0.43060321850E+03  0.00000000000E+00 0.  1.
         -3    1    4    4    0  502 -0.25749726394E+03 -0.18515207518E+03 -0.95749859529E+03  0.10086573709E+04  0.00000000000E+00 0.  1.
<mgrwt>
<rscale>  0 0.25508154E+04</rscale>
<asrwt>0</asrwt>
<pdfrwt beam="1">  1        1 0.21348074E+00 0.25508154E+04</pdfrwt>
<pdfrwt beam="2">  1       -1 0.18034855E+00 0.25508154E+04</pdfrwt>
<totfact> 0.14346547E+00</totfact>
</mgrwt>
</event>
<event>
12    1  0.2404191E-008  0.1597186E+04  0.7818608E-02  0.8822278E-01
          2   -1    0    0  501    0  0.00000000000E+00  0.00000000000E+00  0.57269833786E+03  0.57269833786E+03  0.00000000000E+00 0.  1.
         -2   -1    0    0    0  501 -0.00000000000E+00 -0.00000000000E+00 -0.11135899198E+04  0.11135899198E+04  0.00000000000E+00 0. -1.
         23    2    1    2    0    0 -0.32718720364E+03 -0.41034102094E+03 -0.52283517175E+02  0.53525452268E+03  0.91283175866E+02 0.  0.
        254    2    1    2    0    0  0.32718720364E+03  0.41034102094E+03 -0.48860806482E+03  0.11510337350E+04  0.90039413507E+03 0.  0.
        -24    2    4    4    0    0  0.23755689342E+02  0.13817097953E+03 -0.67380145755E+03  0.69264487463E+03  0.78057451910E+02 0.  0.
         24    2    4    4    0    0  0.30343151429E+03  0.27217004141E+03  0.18519339273E+03  0.45838886039E+03  0.98369402307E+02 0.  0.
         13    1    3    3    0    0 -0.19180321235E+03 -0.27430520904E+03 -0.71849747939E+02  0.34233639341E+03  0.00000000000E+00 0. -1.
        -13    1    3    3    0    0 -0.13538399129E+03 -0.13603581190E+03  0.19566230764E+02  0.19291812927E+03  0.00000000000E+00 0.  1.
          4    1    6    6  502    0  0.30002801427E+03  0.24939901707E+03  0.19136214986E+03  0.43455281781E+03  0.00000000000E+00 0. -1.
          3    1    5    5  503    0 -0.39825539105E+01  0.13136069143E+03 -0.53165935043E+03  0.54766153497E+03  0.00000000000E+00 0. -1.
         -4    1    5    5    0  503  0.27738243252E+02  0.68102881009E+01 -0.14214210712E+03  0.14498333966E+03  0.00000000000E+00 0.  1.
         -1    1    6    6    0  502  0.34035000209E+01  0.22771024335E+02 -0.61687571209E+01  0.23836042584E+02  0.00000000000E+00 0.  1.
<mgrwt>
<rscale>  0 0.15971864E+04</rscale>
<asrwt>0</asrwt>
<pdfrwt beam="1">  1        2 0.88107437E-01 0.15971864E+04</pdfrwt>
<pdfrwt beam="2">  1       -2 0.17132153E+00 0.15971864E+04</pdfrwt>
<totfact> 0.10484673E+01</totfact>
</mgrwt>
</event>
<event>
12    1  0.2404191E-008  0.3659270E+04  0.7818608E-02  0.8077049E-01
         -1   -1    0    0    0  501 -0.00000000000E+00  0.00000000000E+00  0.11567926736E+04  0.11567926736E+04  0.00000000000E+00 0.  1.
          1   -1    0    0  501    0  0.00000000000E+00 -0.00000000000E+00 -0.28938321938E+04  0.28938321938E+04  0.00000000000E+00 0. -1.
         23    2    1    2    0    0 -0.64266579668E+03  0.15810554881E+04 -0.60777848588E+03  0.18139362929E+04  0.90633351060E+02 0.  0.
        254    2    1    2    0    0  0.64266579668E+03 -0.15810554881E+04 -0.11292610343E+04  0.22366885744E+04  0.90265691860E+03 0.  0.
        -24    2    4    4    0    0 -0.55077261857E+02 -0.91466292240E+03 -0.31329994938E+03  0.97192597537E+03  0.82713220974E+02 0.  0.
         24    2    4    4    0    0  0.69774305854E+03 -0.66639256567E+03 -0.81596108496E+03  0.12647625991E+04  0.53921354649E+02 0.  0.
         13    1    3    3    0    0 -0.11843556187E+03  0.23882828946E+03 -0.12317127152E+03  0.29366153355E+03  0.00000000000E+00 0. -1.
        -13    1    3    3    0    0 -0.52423023481E+03  0.13422271986E+04 -0.48460721436E+03  0.15202747594E+04  0.00000000000E+00 0.  1.
          2    1    6    6  502    0  0.73028095321E+01 -0.16264231231E+01 -0.99847769293E+01  0.12476860565E+02  0.00000000000E+00 0. -1.
          3    1    5    5  503    0 -0.26684040414E+01 -0.25823338103E+03 -0.12565456381E+03  0.28719447917E+03  0.00000000000E+00 0. -1.
         -4    1    5    5    0  503 -0.52408857815E+02 -0.65642954137E+03 -0.18764538557E+03  0.68473149620E+03  0.00000000000E+00 0.  1.
         -1    1    6    6    0  502  0.69044024901E+03 -0.66476614255E+03 -0.80597630803E+03  0.12522857385E+04  0.00000000000E+00 0.  1.
<mgrwt>
<rscale>  0 0.36592698E+04</rscale>
<asrwt>0</asrwt>
<pdfrwt beam="1">  1        1 0.44520494E+00 0.36592698E+04</pdfrwt>
<pdfrwt beam="2">  1       -1 0.17796811E+00 0.36592698E+04</pdfrwt>
<totfact> 0.12361986E-01</totfact>
</mgrwt>
</event>
<event>
12    1  0.2646643E-008  0.1264381E+04  0.7818608E-02  0.9058298E-01
         -1   -1    0    0    0  501 -0.00000000000E+00  0.00000000000E+00  0.48119332461E+03  0.48119332461E+03  0.00000000000E+00 0.  1.
          1   -1    0    0  501    0  0.00000000000E+00 -0.00000000000E+00 -0.83057078730E+03  0.83057078730E+03  0.00000000000E+00 0. -1.
         23    2    1    2    0    0 -0.15119233467E+03 -0.25927291472E+03 -0.40237924227E+02  0.31593336536E+03  0.90073494597E+02 0.  0.
        254    2    1    2    0    0  0.15119233467E+03  0.25927291472E+03 -0.30913953847E+03  0.99583074655E+03  0.89779176603E+03 0.  0.
        -24    2    4    4    0    0 -0.19992878228E+03 -0.17549644542E+03  0.10468105593E+03  0.29703270093E+03  0.80621223081E+02 0.  0.
         24    2    4    4    0    0  0.35112111694E+03  0.43476936015E+03 -0.41382059439E+03  0.69879804562E+03  0.68998470547E+02 0.  0.
         11    1    3    3    0    0 -0.24472243794E+01 -0.17952007228E+02  0.19082148184E+02  0.26313339772E+02  0.00000000000E+00 0. -1.
        -11    1    3    3    0    0 -0.14874511029E+03 -0.24132090750E+03 -0.59320072411E+02  0.28962002559E+03  0.00000000000E+00 0.  1.
          4    1    6    6  502    0  0.32176824367E+03  0.42183455475E+03 -0.38329712519E+03  0.65451957984E+03  0.00000000000E+00 0. -1.
          1    1    5    5  503    0 -0.15158216511E+03 -0.17130625339E+03  0.78137195212E+02  0.24171968580E+03  0.00000000000E+00 0. -1.
         -2    1    5    5    0  503 -0.48346617163E+02 -0.41901920386E+01  0.26543860713E+02  0.55313015123E+02  0.00000000000E+00 0.  1.
         -3    1    6    6    0  502  0.29352873270E+02  0.12934805398E+02 -0.30523469199E+02  0.44278465780E+02  0.00000000000E+00 0.  1.
<mgrwt>
<rscale>  0 0.12643815E+04</rscale>
<asrwt>0</asrwt>
<pdfrwt beam="1">  1        1 0.12778012E+00 0.12643815E+04</pdfrwt>
<pdfrwt beam="2">  1       -1 0.74029743E-01 0.12643815E+04</pdfrwt>
<totfact> 0.37666775E+01</totfact>
</mgrwt>
</event>
<event>
12    1  0.2404191E-008  0.1397198E+04  0.7818608E-02  0.8955849E-01
          1   -1    0    0  501    0  0.00000000000E+00  0.00000000000E+00  0.51009514721E+03  0.51009514721E+03  0.00000000000E+00 0. -1.
         -1   -1    0    0    0  501 -0.00000000000E+00 -0.00000000000E+00 -0.95676374838E+03  0.95676374838E+03  0.00000000000E+00 0.  1.
         23    2    1    2    0    0  0.19625721295E+02 -0.28377371016E+03 -0.42720783993E+03  0.52162645301E+03  0.93139306805E+02 0.  0.
        254    2    1    2    0    0 -0.19625721295E+02  0.28377371016E+03 -0.19460761250E+02  0.94523244258E+03  0.90120639243E+03 0.  0.
        -24    2    4    4    0    0 -0.38419566337E+03  0.36527661488E+03 -0.12763910816E+03  0.55022492906E+03  0.73637066077E+02 0.  0.
         24    2    4    4    0    0  0.36456994207E+03 -0.81502904725E+02  0.10817834691E+03  0.39500751352E+03  0.69097140698E+02 0.  0.
         13    1    3    3    0    0  0.49923528109E+02 -0.13004075896E+03 -0.16261196647E+03  0.21411587818E+03  0.00000000000E+00 0. -1.
        -13    1    3    3    0    0 -0.30297806813E+02 -0.15373295120E+03 -0.26459587346E+03  0.30751057484E+03  0.00000000000E+00 0.  1.
          2    1    6    6  502    0  0.30686647072E+03 -0.43195170148E+02  0.78666736085E+02  0.31972067331E+03  0.00000000000E+00 0. -1.
          3    1    5    5  503    0 -0.22012178952E+03  0.20107770027E+03 -0.10867933592E+03  0.31732797201E+03  0.00000000000E+00 0. -1.
         -4    1    5    5    0  503 -0.16407387385E+03  0.16419891462E+03 -0.18959772245E+02  0.23289695706E+03  0.00000000000E+00 0.  1.
         -1    1    6    6    0  502  0.57703471352E+02 -0.38307734577E+02  0.29511610825E+02  0.75286840204E+02  0.00000000000E+00 0.  1.
<mgrwt>
<rscale>  0 0.13971980E+04</rscale>
<asrwt>0</asrwt>
<pdfrwt beam="1">  1        1 0.78476177E-01 0.13971980E+04</pdfrwt>
<pdfrwt beam="2">  1       -1 0.14719442E+00 0.13971980E+04</pdfrwt>
<totfact> 0.15434867E+01</totfact>
</mgrwt>
</event>
<event>
12    1  0.2404191E-008  0.1907087E+04  0.7818608E-02  0.8651337E-01
          2   -1    0    0  501    0  0.00000000000E+00  0.00000000000E+00  0.15310285868E+04  0.15310285868E+04  0.00000000000E+00 0. -1.
         -2   -1    0    0    0  501 -0.00000000000E+00 -0.00000000000E+00 -0.59387889204E+03  0.59387889204E+03  0.00000000000E+00 0.  1.
         23    2    1    2    0    0 -0.74092508340E+03 -0.21113147134E+01  0.33796515957E+03  0.81936784887E+03  0.90381335601E+02 0.  0.
        254    2    1    2    0    0  0.74092508340E+03  0.21113147134E+01  0.59918453520E+03  0.13055396300E+04  0.89243329239E+03 0.  0.
        -24    2    4    4    0    0  0.90162300835E+03  0.15094215585E+03  0.47620665029E+03  0.10342944715E+04  0.85350432720E+02 0.  0.
         24    2    4    4    0    0 -0.16069792495E+03 -0.14883084114E+03  0.12297788490E+03  0.27124515849E+03  0.10235200767E+03 0.  0.
         11    1    3    3    0    0 -0.18021440616E+03 -0.33824360428E+01  0.40916886880E+02  0.18483199045E+03  0.00000000000E+00 0.  1.
        -11    1    3    3    0    0 -0.56071067724E+03  0.12711213294E+01  0.29704827269E+03  0.63453585842E+03  0.00000000000E+00 0. -1.
          2    1    6    6  502    0 -0.13895689532E+03 -0.12667636321E+03  0.14129582826E+03  0.23520295669E+03  0.00000000000E+00 0. -1.
          1    1    5    5  503    0  0.40936995025E+03  0.37543917456E+02  0.18057673443E+03  0.44900028834E+03  0.00000000000E+00 0. -1.
         -2    1    5    5    0  503  0.49225305809E+03  0.11339823840E+03  0.29562991586E+03  0.58529418315E+03  0.00000000000E+00 0.  1.
         -1    1    6    6    0  502 -0.21741029631E+02 -0.22154477932E+02 -0.18317943360E+02  0.36042201802E+02  0.00000000000E+00 0.  1.
<mgrwt>
<rscale>  0 0.19070874E+04</rscale>
<asrwt>0</asrwt>
<pdfrwt beam="1">  1        2 0.23554286E+00 0.19070874E+04</pdfrwt>
<pdfrwt beam="2">  1       -2 0.91365984E-01 0.19070874E+04</pdfrwt>
<totfact> 0.11648137E+01</totfact>
</mgrwt>
</event>
<event>
12    1  0.2404191E-008  0.1883358E+04  0.7818608E-02  0.8663185E-01
          1   -1    0    0  501    0  0.00000000000E+00  0.00000000000E+00  0.13166808176E+04  0.13166808176E+04  0.00000000000E+00 0. -1.
         -1   -1    0    0    0  501 -0.00000000000E+00 -0.00000000000E+00 -0.67348088598E+03  0.67348088598E+03  0.00000000000E+00 0.  1.
         23    2    1    2    0    0  0.33791067297E+03 -0.15471520520E+03  0.78279944108E+03  0.87128659260E+03  0.90801673243E+02 0.  0.
        254    2    1    2    0    0 -0.33791067297E+03  0.15471520520E+03 -0.13959950950E+03  0.11188751109E+04  0.10460750801E+04 0.  0.
        -24    2    4    4    0    0  0.25482480537E+03  0.31597168112E+03 -0.25612272576E+03  0.48704173918E+03  0.82686276697E+02 0.  0.
         24    2    4    4    0    0 -0.59273547835E+03 -0.16125647592E+03  0.11652321626E+03  0.63183337176E+03  0.91086505171E+02 0.  0.
         11    1    3    3    0    0  0.33181677079E+03 -0.15195204655E+03  0.78372419505E+03  0.86453190094E+03  0.00000000000E+00 0. -1.
        -11    1    3    3    0    0  0.60939021836E+01 -0.27631586476E+01 -0.92475397479E+00  0.67546916620E+01  0.00000000000E+00 0.  1.
          2    1    6    6  502    0 -0.35720764360E+03 -0.98788866454E+02  0.11537493059E+03  0.38815965193E+03  0.00000000000E+00 0. -1.
          3    1    5    5  503    0  0.20791267760E+03  0.23883653229E+03 -0.15862516891E+03  0.35416453079E+03  0.00000000000E+00 0. -1.
         -4    1    5    5    0  503  0.46912127778E+02  0.77135148827E+02 -0.97497556851E+02  0.13287720839E+03  0.00000000000E+00 0.  1.
         -1    1    6    6    0  502 -0.23552783475E+03 -0.62467609464E+02  0.11482856684E+01  0.24367371983E+03  0.00000000000E+00 0.  1.
<mgrwt>
<rscale>  0 0.18833580E+04</rscale>
<asrwt>0</asrwt>
<pdfrwt beam="1">  1        1 0.20256628E+00 0.18833580E+04</pdfrwt>
<pdfrwt beam="2">  1       -1 0.10361244E+00 0.18833580E+04</pdfrwt>
<totfact> 0.72412664E+00</totfact>
</mgrwt>
</event>
<event>
11    1  0.2404191E-008  0.2013673E+04  0.7818608E-02  0.8600255E-01
          2   -1    0    0  501    0  0.00000000000E+00  0.00000000000E+00  0.21471753471E+04  0.21471753471E+04  0.00000000000E+00 0. -1.
         -2   -1    0    0    0  501 -0.00000000000E+00 -0.00000000000E+00 -0.47211789011E+03  0.47211789011E+03  0.00000000000E+00 0.  1.
         23    2    1    2    0    0 -0.72281218478E+03  0.12441407888E+03  0.25092140565E+03  0.78237763691E+03  0.10590985526E+03 0.  0.
        254    2    1    2    0    0  0.72281218478E+03 -0.12441407888E+03  0.14241360513E+04  0.18369156003E+04  0.89897670293E+03 0.  0.
        -24    2    4    4    0    0  0.59417770808E+03  0.24038079907E+03  0.46383216688E+03  0.79515744195E+03  0.79404037151E+02 0.  0.
         11    1    3    3    0    0 -0.39114074580E+03  0.49910077006E+02  0.18731294585E+03  0.43654122199E+03  0.00000000000E+00 0.  1.
        -11    1    3    3    0    0 -0.33167143898E+03  0.74504001875E+02  0.63608459795E+02  0.34583641492E+03  0.00000000000E+00 0. -1.
          2    1    4    4  502    0  0.11674400899E+03 -0.25364490212E+03  0.79140502093E+03  0.83921797356E+03  0.00000000000E+00 0. -1.
          3    1    5    5  503    0  0.44714041475E+03  0.21652081218E+03  0.35109559065E+03  0.60834523618E+03  0.00000000000E+00 0. -1.
         -4    1    5    5    0  503  0.14703729333E+03  0.23859986888E+02  0.11273657623E+03  0.18681220577E+03  0.00000000000E+00 0.  1.
         -1    1    4    4    0  502  0.11890467705E+02 -0.11114997584E+03  0.16889886353E+03  0.20254018478E+03  0.00000000000E+00 0.  1.
<mgrwt>
<rscale>  0 0.20136732E+04</rscale>
<asrwt>0</asrwt>
<pdfrwt beam="1">  1        2 0.33033466E+00 0.20136732E+04</pdfrwt>
<pdfrwt beam="2">  1       -2 0.72633523E-01 0.20136732E+04</pdfrwt>
<totfact> 0.87953724E+00</totfact>
</mgrwt>
</event>
<event>
11    1  0.2404191E-008  0.1860550E+04  0.7818608E-02  0.8674746E-01
          2   -1    0    0  501    0  0.00000000000E+00  0.00000000000E+00  0.18731554876E+04  0.18731554876E+04  0.00000000000E+00 0. -1.
         -2   -1    0    0    0  501 -0.00000000000E+00 -0.00000000000E+00 -0.46200740281E+03  0.46200740281E+03  0.00000000000E+00 0.  1.
         23    2    1    2    0    0  0.43506928536E+03  0.55437383763E+03  0.62325312181E+03  0.94491998036E+03  0.88395025520E+02 0.  0.
        254    2    1    2    0    0 -0.43506928536E+03 -0.55437383763E+03  0.78789496298E+03  0.13902429100E+04  0.90298462962E+03 0.  0.
        -24    2    4    4    0    0  0.26953789984E+03 -0.98783071044E+02  0.18731285170E+03  0.35226351455E+03  0.81207787148E+02 0.  0.
         13    1    3    3    0    0  0.30249952075E+02  0.51645914065E+02  0.25043701817E+02  0.64881022194E+02  0.00000000000E+00 0. -1.
        -13    1    3    3    0    0  0.40481933329E+03  0.50272792356E+03  0.59820941999E+03  0.88003895817E+03  0.00000000000E+00 0.  1.
          4    1    4    4  502    0 -0.63815406283E+03 -0.44777876402E+03  0.55716420838E+03  0.95821625143E+03  0.00000000000E+00 0. -1.
          1    1    5    5  503    0  0.13813500183E+03 -0.91970803845E+02  0.11725099317E+03  0.20319375702E+03  0.00000000000E+00 0. -1.
         -2    1    5    5    0  503  0.13140289801E+03 -0.68122671991E+01  0.70061858526E+02  0.14906975753E+03  0.00000000000E+00 0.  1.
         -1    1    4    4    0  502 -0.66453122378E+02 -0.78120025598E+01  0.43417902899E+02  0.79763144058E+02  0.00000000000E+00 0.  1.
<mgrwt>
<rscale>  0 0.18605501E+04</rscale>
<asrwt>0</asrwt>
<pdfrwt beam="1">  1        2 0.28817776E+00 0.18605501E+04</pdfrwt>
<pdfrwt beam="2">  1       -2 0.71078063E-01 0.18605501E+04</pdfrwt>
<totfact> 0.13271688E+01</totfact>
</mgrwt>
</event>
<event>
11    1  0.2404191E-008  0.1406441E+04  0.7818608E-02  0.8949169E-01
         -2   -1    0    0    0  501 -0.00000000000E+00  0.00000000000E+00  0.36550904318E+03  0.36550904318E+03  0.00000000000E+00 0.  1.
          2   -1    0    0  501    0  0.00000000000E+00 -0.00000000000E+00 -0.13529602046E+04  0.13529602046E+04  0.00000000000E+00 0. -1.
         23    2    1    2    0    0 -0.18182586745E+03  0.34702408359E+03 -0.23544661951E+03  0.46587890125E+03  0.90120360229E+02 0.  0.
        254    2    1    2    0    0  0.18182586745E+03 -0.34702408359E+03 -0.75200454192E+03  0.12525903465E+04  0.92194651935E+03 0.  0.
        -24    2    4    4    0    0  0.42449221681E+03 -0.31118977699E+01 -0.63149355536E+02  0.43679247362E+03  0.81218827045E+02 0.  0.
         13    1    3    3    0    0 -0.41790342239E+02  0.10189181655E+03 -0.11414345038E+03  0.15860990590E+03  0.00000000000E+00 0. -1.
        -13    1    3    3    0    0 -0.14003552521E+03  0.24513226704E+03 -0.12130316913E+03  0.30726899535E+03  0.00000000000E+00 0.  1.
          4    1    4    4  502    0 -0.11698111623E+03 -0.20669361911E+03 -0.28395066027E+03  0.37018213247E+03  0.00000000000E+00 0. -1.
          1    1    5    5  503    0  0.38706121956E+03  0.12324079181E+02 -0.37973584556E+02  0.38911471797E+03  0.00000000000E+00 0. -1.
         -2    1    5    5    0  503  0.37430997246E+02 -0.15435976951E+02 -0.25175770979E+02  0.47677755648E+02  0.00000000000E+00 0.  1.
         -3    1    4    4    0  502 -0.12568523313E+03 -0.13721856671E+03 -0.40490452611E+03  0.44561574045E+03  0.00000000000E+00 0.  1.
<mgrwt>
<rscale>  0 0.14064412E+04</rscale>
<asrwt>0</asrwt>
<pdfrwt beam="1">  1        2 0.20814772E+00 0.14064412E+04</pdfrwt>
<pdfrwt beam="2">  1       -2 0.56232160E-01 0.14064412E+04</pdfrwt>
<totfact> 0.44471788E+01</totfact>
</mgrwt>
</event>
<event>
12    1  0.2404191E-008  0.1579265E+04  0.7818608E-02  0.8833388E-01
          1   -1    0    0  501    0  0.00000000000E+00  0.00000000000E+00  0.14020982299E+04  0.14020982299E+04  0.00000000000E+00 0. -1.
         -1   -1    0    0    0  501 -0.00000000000E+00 -0.00000000000E+00 -0.44470476679E+03  0.44470476679E+03  0.00000000000E+00 0.  1.
         23    2    1    2    0    0 -0.41972848688E+03 -0.25003320304E+03  0.54268485894E+03  0.73669742547E+03  0.97609606323E+02 0.  0.
        254    2    1    2    0    0  0.41972848688E+03  0.25003320304E+03  0.41470860414E+03  0.11101055712E+04  0.90645603728E+03 0.  0.
        -24    2    4    4    0    0  0.37091026319E+02  0.15252905185E+03  0.62763222922E+03  0.65175153486E+03  0.78847905119E+02 0.  0.
         24    2    4    4    0    0  0.38263746056E+03  0.97504151192E+02 -0.21292362508E+03  0.45835403633E+03  0.93986524452E+02 0.  0.
         11    1    3    3    0    0 -0.11417935525E+02 -0.41109892016E+01 -0.26431138415E+01  0.12419965163E+02  0.00000000000E+00 0. -1.
        -11    1    3    3    0    0 -0.40831055135E+03 -0.24592221384E+03  0.54532797279E+03  0.72427746031E+03  0.00000000000E+00 0.  1.
          2    1    6    6  502    0  0.33722772456E+03  0.10084292948E+03 -0.21556181329E+03  0.41274535732E+03  0.00000000000E+00 0. -1.
          3    1    5    5  503    0  0.48787110051E+02  0.14909679569E+03  0.51240667503E+03  0.53588304434E+03  0.00000000000E+00 0. -1.
         -4    1    5    5    0  503 -0.11696083732E+02  0.34322561574E+01  0.11522555419E+03  0.11586849052E+03  0.00000000000E+00 0.  1.
         -1    1    6    6    0  502  0.45409736001E+02 -0.33387782915E+01  0.26381882100E+01  0.45608679012E+02  0.00000000000E+00 0.  1.
<mgrwt>
<rscale>  0 0.15792654E+04</rscale>
<asrwt>0</asrwt>
<pdfrwt beam="1">  1        1 0.21570742E+00 0.15792654E+04</pdfrwt>
<pdfrwt beam="2">  1       -1 0.68416119E-01 0.15792654E+04</pdfrwt>
<totfact> 0.15913593E+01</totfact>
</mgrwt>
</event>
<event>
11    1  0.2404191E-008  0.1262871E+04  0.7818608E-02  0.9059538E-01
         -1   -1    0    0    0  501 -0.00000000000E+00  0.00000000000E+00  0.52102714940E+03  0.52102714940E+03  0.00000000000E+00 0.  1.
          1   -1    0    0  501    0  0.00000000000E+00 -0.00000000000E+00 -0.76524043839E+03  0.76524043839E+03  0.00000000000E+00 0. -1.
         23    2    1    2    0    0 -0.25197752046E+03 -0.10224350559E+03 -0.51140856693E+01  0.28695777669E+03  0.91499762155E+02 0.  0.
        254    2    1    2    0    0  0.25197752046E+03  0.10224350559E+03 -0.23909920332E+03  0.99930981110E+03  0.93139962652E+03 0.  0.
        -24    2    4    4    0    0  0.10186736820E+03  0.22292890304E+03  0.31154729945E+03  0.40431128624E+03  0.79571602172E+02 0.  0.
         11    1    3    3    0    0 -0.10660715327E+03 -0.26001783092E+02  0.39876966772E+02  0.11675337396E+03  0.00000000000E+00 0. -1.
        -11    1    3    3    0    0 -0.14537036719E+03 -0.76241722494E+02 -0.44991052442E+02  0.17020440272E+03  0.00000000000E+00 0.  1.
          2    1    4    4  502    0  0.58863330937E+02 -0.31447284316E+02 -0.66123030387E+02  0.93947211600E+02  0.00000000000E+00 0. -1.
          3    1    5    5  503    0  0.10637124989E+02  0.21498525493E+02  0.22405847131E+01  0.24090563428E+02  0.00000000000E+00 0. -1.
         -2    1    5    5    0  503  0.91230243211E+02  0.20143037754E+03  0.30930671473E+03  0.38022072281E+03  0.00000000000E+00 0.  1.
         -1    1    4    4    0  502  0.91246821328E+02 -0.89238113135E+02 -0.48452347238E+03  0.50105131326E+03  0.00000000000E+00 0.  1.
<mgrwt>
<rscale>  0 0.12628714E+04</rscale>
<asrwt>0</asrwt>
<pdfrwt beam="1">  1        1 0.11772930E+00 0.12628714E+04</pdfrwt>
<pdfrwt beam="2">  1       -1 0.80158023E-01 0.12628714E+04</pdfrwt>
<totfact> 0.36333613E+01</totfact>
</mgrwt>
</event>
<event>
12    1  0.2404191E-008  0.1492388E+04  0.7818608E-02  0.8889531E-01
         -2   -1    0    0    0  501 -0.00000000000E+00  0.00000000000E+00  0.68894290067E+03  0.68894290067E+03  0.00000000000E+00 0.  1.
          2   -1    0    0  501    0  0.00000000000E+00 -0.00000000000E+00 -0.80820216862E+03  0.80820216862E+03  0.00000000000E+00 0. -1.
         23    2    1    2    0    0  0.32080176513E+03  0.19712791974E+03 -0.33081219319E+03  0.50900773345E+03  0.88763597816E+02 0.  0.
        254    2    1    2    0    0 -0.32080176513E+03 -0.19712791974E+03  0.21155292525E+03  0.98813733584E+03  0.88875618988E+03 0.  0.
        -24    2    4    4    0    0 -0.40071110575E+03 -0.29631366067E+03 -0.20770968064E+03  0.54596967296E+03  0.81045645085E+02 0.  0.
         24    2    4    4    0    0  0.79909340625E+02  0.99185740937E+02  0.41926260588E+03  0.44216766288E+03  0.59226645043E+02 0.  0.
         11    1    3    3    0    0  0.78594227835E+02  0.45126054511E+02 -0.33828760278E+02  0.96735714535E+02  0.00000000000E+00 0.  1.
        -11    1    3    3    0    0  0.24220753729E+03  0.15200186523E+03 -0.29698343292E+03  0.41227201891E+03  0.00000000000E+00 0. -1.
          2    1    6    6  502    0  0.37383306736E+02  0.47822563492E+02  0.29462489479E+03  0.30081279533E+03  0.00000000000E+00 0. -1.
          3    1    5    5  503    0 -0.39657162359E+03 -0.27909782102E+03 -0.20933022536E+03  0.52818916080E+03  0.00000000000E+00 0. -1.
         -4    1    5    5    0  503 -0.41394821648E+01 -0.17215839653E+02  0.16205447279E+01  0.17780512162E+02  0.00000000000E+00 0.  1.
         -1    1    6    6    0  502  0.42526033889E+02  0.51363177445E+02  0.12463771109E+03  0.14135486755E+03  0.00000000000E+00 0.  1.
<mgrwt>
<rscale>  0 0.14923875E+04</rscale>
<asrwt>0</asrwt>
<pdfrwt beam="1">  1        2 0.12433879E+00 0.14923875E+04</pdfrwt>
<pdfrwt beam="2">  1       -2 0.10599122E+00 0.14923875E+04</pdfrwt>
<totfact> 0.23611340E+01</totfact>
</mgrwt>
</event>
<event>
11    1  0.2404191E-008  0.1774421E+04  0.7818608E-02  0.8720022E-01
          1   -1    0    0  501    0  0.00000000000E+00  0.00000000000E+00  0.15416796871E+04  0.15416796871E+04  0.00000000000E+00 0. -1.
         -1   -1    0    0    0  501 -0.00000000000E+00 -0.00000000000E+00 -0.51057457904E+03  0.51057457904E+03  0.00000000000E+00 0.  1.
         23    2    1    2    0    0  0.41505315416E+03  0.14630249523E+03 -0.17630943421E+03  0.48220275503E+03  0.88096194471E+02 0.  0.
        254    2    1    2    0    0 -0.41505315416E+03 -0.14630249523E+03  0.12074145422E+04  0.15700515111E+04  0.90196359667E+03 0.  0.
        -24    2    4    4    0    0 -0.40699380061E+03  0.28655699944E+03  0.39032278848E+03  0.63771572437E+03  0.81059226717E+02 0.  0.
         11    1    3    3    0    0  0.31496611841E+03  0.12647289463E+03 -0.17094852352E+03  0.38002953374E+03  0.00000000000E+00 0.  1.
        -11    1    3    3    0    0  0.10008703575E+03  0.19829600600E+02 -0.53609106881E+01  0.10217322129E+03  0.00000000000E+00 0. -1.
          2    1    4    4  502    0  0.11589287110E+02 -0.42876500192E+03  0.78230346471E+03  0.89217288086E+03  0.00000000000E+00 0. -1.
          3    1    5    5  503    0 -0.37723236829E+03  0.26926919247E+03  0.38573346517E+03  0.60299292189E+03  0.00000000000E+00 0. -1.
         -4    1    5    5    0  503 -0.29761432323E+02  0.17287806972E+02  0.45893233177E+01  0.34722802484E+02  0.00000000000E+00 0.  1.
         -1    1    4    4    0  502 -0.19648640658E+02 -0.40944927548E+01  0.34788289047E+02  0.40162905840E+02  0.00000000000E+00 0.  1.
<mgrwt>
<rscale>  0 0.17744210E+04</rscale>
<asrwt>0</asrwt>
<pdfrwt beam="1">  1        1 0.23718149E+00 0.17744210E+04</pdfrwt>
<pdfrwt beam="2">  1       -1 0.78549936E-01 0.17744210E+04</pdfrwt>
<totfact> 0.93872737E+00</totfact>
</mgrwt>
</event>
<event>
11    1  0.2404191E-008  0.1605202E+04  0.7818608E-02  0.8817359E-01
         -2   -1    0    0    0  501 -0.00000000000E+00  0.00000000000E+00  0.40510457615E+03  0.40510457615E+03  0.00000000000E+00 0.  1.
          2   -1    0    0  501    0  0.00000000000E+00 -0.00000000000E+00 -0.15901282520E+04  0.15901282520E+04  0.00000000000E+00 0. -1.
         23    2    1    2    0    0 -0.46844059576E+03 -0.90314911299E+01 -0.74208406690E+03  0.88212520308E+03  0.89095184897E+02 0.  0.
        254    2    1    2    0    0  0.46844059576E+03  0.90314911299E+01 -0.44293960898E+03  0.11131076251E+04  0.90735600965E+03 0.  0.
        -24    2    4    4    0    0  0.42106947855E+03 -0.27268583549E+03 -0.56209974917E+03  0.75813746265E+03  0.84612136389E+02 0.  0.
         11    1    3    3    0    0 -0.46300712037E+03  0.22683910764E+01 -0.73147904136E+03  0.86570337129E+03  0.00000000000E+00 0. -1.
        -11    1    3    3    0    0 -0.54334753941E+01 -0.11299882206E+02 -0.10605025543E+02  0.16421831795E+02  0.00000000000E+00 0.  1.
          2    1    4    4  502    0  0.31932620379E+02  0.17328946215E+02  0.79197397263E+02  0.87133302212E+02  0.00000000000E+00 0. -1.
          1    1    5    5  503    0  0.19756168946E+02 -0.30674299020E+02 -0.20202547739E+02  0.41705656294E+02  0.00000000000E+00 0. -1.
         -2    1    5    5    0  503  0.40131330960E+03 -0.24201153647E+03 -0.54189720143E+03  0.71643180636E+03  0.00000000000E+00 0.  1.
         -1    1    4    4    0  502  0.15438496837E+02  0.26438838040E+03  0.39962742921E+02  0.26783686023E+03  0.00000000000E+00 0.  1.
<mgrwt>
<rscale>  0 0.16052018E+04</rscale>
<asrwt>0</asrwt>
<pdfrwt beam="1">  1        2 0.24463511E+00 0.16052018E+04</pdfrwt>
<pdfrwt beam="2">  1       -2 0.62323782E-01 0.16052018E+04</pdfrwt>
<totfact> 0.25861672E+01</totfact>
</mgrwt>
</event>
<event>
12    1  0.3348737E-008  0.2578009E+04  0.7818608E-02  0.8375710E-01
          2   -1    0    0  501    0  0.00000000000E+00  0.00000000000E+00  0.16698624423E+04  0.16698624423E+04  0.00000000000E+00 0.  1.
         -2   -1    0    0    0  501 -0.00000000000E+00 -0.00000000000E+00 -0.99501182541E+03  0.99501182541E+03  0.00000000000E+00 0. -1.
         23    2    1    2    0    0  0.52001023231E+03  0.97782578064E+03  0.59472356746E+02  0.11129135640E+04  0.92118080119E+02 0.  0.
        254    2    1    2    0    0 -0.52001023231E+03 -0.97782578064E+03  0.61537826012E+03  0.15519607037E+04  0.89629109324E+03 0.  0.
        -24    2    4    4    0    0 -0.32205628308E+03 -0.20116685541E+03 -0.17234548395E+03  0.42451477147E+03  0.79507686268E+02 0.  0.
         24    2    4    4    0    0 -0.19795394923E+03 -0.77665892523E+03  0.78772374407E+03  0.11274459322E+04  0.90778747387E+02 0.  0.
         11    1    3    3    0    0  0.16252819477E+02  0.56273572140E+02  0.20089776422E+02  0.61923082764E+02  0.00000000000E+00 0. -1.
        -11    1    3    3    0    0  0.50375741284E+03  0.92155220850E+03  0.39382580324E+02  0.10509904812E+04  0.00000000000E+00 0.  1.
          4    1    6    6  502    0 -0.38261603229E+02 -0.88217378710E+02  0.13252526716E+03  0.16373516001E+03  0.00000000000E+00 0. -1.
          1    1    5    5  503    0 -0.18049298042E+02 -0.22169051679E+02 -0.36760547753E+02  0.46568034995E+02  0.00000000000E+00 0. -1.
         -2    1    5    5    0  503 -0.30400698504E+03 -0.17899780373E+03 -0.13558493619E+03  0.37794673648E+03  0.00000000000E+00 0.  1.
         -3    1    6    6    0  502 -0.15969234600E+03 -0.68844154652E+03  0.65519847691E+03  0.96371077222E+03  0.00000000000E+00 0.  1.
<mgrwt>
<rscale>  0 0.25780092E+04</rscale>
<asrwt>0</asrwt>
<pdfrwt beam="1">  1        2 0.25690191E+00 0.25780092E+04</pdfrwt>
<pdfrwt beam="2">  1       -2 0.15307874E+00 0.25780092E+04</pdfrwt>
<totfact> 0.25644029E+00</totfact>
</mgrwt>
</event>
<event>
12    1  0.2404191E-008  0.1439528E+04  0.7818608E-02  0.8925693E-01
          1   -1    0    0  501    0  0.00000000000E+00  0.00000000000E+00  0.74038423781E+03  0.74038423781E+03  0.00000000000E+00 0. -1.
         -1   -1    0    0    0  501 -0.00000000000E+00 -0.00000000000E+00 -0.69971819219E+03  0.69971819219E+03  0.00000000000E+00 0.  1.
         23    2    1    2    0    0 -0.28250659493E+03 -0.21838249963E+03 -0.22389289403E+03  0.43336013414E+03  0.10085675752E+03 0.  0.
        254    2    1    2    0    0  0.28250659493E+03  0.21838249963E+03  0.26455893965E+03  0.10067422959E+04  0.90334806438E+03 0.  0.
        -24    2    4    4    0    0  0.33154567805E+03 -0.28576081545E+03  0.46817304882E+02  0.44783690775E+03  0.82366592874E+02 0.  0.
         24    2    4    4    0    0 -0.49039083113E+02  0.50414331508E+03  0.21774163477E+03  0.55890538812E+03  0.91643327875E+02 0.  0.
         11    1    3    3    0    0 -0.15382834911E+03 -0.16957797426E+03 -0.17165874165E+03  0.28615830222E+03  0.00000000000E+00 0.  1.
        -11    1    3    3    0    0 -0.12867824583E+03 -0.48804525372E+02 -0.52234152372E+02  0.14720183192E+03  0.00000000000E+00 0. -1.
          4    1    6    6  502    0 -0.74345976556E+02  0.35282291094E+03  0.16645689685E+03  0.39713880348E+03  0.00000000000E+00 0. -1.
          3    1    5    5  503    0  0.33167870721E+03 -0.27812779508E+03  0.35668544717E+02  0.43432485572E+03  0.00000000000E+00 0. -1.
         -4    1    5    5    0  503 -0.13302916157E+00 -0.76330203748E+01  0.11148760165E+02  0.13512052028E+02  0.00000000000E+00 0.  1.
         -3    1    6    6    0  502  0.25306893443E+02  0.15132040414E+03  0.51284737918E+02  0.16176658465E+03  0.00000000000E+00 0.  1.
<mgrwt>
<rscale>  0 0.14395281E+04</rscale>
<asrwt>0</asrwt>
<pdfrwt beam="1">  1        1 0.11390527E+00 0.14395281E+04</pdfrwt>
<pdfrwt beam="2">  1       -1 0.10764895E+00 0.14395281E+04</pdfrwt>
<totfact> 0.19516502E+01</totfact>
</mgrwt>
</event>
<event>
11    1  0.2404191E-008  0.1021730E+04  0.7818608E-02  0.9285028E-01
          2   -1    0    0  501    0  0.00000000000E+00  0.00000000000E+00  0.58386784619E+03  0.58386784619E+03  0.00000000000E+00 0. -1.
         -2   -1    0    0    0  501 -0.00000000000E+00 -0.00000000000E+00 -0.44698996881E+03  0.44698996881E+03  0.00000000000E+00 0.  1.
         23    2    1    2    0    0 -0.48183341495E+01  0.39462607297E+02  0.10594929365E+03  0.14276034517E+03  0.87033037463E+02 0.  0.
        254    2    1    2    0    0  0.48183341495E+01 -0.39462607297E+02  0.30928583729E+02  0.88809746983E+03  0.88666793384E+03 0.  0.
        -24    2    4    4    0    0  0.31524568660E+03 -0.24620565244E+03  0.17049100024E+03  0.44174609488E+03  0.77944627545E+02 0.  0.
         13    1    3    3    0    0 -0.10676646308E+02  0.60013101380E+02  0.10495038262E+03  0.12136781256E+03  0.00000000000E+00 0. -1.
        -13    1    3    3    0    0  0.58583121582E+01 -0.20550494083E+02  0.99891103392E+00  0.21392532614E+02  0.00000000000E+00 0.  1.
          2    1    4    4  502    0 -0.24432888680E+03  0.17993549924E+03 -0.19088036931E+03  0.35848110717E+03  0.00000000000E+00 0. -1.
          1    1    5    5  503    0  0.17177917020E+03 -0.17565567176E+03  0.81978717355E+02  0.25900484249E+03  0.00000000000E+00 0. -1.
         -2    1    5    5    0  503  0.14346651640E+03 -0.70549980688E+02  0.88512282882E+02  0.18274125239E+03  0.00000000000E+00 0.  1.
         -1    1    4    4    0  502 -0.66098465647E+02  0.26807545911E+02  0.51317952806E+02  0.87870267775E+02  0.00000000000E+00 0.  1.
<mgrwt>
<rscale>  0 0.10217300E+04</rscale>
<asrwt>0</asrwt>
<pdfrwt beam="1">  1        2 0.89825823E-01 0.10217300E+04</pdfrwt>
<pdfrwt beam="2">  1       -2 0.68767687E-01 0.10217300E+04</pdfrwt>
<totfact> 0.98847771E+01</totfact>
</mgrwt>
</event>
<event>
12    1  0.2404191E-008  0.1431352E+04  0.7818608E-02  0.8931432E-01
          2   -1    0    0  501    0  0.00000000000E+00  0.00000000000E+00  0.55409421372E+03  0.55409421372E+03  0.00000000000E+00 0. -1.
         -2   -1    0    0    0  501 -0.00000000000E+00 -0.00000000000E+00 -0.92437767892E+03  0.92437767892E+03  0.00000000000E+00 0.  1.
         23    2    1    2    0    0 -0.37673205121E+03 -0.15177595040E+03  0.24326903158E+02  0.41696178540E+03  0.91117258176E+02 0.  0.
        254    2    1    2    0    0  0.37673205121E+03  0.15177595040E+03 -0.39461036835E+03  0.10615101072E+04  0.89784374332E+03 0.  0.
        -24    2    4    4    0    0  0.56214574783E+03  0.34413074842E+03 -0.40236455296E+03  0.77654747251E+03  0.81822550453E+02 0.  0.
         24    2    4    4    0    0 -0.18541369662E+03 -0.19235479802E+03  0.77541846067E+01  0.28496263473E+03  0.98817855663E+02 0.  0.
         13    1    3    3    0    0 -0.31316999965E+03 -0.13302648664E+03  0.53718784234E+02  0.34446654788E+03  0.00000000000E+00 0.  1.
        -13    1    3    3    0    0 -0.63562051563E+02 -0.18749463758E+02 -0.29391881077E+02  0.72495237521E+02  0.00000000000E+00 0. -1.
          4    1    6    6  502    0 -0.81113464270E+02 -0.45001798747E+02 -0.35500804222E+02  0.99322017080E+02  0.00000000000E+00 0. -1.
          3    1    5    5  503    0  0.59512172106E+02  0.97452169713E+01 -0.41678332525E+02  0.73305874830E+02  0.00000000000E+00 0. -1.
         -4    1    5    5    0  503  0.50263357573E+03  0.33438553145E+03 -0.36068622043E+03  0.70324159768E+03  0.00000000000E+00 0.  1.
         -3    1    6    6    0  502 -0.10430023235E+03 -0.14735299928E+03  0.43254988828E+02  0.18564061765E+03  0.00000000000E+00 0.  1.
<mgrwt>
<rscale>  0 0.14313523E+04</rscale>
<asrwt>0</asrwt>
<pdfrwt beam="1">  1        2 0.85245264E-01 0.14313523E+04</pdfrwt>
<pdfrwt beam="2">  1       -2 0.14221195E+00 0.14313523E+04</pdfrwt>
<totfact> 0.18257732E+01</totfact>
</mgrwt>
</event>
<event>
12    1  0.2404191E-008  0.1853105E+04  0.7818608E-02  0.8678558E-01
         -1   -1    0    0    0  501 -0.00000000000E+00  0.00000000000E+00  0.49517694349E+03  0.49517694349E+03  0.00000000000E+00 0.  1.
          1   -1    0    0  501    0  0.00000000000E+00 -0.00000000000E+00 -0.17337219148E+04  0.17337219148E+04  0.00000000000E+00 0. -1.
         23    2    1    2    0    0  0.67914235722E+03  0.56991929117E+01 -0.68359205568E+03  0.96797887324E+03  0.91750631021E+02 0.  0.
        254    2    1    2    0    0 -0.67914235722E+03 -0.56991929117E+01 -0.55495291563E+03  0.12609199850E+04  0.90591370888E+03 0.  0.
        -24    2    4    4    0    0 -0.73808902412E+03 -0.73838554312E+02 -0.53693414414E+02  0.74728381381E+03  0.72955986687E+02 0.  0.
         24    2    4    4    0    0  0.58946666899E+02  0.68139361400E+02 -0.50125950122E+03  0.51363617124E+03  0.66658433278E+02 0.  0.
         11    1    3    3    0    0  0.11651611954E+02  0.10950246273E+02 -0.28713064160E+02  0.32864996699E+02  0.00000000000E+00 0. -1.
        -11    1    3    3    0    0  0.66749074527E+03 -0.52510533617E+01 -0.65487899152E+03  0.93511387655E+03  0.00000000000E+00 0.  1.
          4    1    6    6  502    0  0.55597677442E+02  0.60249918785E+02 -0.26892777198E+03  0.28114640491E+03  0.00000000000E+00 0. -1.
          3    1    5    5  503    0 -0.19565172495E+03 -0.23245832442E+02 -0.46518995191E+02  0.20244501258E+03  0.00000000000E+00 0. -1.
         -4    1    5    5    0  503 -0.54243729917E+03 -0.50592721870E+02 -0.71744192226E+01  0.54483880123E+03  0.00000000000E+00 0.  1.
         -3    1    6    6    0  502  0.33489894569E+01  0.78894426153E+01 -0.23233172924E+03  0.23248976633E+03  0.00000000000E+00 0.  1.
<mgrwt>
<rscale>  0 0.18531046E+04</rscale>
<asrwt>0</asrwt>
<pdfrwt beam="1">  1        1 0.26672645E+00 0.18531046E+04</pdfrwt>
<pdfrwt beam="2">  1       -1 0.76181068E-01 0.18531046E+04</pdfrwt>
<totfact> 0.73457122E+00</totfact>
</mgrwt>
</event>
<event>
12    1  0.2404191E-008  0.1666289E+04  0.7818608E-02  0.8780828E-01
          2   -1    0    0  501    0  0.00000000000E+00  0.00000000000E+00  0.15125072101E+04  0.15125072101E+04  0.00000000000E+00 0. -1.
         -2   -1    0    0    0  501 -0.00000000000E+00 -0.00000000000E+00 -0.45892684367E+03  0.45892684367E+03  0.00000000000E+00 0.  1.
         23    2    1    2    0    0  0.26414949699E+03  0.13458312618E+03  0.96169581622E+03  0.10102560247E+04  0.88717629674E+02 0.  0.
        254    2    1    2    0    0 -0.26414949699E+03 -0.13458312618E+03  0.91884550254E+02  0.96117802915E+03  0.90968833044E+03 0.  0.
        -24    2    4    4    0    0 -0.36569822203E+03  0.29600155467E+03  0.17511552250E+03  0.50831695804E+03  0.79803343595E+02 0.  0.
         24    2    4    4    0    0  0.10154872504E+03 -0.43058468085E+03 -0.83230972242E+02  0.45286107112E+03  0.49400850749E+02 0.  0.
         13    1    3    3    0    0  0.50485149527E+02  0.46227534904E+01  0.88911241293E+02  0.10234905471E+03  0.00000000000E+00 0.  1.
        -13    1    3    3    0    0  0.21366434746E+03  0.12996037269E+03  0.87278457492E+03  0.90790696994E+03  0.00000000000E+00 0. -1.
          4    1    6    6  502    0  0.74239786054E+02 -0.33575062399E+03 -0.44010835398E+02  0.34666551743E+03  0.00000000000E+00 0. -1.
          3    1    5    5  503    0 -0.33115073354E+03  0.23389726234E+03  0.13892620973E+03  0.42856648189E+03  0.00000000000E+00 0. -1.
         -4    1    5    5    0  503 -0.34547488490E+02  0.62104292328E+02  0.36189312770E+02  0.79750476144E+02  0.00000000000E+00 0.  1.
         -3    1    6    6    0  502  0.27308938985E+02 -0.94834056853E+02 -0.39220136843E+02  0.10619555368E+03  0.00000000000E+00 0.  1.
<mgrwt>
<rscale>  0 0.16662895E+04</rscale>
<asrwt>0</asrwt>
<pdfrwt beam="1">  1        2 0.23269341E+00 0.16662895E+04</pdfrwt>
<pdfrwt beam="2">  1       -2 0.70604131E-01 0.16662895E+04</pdfrwt>
<totfact> 0.21735158E+01</totfact>
</mgrwt>
</event>
<event>
12    1  0.2404191E-008  0.3040142E+04  0.7818608E-02  0.8232360E-01
         -1   -1    0    0    0  501 -0.00000000000E+00  0.00000000000E+00  0.11366201691E+04  0.11366201691E+04  0.00000000000E+00 0.  1.
          1   -1    0    0  501    0  0.00000000000E+00 -0.00000000000E+00 -0.20328823903E+04  0.20328823903E+04  0.00000000000E+00 0. -1.
         23    2    1    2    0    0  0.32336440380E+03  0.48989805386E+02  0.98993283163E+03  0.10470297452E+04  0.96642317171E+02 0.  0.
        254    2    1    2    0    0 -0.32336440380E+03 -0.48989805386E+02 -0.18861950529E+04  0.21224728142E+04  0.91662125820E+03 0.  0.
        -24    2    4    4    0    0 -0.41686264646E+03 -0.32012649676E+03 -0.60137057578E+03  0.80258840400E+03  0.79032505227E+02 0.  0.
         24    2    4    4    0    0  0.93498242656E+02  0.27113669138E+03 -0.12848244771E+04  0.13198844102E+04  0.95204477983E+02 0.  0.
         13    1    3    3    0    0  0.23283868322E+03  0.73703449030E+02  0.77320992800E+03  0.81086351722E+03  0.00000000000E+00 0.  1.
        -13    1    3    3    0    0  0.90525720581E+02 -0.24713643644E+02  0.21672290363E+03  0.23616622796E+03  0.00000000000E+00 0. -1.
          4    1    6    6  502    0 -0.11989191287E+02  0.85362018086E+02 -0.29900080225E+03  0.31117823604E+03  0.00000000000E+00 0. -1.
          1    1    5    5  503    0 -0.42648924885E+02 -0.75752536719E+01 -0.38996261218E+02  0.58283991379E+02  0.00000000000E+00 0. -1.
         -2    1    5    5    0  503 -0.37421372157E+03 -0.31255124309E+03 -0.56237431456E+03  0.74430441262E+03  0.00000000000E+00 0.  1.
         -3    1    6    6    0  502  0.10548743394E+03  0.18577467329E+03 -0.98582367487E+03  0.10087061742E+04  0.00000000000E+00 0.  1.
<mgrwt>
<rscale>  0 0.30401415E+04</rscale>
<asrwt>0</asrwt>
<pdfrwt beam="1">  1        1 0.31275113E+00 0.30401415E+04</pdfrwt>
<pdfrwt beam="2">  1       -1 0.17486464E+00 0.30401415E+04</pdfrwt>
<totfact> 0.54425744E-01</totfact>
</mgrwt>
</event>
<event>
12    1  0.2404191E-008  0.1378924E+04  0.7818608E-02  0.8969217E-01
          1   -1    0    0  501    0  0.00000000000E+00  0.00000000000E+00  0.26060543773E+04  0.26060543773E+04  0.00000000000E+00 0. -1.
         -1   -1    0    0    0  501 -0.00000000000E+00 -0.00000000000E+00 -0.18240525866E+03  0.18240525866E+03  0.00000000000E+00 0.  1.
         23    2    1    2    0    0  0.35611186608E+03  0.14694754724E+03  0.72163665970E+03  0.82288492219E+03  0.89279805940E+02 0.  0.
        254    2    1    2    0    0 -0.35611186608E+03 -0.14694754724E+03  0.17020124589E+04  0.19655747137E+04  0.90455972838E+03 0.  0.
        -24    2    4    4    0    0 -0.34853578559E+03  0.54737316354E+02  0.17165248436E+04  0.17542063138E+04  0.79428489155E+02 0.  0.
         24    2    4    4    0    0 -0.75760804881E+01 -0.20168486360E+03 -0.14512384712E+02  0.21136839996E+03  0.61088542236E+02 0.  0.
         11    1    3    3    0    0  0.19983162404E+03  0.84813528313E+02  0.31222640435E+03  0.38027797743E+03  0.00000000000E+00 0.  1.
        -11    1    3    3    0    0  0.15628024204E+03  0.62134018928E+02  0.40941025535E+03  0.44260694476E+03  0.00000000000E+00 0. -1.
          4    1    6    6  502    0 -0.14804675952E+02 -0.18767214136E+03 -0.28365135668E+02  0.19038012500E+03  0.00000000000E+00 0. -1.
          3    1    5    5  503    0 -0.32484835221E+03  0.39023214671E+02  0.16453417392E+04  0.16775573617E+04  0.00000000000E+00 0. -1.
         -4    1    5    5    0  503 -0.23687433378E+02  0.15714101683E+02  0.71183104465E+02  0.76648952067E+02  0.00000000000E+00 0.  1.
         -3    1    6    6    0  502  0.72285954638E+01 -0.14012722234E+02  0.13852750956E+02  0.20988274961E+02  0.00000000000E+00 0.  1.
<mgrwt>
<rscale>  0 0.13789243E+04</rscale>
<asrwt>0</asrwt>
<pdfrwt beam="1">  1        1 0.40093142E+00 0.13789243E+04</pdfrwt>
<pdfrwt beam="2">  1       -1 0.28062349E-01 0.13789243E+04</pdfrwt>
<totfact> 0.12857244E+01</totfact>
</mgrwt>
</event>
<event>
11    1  0.2404191E-008  0.1593557E+04  0.7818608E-02  0.8824516E-01
         -1   -1    0    0    0  501 -0.00000000000E+00  0.00000000000E+00  0.83868959809E+03  0.83868959809E+03  0.00000000000E+00 0.  1.
          1   -1    0    0  501    0  0.00000000000E+00 -0.00000000000E+00 -0.75696194931E+03  0.75696194931E+03  0.00000000000E+00 0. -1.
         23    2    1    2    0    0 -0.61274113753E+01  0.52712766334E+03 -0.63676391053E+02  0.53880794583E+03  0.91423197715E+02 0.  0.
        254    2    1    2    0    0  0.61274113753E+01 -0.52712766334E+03  0.14540403984E+03  0.10568436016E+04  0.90436438715E+03 0.  0.
        -24    2    4    4    0    0 -0.16185672300E+03 -0.56677319039E+03 -0.21110956901E+03  0.63149848100E+03  0.82423499402E+02 0.  0.
         11    1    3    3    0    0  0.87331882327E+01  0.25280515717E+03 -0.75029574237E+02  0.26384873144E+03  0.00000000000E+00 0. -1.
        -11    1    3    3    0    0 -0.14860599608E+02  0.27432250617E+03  0.11353183183E+02  0.27495921440E+03  0.00000000000E+00 0.  1.
          4    1    4    4  502    0  0.15909043874E+03 -0.29896549731E+02  0.24904418768E+03  0.29702959247E+03  0.00000000000E+00 0. -1.
          1    1    5    5  503    0 -0.15882120850E+03 -0.54415830109E+03 -0.18380879022E+03  0.59591786706E+03  0.00000000000E+00 0. -1.
         -2    1    5    5    0  503 -0.30355145029E+01 -0.22614889301E+02 -0.27300778786E+02  0.35580613945E+02  0.00000000000E+00 0.  1.
         -3    1    4    4    0  502  0.88936956330E+01  0.69542076780E+02  0.10746942116E+03  0.12831552809E+03  0.00000000000E+00 0.  1.
<mgrwt>
<rscale>  0 0.15935572E+04</rscale>
<asrwt>0</asrwt>
<pdfrwt beam="1">  1        1 0.11645568E+00 0.15935572E+04</pdfrwt>
<pdfrwt beam="2">  1       -1 0.12902917E+00 0.15935572E+04</pdfrwt>
<totfact> 0.11980887E+01</totfact>
</mgrwt>
</event>
<event>
11    1  0.2404191E-008  0.1804016E+04  0.7818608E-02  0.8704167E-01
         -2   -1    0    0    0  501 -0.00000000000E+00  0.00000000000E+00  0.23797123245E+04  0.23797123245E+04  0.00000000000E+00 0.  1.
          2   -1    0    0  501    0  0.00000000000E+00 -0.00000000000E+00 -0.34189775464E+03  0.34189775464E+03  0.00000000000E+00 0. -1.
         23    2    1    2    0    0  0.29549613106E+02  0.41676538425E+03 -0.26556530612E+02  0.42782278776E+03  0.88093832173E+02 0.  0.
        254    2    1    2    0    0 -0.29549613106E+02 -0.41676538425E+03  0.20643711005E+04  0.22937872914E+04  0.90844126531E+03 0.  0.
        -24    2    4    4    0    0  0.18495957442E+03  0.15901374396E+03  0.11418787165E+04  0.11703407934E+04  0.79467946984E+02 0.  0.
         13    1    3    3    0    0  0.62143791261E+00  0.29363094086E+03 -0.53583473168E+02  0.29848065970E+03  0.00000000000E+00 0. -1.
        -13    1    3    3    0    0  0.28928175194E+02  0.12313444338E+03  0.27026942555E+02  0.12934212806E+03  0.00000000000E+00 0.  1.
          4    1    4    4  502    0 -0.32745411976E+01 -0.25043132212E+03  0.31119935383E+03  0.39946415051E+03  0.00000000000E+00 0. -1.
          3    1    5    5  503    0  0.54063487211E+02  0.49359214962E+01  0.23036459448E+03  0.23667503113E+03  0.00000000000E+00 0. -1.
         -4    1    5    5    0  503  0.13089608721E+03  0.15407782246E+03  0.91151412202E+03  0.93366576229E+03  0.00000000000E+00 0.  1.
         -1    1    4    4    0  502 -0.21123464633E+03 -0.32534780608E+03  0.61129303016E+03  0.72398234748E+03  0.00000000000E+00 0.  1.
<mgrwt>
<rscale>  0 0.18040159E+04</rscale>
<asrwt>0</asrwt>
<pdfrwt beam="1">  1        2 0.52599656E-01 0.18040159E+04</pdfrwt>
<pdfrwt beam="2">  1       -2 0.36610958E+00 0.18040159E+04</pdfrwt>
<totfact> 0.11053602E+00</totfact>
</mgrwt>
</event>
<event>
12    1  0.2404191E-008  0.1833813E+04  0.7818608E-02  0.8688522E-01
         -1   -1    0    0    0  501 -0.00000000000E+00  0.00000000000E+00  0.58522452257E+03  0.58522452257E+03  0.00000000000E+00 0.  1.
          1   -1    0    0  501    0  0.00000000000E+00 -0.00000000000E+00 -0.14365721477E+04  0.14365721477E+04  0.00000000000E+00 0. -1.
         23    2    1    2    0    0  0.62158396765E+03  0.10116612666E+03 -0.63731817586E+03  0.90087957435E+03  0.93852736611E+02 0.  0.
        254    2    1    2    0    0 -0.62158396765E+03 -0.10116612666E+03 -0.21402944932E+03  0.11209170960E+04  0.90224459923E+03 0.  0.
        -24    2    4    4    0    0 -0.12969824803E+03 -0.27748970207E+03 -0.44582216878E+03  0.54660361287E+03  0.78714249897E+02 0.  0.
         24    2    4    4    0    0 -0.49188571962E+03  0.17632357541E+03  0.23179271946E+03  0.57431348310E+03  0.55376417900E+02 0.  0.
         11    1    3    3    0    0  0.36043736657E+03  0.16766781495E+02 -0.39183415392E+03  0.53266333116E+03  0.00000000000E+00 0. -1.
        -11    1    3    3    0    0  0.26114660108E+03  0.84399345167E+02 -0.24548402194E+03  0.36821624319E+03  0.00000000000E+00 0.  1.
          2    1    6    6  502    0 -0.24691508129E+03  0.60701174547E+02  0.12204378559E+03  0.28203967019E+03  0.00000000000E+00 0. -1.
          1    1    5    5  503    0 -0.13795726102E+03 -0.26537936176E+03 -0.43680711370E+03  0.52939481117E+03  0.00000000000E+00 0. -1.
         -2    1    5    5    0  503  0.82590129917E+01 -0.12110340311E+02 -0.90150550817E+01  0.17208801706E+02  0.00000000000E+00 0.  1.
         -1    1    6    6    0  502 -0.24497063833E+03  0.11562240086E+03  0.10974893388E+03  0.29227381291E+03  0.00000000000E+00 0.  1.
<mgrwt>
<rscale>  0 0.18338127E+04</rscale>
<asrwt>0</asrwt>
<pdfrwt beam="1">  1        1 0.22101110E+00 0.18338127E+04</pdfrwt>
<pdfrwt beam="2">  1       -1 0.90034543E-01 0.18338127E+04</pdfrwt>
<totfact> 0.82239868E+00</totfact>
</mgrwt>
</event>
<event>
11    1  0.2404191E-008  0.2689566E+04  0.7818608E-02  0.8338398E-01
          1   -1    0    0  501    0  0.00000000000E+00  0.00000000000E+00  0.85969157892E+03  0.85969157892E+03  0.00000000000E+00 0. -1.
         -1   -1    0    0    0  501 -0.00000000000E+00 -0.00000000000E+00 -0.21035936697E+04  0.21035936697E+04  0.00000000000E+00 0.  1.
         23    2    1    2    0    0  0.14762821461E+01  0.62659958277E+03  0.56482752246E+03  0.84953763460E+03  0.10027385467E+03 0.  0.
        254    2    1    2    0    0 -0.14762821461E+01 -0.62659958277E+03 -0.18087296133E+04  0.21137476141E+04  0.89654723550E+03 0.  0.
        -24    2    4    4    0    0  0.25414150777E+03  0.52949292731E+02 -0.81668953058E+03  0.86063212013E+03  0.79462716242E+02 0.  0.
         11    1    3    3    0    0 -0.26879770341E+02  0.52938190484E+03  0.50387993140E+03  0.73134308535E+03  0.00000000000E+00 0. -1.
        -11    1    3    3    0    0  0.28356052487E+02  0.97217677931E+02  0.60947591057E+02  0.11819454924E+03  0.00000000000E+00 0.  1.
          4    1    4    4  502    0 -0.29873794330E+03 -0.63059730737E+03 -0.87542130431E+03  0.11194908588E+04  0.00000000000E+00 0. -1.
          1    1    5    5  503    0  0.24529140172E+03  0.30424045918E+02 -0.73640068735E+03  0.77677504251E+03  0.00000000000E+00 0. -1.
         -2    1    5    5    0  503  0.88501060470E+01  0.22525246813E+02 -0.80288843228E+02  0.83857077626E+02  0.00000000000E+00 0.  1.
         -3    1    4    4    0  502  0.43120153381E+02 -0.48951568132E+02 -0.11661877839E+03  0.13362463517E+03  0.00000000000E+00 0.  1.
<mgrwt>
<rscale>  0 0.26895663E+04</rscale>
<asrwt>0</asrwt>
<pdfrwt beam="1">  1        1 0.13226024E+00 0.26895663E+04</pdfrwt>
<pdfrwt beam="2">  1       -1 0.32362980E+00 0.26895663E+04</pdfrwt>
<totfact> 0.39806167E-01</totfact>
</mgrwt>
</event>
<event>
12    1  0.2404191E-008  0.1850296E+04  0.7818608E-02  0.8680001E-01
          2   -1    0    0  501    0  0.00000000000E+00  0.00000000000E+00  0.26295834665E+04  0.26295834665E+04  0.00000000000E+00 0. -1.
         -2   -1    0    0    0  501 -0.00000000000E+00 -0.00000000000E+00 -0.32548832320E+03  0.32548832320E+03  0.00000000000E+00 0.  1.
         23    2    1    2    0    0  0.59654525125E+03  0.81151149742E+02  0.14427817033E+04  0.15662169885E+04  0.94682975449E+02 0.  0.
        254    2    1    2    0    0 -0.59654525125E+03 -0.81151149742E+02  0.86131344009E+03  0.13888548013E+04  0.90807767896E+03 0.  0.
        -24    2    4    4    0    0  0.13860070749E+02 -0.13530433217E+03 -0.14140970473E+03  0.21200688180E+03  0.80317180438E+02 0.  0.
         24    2    4    4    0    0 -0.61040532200E+03  0.54153182427E+02  0.10027231448E+04  0.11768479195E+04  0.63167207533E+02 0.  0.
         13    1    3    3    0    0  0.53201746007E+03  0.10172688742E+03  0.12757107048E+04  0.13859396595E+04  0.00000000000E+00 0. -1.
        -13    1    3    3    0    0  0.64527791173E+02 -0.20575737677E+02  0.16707099844E+03  0.18027732895E+03  0.00000000000E+00 0.  1.
          2    1    6    6  502    0 -0.26493415010E+03  0.45958086613E+02  0.48104871861E+03  0.55109901043E+03  0.00000000000E+00 0. -1.
          1    1    5    5  503    0 -0.26656588850E+02 -0.68040338972E+02 -0.38613098982E+02  0.82650062732E+02  0.00000000000E+00 0. -1.
         -2    1    5    5    0  503  0.40516659599E+02 -0.67263993197E+02 -0.10279660575E+03  0.12935681907E+03  0.00000000000E+00 0.  1.
         -1    1    6    6    0  502 -0.34547117189E+03  0.81950958140E+01  0.52167442621E+03  0.62574890904E+03  0.00000000000E+00 0.  1.
<mgrwt>
<rscale>  0 0.18502959E+04</rscale>
<asrwt>0</asrwt>
<pdfrwt beam="1">  1        2 0.40455129E+00 0.18502959E+04</pdfrwt>
<pdfrwt beam="2">  1       -2 0.50075128E-01 0.18502959E+04</pdfrwt>
<totfact> 0.10386273E+01</totfact>
</mgrwt>
</event>
<event>
11    1  0.2404191E-008  0.1594976E+04  0.7818608E-02  0.8823640E-01
         -2   -1    0    0    0  501 -0.00000000000E+00  0.00000000000E+00  0.56738411614E+03  0.56738411614E+03  0.00000000000E+00 0.  1.
          2   -1    0    0  501    0  0.00000000000E+00 -0.00000000000E+00 -0.11209110626E+04  0.11209110626E+04  0.00000000000E+00 0. -1.
         23    2    1    2    0    0 -0.18980606325E+03  0.45904053371E+03 -0.41038822026E+03  0.65078482679E+03  0.91421256966E+02 0.  0.
        254    2    1    2    0    0  0.18980606325E+03 -0.45904053371E+03 -0.14313872618E+03  0.10375103519E+04  0.89955237878E+03 0.  0.
        -24    2    4    4    0    0  0.46368336364E+03 -0.13307124160E+03 -0.91252327307E+02  0.49749013035E+03  0.80369306891E+02 0.  0.
         13    1    3    3    0    0 -0.14974093653E+03  0.40674052300E+03 -0.38643651073E+03  0.58068354372E+03  0.00000000000E+00 0. -1.
        -13    1    3    3    0    0 -0.40065126722E+02  0.52300010707E+02 -0.23951709530E+02  0.70101283074E+02  0.00000000000E+00 0.  1.
          4    1    4    4  502    0 -0.33163314190E+03 -0.27719248661E+03 -0.10843085571E+03  0.44561582771E+03  0.00000000000E+00 0. -1.
          1    1    5    5  503    0  0.44558563050E+03 -0.11978826414E+03 -0.10208434889E+03  0.47256427776E+03  0.00000000000E+00 0. -1.
         -2    1    5    5    0  503  0.18097733149E+02 -0.13282977468E+02  0.10832021580E+02  0.24925852585E+02  0.00000000000E+00 0.  1.
         -3    1    4    4    0  502  0.57755841503E+02 -0.48776805492E+02  0.56544456829E+02  0.94404393859E+02  0.00000000000E+00 0.  1.
<mgrwt>
<rscale>  0 0.15949760E+04</rscale>
<asrwt>0</asrwt>
<pdfrwt beam="1">  1        2 0.17244785E+00 0.15949760E+04</pdfrwt>
<pdfrwt beam="2">  1       -2 0.87289865E-01 0.15949760E+04</pdfrwt>
<totfact> 0.23009031E+01</totfact>
</mgrwt>
</event>
<event>
12    1  0.2404191E-008  0.1727817E+04  0.7818608E-02  0.8745656E-01
         -2   -1    0    0    0  501 -0.00000000000E+00  0.00000000000E+00  0.98609262129E+03  0.98609262129E+03  0.00000000000E+00 0.  1.
          2   -1    0    0  501    0  0.00000000000E+00 -0.00000000000E+00 -0.75686421884E+03  0.75686421884E+03  0.00000000000E+00 0. -1.
         23    2    1    2    0    0  0.33796217115E+03  0.11841455613E+03  0.58814607315E+03  0.69445362387E+03  0.90053295969E+02 0.  0.
        254    2    1    2    0    0 -0.33796217115E+03 -0.11841455613E+03 -0.35891767070E+03  0.10485032163E+04  0.91776721664E+03 0.  0.
        -24    2    4    4    0    0  0.50203243120E+01 -0.25180711178E+03  0.22852308737E+03  0.34883433733E+03  0.77656733395E+02 0.  0.
         24    2    4    4    0    0 -0.34298249546E+03  0.13339255565E+03 -0.58744075807E+03  0.69966887893E+03  0.94970152179E+02 0.  0.
         11    1    3    3    0    0  0.20665340501E+03  0.11032963044E+03  0.32970044214E+03  0.40445103375E+03  0.00000000000E+00 0. -1.
        -11    1    3    3    0    0  0.13130876613E+03  0.80849256933E+01  0.25844563101E+03  0.29000259012E+03  0.00000000000E+00 0.  1.
          2    1    6    6  502    0 -0.75063086921E+02  0.74570000289E+01 -0.66856530290E+02  0.10079617805E+03  0.00000000000E+00 0. -1.
          1    1    5    5  503    0  0.11684004756E+02 -0.56721663305E+01  0.12539418019E+00  0.12988655116E+02  0.00000000000E+00 0. -1.
         -2    1    5    5    0  503 -0.66636804444E+01 -0.24613494545E+03  0.22839769319E+03  0.33584568221E+03  0.00000000000E+00 0.  1.
         -1    1    6    6    0  502 -0.26791940854E+03  0.12593555562E+03 -0.52058422778E+03  0.59887270088E+03  0.00000000000E+00 0.  1.
<mgrwt>
<rscale>  0 0.17278174E+04</rscale>
<asrwt>0</asrwt>
<pdfrwt beam="1">  1        2 0.11644065E+00 0.17278174E+04</pdfrwt>
<pdfrwt beam="2">  1       -2 0.15170656E+00 0.17278174E+04</pdfrwt>
<totfact> 0.10225016E+01</totfact>
</mgrwt>
</event>
<event>
11    1  0.2404191E-008  0.1214139E+04  0.7818608E-02  0.9100570E-01
          1   -1    0    0  501    0  0.00000000000E+00  0.00000000000E+00  0.61529031292E+03  0.61529031292E+03  0.00000000000E+00 0. -1.
         -1   -1    0    0    0  501 -0.00000000000E+00 -0.00000000000E+00 -0.59895825943E+03  0.59895825943E+03  0.00000000000E+00 0.  1.
         23    2    1    2    0    0 -0.31050116527E+02 -0.39095643274E+02 -0.25238351483E+03  0.27280100624E+03  0.90721394327E+02 0.  0.
        254    2    1    2    0    0  0.31050116527E+02  0.39095643274E+02  0.26871556832E+03  0.94144756611E+03  0.90090115108E+03 0.  0.
        -24    2    4    4    0    0  0.16037773825E+03 -0.32735511045E+03  0.36604616649E+03  0.52280336094E+03  0.80319181697E+02 0.  0.
         13    1    3    3    0    0 -0.34683686031E+02  0.22754586918E+02 -0.95018762566E+02  0.10367880469E+03  0.00000000000E+00 0. -1.
        -13    1    3    3    0    0  0.36335695038E+01 -0.61850230192E+02 -0.15736475226E+03  0.16912220155E+03  0.00000000000E+00 0.  1.
          4    1    4    4  502    0 -0.14465275286E+03  0.30372867876E+03 -0.10773211916E+03  0.35324458766E+03  0.00000000000E+00 0. -1.
          1    1    5    5  503    0  0.91862230049E+02 -0.10569393008E+03  0.11752497411E+03  0.18281683649E+03  0.00000000000E+00 0. -1.
         -2    1    5    5    0  503  0.68515508205E+02 -0.22166118037E+03  0.24852119239E+03  0.33998652446E+03  0.00000000000E+00 0.  1.
         -3    1    4    4    0  502  0.15325131135E+02  0.62722074958E+02  0.10401520982E+02  0.65399617507E+02  0.00000000000E+00 0.  1.
<mgrwt>
<rscale>  0 0.12141387E+04</rscale>
<asrwt>0</asrwt>
<pdfrwt beam="1">  1        1 0.94660048E-01 0.12141387E+04</pdfrwt>
<pdfrwt beam="2">  1       -1 0.92147424E-01 0.12141387E+04</pdfrwt>
<totfact> 0.37445250E+01</totfact>
</mgrwt>
</event>
<event>
11    1  0.2404191E-008  0.2131916E+04  0.7818608E-02  0.8547313E-01
         -2   -1    0    0    0  501 -0.00000000000E+00  0.00000000000E+00  0.61682483165E+03  0.61682483165E+03  0.00000000000E+00 0.  1.
          2   -1    0    0  501    0  0.00000000000E+00 -0.00000000000E+00 -0.18421218144E+04  0.18421218144E+04  0.00000000000E+00 0. -1.
         23    2    1    2    0    0  0.57481692234E+03  0.52403750178E+03 -0.96617928881E+03  0.12434317583E+04  0.87122453616E+02 0.  0.
        254    2    1    2    0    0 -0.57481692234E+03 -0.52403750178E+03 -0.25911769396E+03  0.12155148878E+04  0.89738768970E+03 0.  0.
        -24    2    4    4    0    0 -0.59285314925E+03 -0.65271861675E+03 -0.36662572124E+03  0.95845486932E+03  0.81883257206E+02 0.  0.
         13    1    3    3    0    0  0.14507888985E+02  0.24588201587E+02 -0.16616050195E+02  0.33032584279E+02  0.00000000000E+00 0.  1.
        -13    1    3    3    0    0  0.56030903335E+03  0.49944930019E+03 -0.94956323862E+03  0.12103991740E+04  0.00000000000E+00 0. -1.
          2    1    4    4  502    0 -0.84414644557E+02  0.91306070260E+02  0.60931423525E+02  0.13847479574E+03  0.00000000000E+00 0. -1.
          1    1    5    5  503    0 -0.19548697286E+03 -0.16518458458E+03 -0.89225561352E+02  0.27103930405E+03  0.00000000000E+00 0. -1.
         -2    1    5    5    0  503 -0.39736617638E+03 -0.48753403217E+03 -0.27740015989E+03  0.68741556526E+03  0.00000000000E+00 0.  1.
         -1    1    4    4    0  502  0.10245087147E+03  0.37375044715E+02  0.46576603756E+02  0.11858522273E+03  0.00000000000E+00 0.  1.
<mgrwt>
<rscale>  0 0.21319160E+04</rscale>
<asrwt>0</asrwt>
<pdfrwt beam="1">  1        2 0.28340336E+00 0.21319160E+04</pdfrwt>
<pdfrwt beam="2">  1       -2 0.94896128E-01 0.21319160E+04</pdfrwt>
<totfact> 0.70221992E+00</totfact>
</mgrwt>
</event>
<event>
12    1  0.2404191E-008  0.1289067E+04  0.7818608E-02  0.9038280E-01
         -1   -1    0    0    0  501 -0.00000000000E+00  0.00000000000E+00  0.42199283745E+03  0.42199283745E+03  0.00000000000E+00 0.  1.
          1   -1    0    0  501    0  0.00000000000E+00 -0.00000000000E+00 -0.98443305487E+03  0.98443305487E+03  0.00000000000E+00 0. -1.
         23    2    1    2    0    0 -0.18198532101E+03 -0.13556789855E+03  0.10592907001E+03  0.26637347857E+03  0.90755440793E+02 0.  0.
        254    2    1    2    0    0  0.18198532101E+03  0.13556789855E+03 -0.66836928742E+03  0.11400524137E+04  0.89526794288E+03 0.  0.
        -24    2    4    4    0    0  0.12570675458E+03  0.31622193519E+03  0.85688794826E+02  0.36006360189E+03  0.80651890267E+02 0.  0.
         24    2    4    4    0    0  0.56278566437E+02 -0.18065403664E+03 -0.75405808224E+03  0.77998881186E+03  0.63053923195E+02 0.  0.
         11    1    3    3    0    0 -0.19685948695E+02 -0.23353827141E+00 -0.13280056754E+02  0.23747653011E+02  0.00000000000E+00 0. -1.
        -11    1    3    3    0    0 -0.16229937232E+03 -0.13533436028E+03  0.11920912676E+03  0.24262582556E+03  0.00000000000E+00 0.  1.
          2    1    6    6  502    0  0.25597022844E+02 -0.15348539059E+03 -0.53675052002E+03  0.55885068976E+03  0.00000000000E+00 0. -1.
          3    1    5    5  503    0  0.32407650658E+02  0.14644336059E+03  0.70542047390E+02  0.16574707881E+03  0.00000000000E+00 0. -1.
         -4    1    5    5    0  503  0.93299103917E+02  0.16977857460E+03  0.15146747436E+02  0.19431652308E+03  0.00000000000E+00 0.  1.
         -1    1    6    6    0  502  0.30681543593E+02 -0.27168646056E+02 -0.21730756222E+03  0.22113812209E+03  0.00000000000E+00 0.  1.
<mgrwt>
<rscale>  0 0.12890674E+04</rscale>
<asrwt>0</asrwt>
<pdfrwt beam="1">  1        1 0.15145124E+00 0.12890674E+04</pdfrwt>
<pdfrwt beam="2">  1       -1 0.64921975E-01 0.12890674E+04</pdfrwt>
<totfact> 0.36816978E+01</totfact>
</mgrwt>
</event>
<event>
12    1  0.2404191E-008  0.1429892E+04  0.7818608E-02  0.8932461E-01
         -3   -1    0    0    0  501 -0.00000000000E+00  0.00000000000E+00  0.41854365497E+03  0.41854365497E+03  0.00000000000E+00 0.  1.
          3   -1    0    0  501    0  0.00000000000E+00 -0.00000000000E+00 -0.12212526823E+04  0.12212526823E+04  0.00000000000E+00 0. -1.
         23    2    1    2    0    0  0.69594826667E+02  0.28084544925E+03  0.11357704274E+03  0.32127958423E+03  0.81260201467E+02 0.  0.
        254    2    1    2    0    0 -0.69594826667E+02 -0.28084544925E+03 -0.91628607012E+03  0.13185167531E+04  0.90287798710E+03 0.  0.
        -24    2    4    4    0    0  0.24611328214E+03 -0.13574287180E+03 -0.92004198394E+03  0.96535172489E+03  0.80179957830E+02 0.  0.
         24    2    4    4    0    0 -0.31570810881E+03 -0.14510257746E+03  0.37559138295E+01  0.35316502818E+03  0.63127349801E+02 0.  0.
         11    1    3    3    0    0  0.14435634741E+02  0.18796139231E+02 -0.10762808290E+02  0.26029222859E+02  0.00000000000E+00 0. -1.
        -11    1    3    3    0    0  0.55159191927E+02  0.26204931002E+03  0.12433985104E+03  0.29525036137E+03  0.00000000000E+00 0.  1.
          4    1    6    6  502    0 -0.28415091122E+03 -0.11350470068E+03  0.17380939686E+02  0.30647537338E+03  0.00000000000E+00 0. -1.
          3    1    5    5  503    0  0.14555528822E+03 -0.91134461725E+02 -0.67921125389E+03  0.70058529777E+03  0.00000000000E+00 0. -1.
         -4    1    5    5    0  503  0.10055799392E+03 -0.44608410071E+02 -0.24083073006E+03  0.26476642712E+03  0.00000000000E+00 0.  1.
         -3    1    6    6    0  502 -0.31557197586E+02 -0.31597876773E+02 -0.13625025857E+02  0.46689654803E+02  0.00000000000E+00 0.  1.
<mgrwt>
<rscale>  0 0.14298917E+04</rscale>
<asrwt>0</asrwt>
<pdfrwt beam="1">  1        3 0.18788503E+00 0.14298917E+04</pdfrwt>
<pdfrwt beam="2">  1       -3 0.64391331E-01 0.14298917E+04</pdfrwt>
<totfact> 0.10476227E+00</totfact>
</mgrwt>
</event>
<event>
12    1  0.2404191E-008  0.1523546E+04  0.7818608E-02  0.8868945E-01
         -2   -1    0    0    0  501 -0.00000000000E+00  0.00000000000E+00  0.24022763200E+03  0.24022763200E+03  0.00000000000E+00 0.  1.
          2   -1    0    0  501    0  0.00000000000E+00 -0.00000000000E+00 -0.24156165398E+04  0.24156165398E+04  0.00000000000E+00 0. -1.
         23    2    1    2    0    0  0.35973061205E+03 -0.26610984199E+03 -0.10727193917E+04  0.11658023193E+04  0.90264019141E+02 0.  0.
        254    2    1    2    0    0 -0.35973061205E+03  0.26610984199E+03 -0.11026695161E+04  0.14900418525E+04  0.89672966893E+03 0.  0.
        -24    2    4    4    0    0 -0.40973367231E+03  0.19378808433E+03 -0.86873622809E+02  0.46842644437E+03  0.80254617255E+02 0.  0.
         24    2    4    4    0    0  0.50003060258E+02  0.72321757660E+02 -0.10157958933E+04  0.10216154081E+04  0.64233967660E+02 0.  0.
         11    1    3    3    0    0  0.17354902682E+02 -0.48829667920E+01 -0.13934463019E+02  0.22786076262E+02  0.00000000000E+00 0.  1.
        -11    1    3    3    0    0  0.34237570937E+03 -0.26122687519E+03 -0.10587849287E+04  0.11430162430E+04  0.00000000000E+00 0. -1.
          4    1    6    6  502    0  0.67683172418E+01  0.50961421561E+02 -0.31548608636E+03  0.31964722319E+03  0.00000000000E+00 0. -1.
          3    1    5    5  503    0 -0.96840736112E+02  0.25666774795E+02  0.87924127330E+01  0.10056946863E+03  0.00000000000E+00 0. -1.
         -4    1    5    5    0  503 -0.31289293620E+03  0.16812130953E+03 -0.95666035542E+02  0.36785697574E+03  0.00000000000E+00 0.  1.
         -3    1    6    6    0  502  0.43234743016E+02  0.21360336099E+02 -0.70030980691E+03  0.70196818490E+03  0.00000000000E+00 0.  1.
<mgrwt>
<rscale>  0 0.15235457E+04</rscale>
<asrwt>0</asrwt>
<pdfrwt beam="1">  1        2 0.37163330E+00 0.15235457E+04</pdfrwt>
<pdfrwt beam="2">  1       -2 0.36958099E-01 0.15235457E+04</pdfrwt>
<totfact> 0.25965906E+01</totfact>
</mgrwt>
</event>
<event>
11    1  0.2404191E-008  0.1945972E+04  0.7818608E-02  0.8632306E-01
          2   -1    0    0  501    0  0.00000000000E+00  0.00000000000E+00  0.15893637184E+04  0.15893637184E+04  0.00000000000E+00 0. -1.
         -2   -1    0    0    0  501 -0.00000000000E+00 -0.00000000000E+00 -0.59564823637E+03  0.59564823637E+03  0.00000000000E+00 0.  1.
         23    2    1    2    0    0  0.16692074952E+02 -0.28160258589E+03 -0.40237697077E+03  0.50001734081E+03  0.92365971887E+02 0.  0.
        254    2    1    2    0    0 -0.16692074952E+02  0.28160258589E+03  0.13960924528E+04  0.16849946140E+04  0.90030776435E+03 0.  0.
        -24    2    4    4    0    0  0.33658593378E+03  0.14287485112E+03  0.55993987090E+03  0.67370939709E+03  0.81537591346E+02 0.  0.
         11    1    3    3    0    0  0.82314987533E+01 -0.28257576837E+03 -0.36494814713E+03  0.46163185823E+03  0.00000000000E+00 0.  1.
        -11    1    3    3    0    0  0.84605761984E+01  0.97318248244E+00 -0.37428823647E+02  0.38385482586E+02  0.00000000000E+00 0. -1.
          4    1    4    4  502    0 -0.26786005610E+03 -0.11418925528E+03  0.33813648410E+03  0.44623365802E+03  0.00000000000E+00 0. -1.
          1    1    5    5  503    0  0.32860096280E+03  0.14630374059E+03  0.55931914041E+03  0.66499720157E+03  0.00000000000E+00 0. -1.
         -2    1    5    5    0  503  0.79849709728E+01 -0.34288894707E+01  0.62073049195E+00  0.87121955202E+01  0.00000000000E+00 0.  1.
         -3    1    4    4    0  502 -0.85417952632E+02  0.25291699004E+03  0.49801609782E+03  0.56505155886E+03  0.00000000000E+00 0.  1.
<mgrwt>
<rscale>  0 0.19459719E+04</rscale>
<asrwt>0</asrwt>
<pdfrwt beam="1">  1        2 0.24451749E+00 0.19459719E+04</pdfrwt>
<pdfrwt beam="2">  1       -2 0.91638191E-01 0.19459719E+04</pdfrwt>
<totfact> 0.10693593E+01</totfact>
</mgrwt>
</event>
<event>
11    1  0.2404191E-008  0.1421528E+04  0.7818608E-02  0.8938381E-01
          2   -1    0    0  501    0  0.00000000000E+00  0.00000000000E+00  0.81794688287E+03  0.81794688287E+03  0.00000000000E+00 0.  1.
         -2   -1    0    0    0  501 -0.00000000000E+00 -0.00000000000E+00 -0.61762596331E+03  0.61762596331E+03  0.00000000000E+00 0. -1.
         23    2    1    2    0    0 -0.87579483516E+02 -0.42446426006E+03 -0.71976659374E+02  0.44920240188E+03  0.93606006010E+02 0.  0.
        254    2    1    2    0    0  0.87579483516E+02  0.42446426006E+03  0.27229757894E+03  0.98637044430E+03  0.84317294068E+03 0.  0.
        -24    2    4    4    0    0 -0.12863113833E+03  0.51047045128E+03  0.13153945627E+03  0.54854361479E+03  0.80445120373E+02 0.  0.
         11    1    3    3    0    0 -0.17114313545E+02 -0.27286044383E+03 -0.19991123880E+02  0.27412655211E+03  0.00000000000E+00 0. -1.
        -11    1    3    3    0    0 -0.70465169972E+02 -0.15160381623E+03 -0.51985535493E+02  0.17507584978E+03  0.00000000000E+00 0.  1.
          2    1    4    4  502    0  0.23355095495E+03 -0.13806169100E+03  0.21453842809E+03  0.34588121690E+03  0.00000000000E+00 0. -1.
          1    1    5    5  503    0 -0.61688515253E+02  0.11911253175E+03  0.16362120794E+02  0.13513321994E+03  0.00000000000E+00 0. -1.
         -2    1    5    5    0  503 -0.66942623073E+02  0.39135791953E+03  0.11517733547E+03  0.41341039485E+03  0.00000000000E+00 0.  1.
         -1    1    4    4    0  502 -0.17340333103E+02  0.52055499785E+02 -0.73780305422E+02  0.91945612609E+02  0.00000000000E+00 0.  1.
<mgrwt>
<rscale>  0 0.14215277E+04</rscale>
<asrwt>0</asrwt>
<pdfrwt beam="1">  1        2 0.12583798E+00 0.14215277E+04</pdfrwt>
<pdfrwt beam="2">  1       -2 0.95019379E-01 0.14215277E+04</pdfrwt>
<totfact> 0.30279119E+01</totfact>
</mgrwt>
</event>
<event>
11    1  0.2404191E-008  0.2034998E+04  0.7818608E-02  0.8590431E-01
          2   -1    0    0  501    0  0.00000000000E+00  0.00000000000E+00  0.12245211553E+04  0.12245211553E+04  0.00000000000E+00 0. -1.
         -2   -1    0    0    0  501 -0.00000000000E+00 -0.00000000000E+00 -0.84547674662E+03  0.84547674662E+03  0.00000000000E+00 0.  1.
         23    2    1    2    0    0 -0.34554951831E+03  0.10364925428E+02 -0.60362000909E+03  0.70215547310E+03  0.95672837108E+02 0.  0.
        254    2    1    2    0    0  0.34554951831E+03 -0.10364925428E+02  0.98266441776E+03  0.13678424288E+04  0.88648274142E+03 0.  0.
        -24    2    4    4    0    0  0.34805621404E+03 -0.34840929921E+03  0.34182910329E+03  0.60491198087E+03  0.80865325274E+02 0.  0.
         13    1    3    3    0    0 -0.34812555652E+03  0.17007404442E+02 -0.60062179712E+03  0.69442580459E+03  0.00000000000E+00 0.  1.
        -13    1    3    3    0    0  0.25760382102E+01 -0.66424790140E+01 -0.29982119630E+01  0.77296685108E+01  0.00000000000E+00 0. -1.
          2    1    4    4  502    0  0.54358459210E+02  0.35118366987E+03  0.54059176731E+03  0.64693451829E+03  0.00000000000E+00 0. -1.
          1    1    5    5  503    0  0.34653280648E+03 -0.35034304262E+03  0.34452015169E+03  0.60126480721E+03  0.00000000000E+00 0. -1.
         -2    1    5    5    0  503  0.15234075619E+01  0.19337434061E+01 -0.26910483989E+01  0.36471736517E+01  0.00000000000E+00 0.  1.
         -1    1    4    4    0  502 -0.56865154941E+02 -0.13139296089E+02  0.10024354716E+03  0.11599592965E+03  0.00000000000E+00 0.  1.
<mgrwt>
<rscale>  0 0.20349979E+04</rscale>
<asrwt>0</asrwt>
<pdfrwt beam="1">  1        2 0.18838787E+00 0.20349979E+04</pdfrwt>
<pdfrwt beam="2">  1       -2 0.13007335E+00 0.20349979E+04</pdfrwt>
<totfact> 0.73590070E+00</totfact>
</mgrwt>
</event>
<event>
12    1  0.2404191E-008  0.2548755E+04  0.7818608E-02  0.8385819E-01
          2   -1    0    0  501    0  0.00000000000E+00  0.00000000000E+00  0.16669092035E+04  0.16669092035E+04  0.00000000000E+00 0. -1.
         -2   -1    0    0    0  501 -0.00000000000E+00 -0.00000000000E+00 -0.97428117418E+03  0.97428117418E+03  0.00000000000E+00 0.  1.
         23    2    1    2    0    0 -0.67916715045E+03 -0.37316069042E+03  0.11524996299E+04  0.13917818796E+04  0.91019143005E+02 0.  0.
        254    2    1    2    0    0  0.67916715045E+03  0.37316069042E+03 -0.45987160050E+03  0.12494084981E+04  0.86546102577E+03 0.  0.
        -24    2    4    4    0    0  0.27548972681E+02  0.42210213937E+03  0.23430247342E+02  0.43095356222E+03  0.79011608930E+02 0.  0.
         24    2    4    4    0    0  0.65161817777E+03 -0.48941448948E+02 -0.48330184784E+03  0.81845493591E+03  0.96365403341E+02 0.  0.
         11    1    3    3    0    0 -0.22559563401E+03 -0.17328131952E+03  0.43267582894E+03  0.51781094883E+03  0.00000000000E+00 0.  1.
        -11    1    3    3    0    0 -0.45357151644E+03 -0.19987937090E+03  0.71982380092E+03  0.87397093076E+03  0.00000000000E+00 0. -1.
          4    1    6    6  502    0  0.27760960154E+03  0.17838005140E+02 -0.23911126372E+03  0.36682350216E+03  0.00000000000E+00 0. -1.
          1    1    5    5  503    0  0.33640688085E+02  0.35393233464E+03  0.46882977247E+02  0.35860536381E+03  0.00000000000E+00 0. -1.
         -2    1    5    5    0  503 -0.60917154037E+01  0.68169804735E+02 -0.23452729905E+02  0.72348198417E+02  0.00000000000E+00 0.  1.
         -3    1    6    6    0  502  0.37400857623E+03 -0.66779454087E+02 -0.24419058412E+03  0.45163143375E+03  0.00000000000E+00 0.  1.
<mgrwt>
<rscale>  0 0.25487552E+04</rscale>
<asrwt>0</asrwt>
<pdfrwt beam="1">  1        2 0.25644757E+00 0.25487552E+04</pdfrwt>
<pdfrwt beam="2">  1       -2 0.14988941E+00 0.25487552E+04</pdfrwt>
<totfact> 0.27291016E+00</totfact>
</mgrwt>
</event>
