<event>
12    1  0.1338445E-007  0.5079075E+03  0.7818608E-02  0.1011735E+00
          1   -1    0    0  501    0  0.00000000000E+00  0.00000000000E+00  0.74536516833E+03  0.74536516833E+03  0.00000000000E+00 0. -1.
         -1   -1    0    0    0  501 -0.00000000000E+00 -0.00000000000E+00 -0.67228641731E+03  0.67228641731E+03  0.00000000000E+00 0.  1.
         23    2    1    2    0    0  0.26350224678E+03  0.30178938755E+03 -0.38464626099E+03  0.56319939453E+03  0.93437376906E+02 0.  0.
    5000000    2    1    2    0    0 -0.26350224678E+03 -0.30178938755E+03  0.45772501201E+03  0.85445219111E+03  0.60005507395E+03 0.  0.
         23    2    4    4    0    0  0.49345211721E+02 -0.26426493437E+03  0.44394841945E+03  0.52705919309E+03  0.91816602114E+02 0.  0.
         23    2    4    4    0    0 -0.31284745851E+03 -0.37524453184E+02  0.13776592553E+02  0.32739299803E+03  0.87833727994E+02 0.  0.
          4    1    3    3  502    0  0.12693517185E+03  0.81039508853E+02 -0.16235036402E+03  0.22144430574E+03  0.00000000000E+00 0. -1.
         -4    1    3    3    0  502  0.13656707494E+03  0.22074987870E+03 -0.22229589697E+03  0.34175508879E+03  0.00000000000E+00 0.  1.
         13    1    5    5    0    0  0.52504641812E+02 -0.26860194402E+03  0.41170979794E+03  0.49437708225E+03  0.00000000000E+00 0. -1.
        -13    1    5    5    0    0 -0.31594300909E+01  0.43370096450E+01  0.32238621516E+02  0.32682110832E+02  0.00000000000E+00 0.  1.
          4    1    6    6  503    0 -0.95916360053E+02  0.28097638023E+02 -0.42542400489E+01  0.10003761266E+03  0.00000000000E+00 0.  1.
         -4    1    6    6    0  503 -0.21693109845E+03 -0.65622091207E+02  0.18030832602E+02  0.22735538537E+03  0.00000000000E+00 0. -1.
<mgrwt>
<rscale>  0 0.50790745E+03</rscale>
<asrwt>0</asrwt>
<pdfrwt beam="1">  1        1 0.11467156E+00 0.50790745E+03</pdfrwt>
<pdfrwt beam="2">  1       -1 0.10342868E+00 0.50790745E+03</pdfrwt>
<totfact> 0.23131423E+01</totfact>
</mgrwt>
</event>
<event>
12    1  0.1338445E-007  0.5588499E+03  0.7818608E-02  0.9994660E-01
          1   -1    0    0  501    0  0.00000000000E+00  0.00000000000E+00  0.12133019062E+04  0.12133019062E+04  0.00000000000E+00 0. -1.
         -1   -1    0    0    0  501 -0.00000000000E+00 -0.00000000000E+00 -0.37621384907E+03  0.37621384907E+03  0.00000000000E+00 0.  1.
         23    2    1    2    0    0  0.45573775973E+03  0.37684404542E+01  0.67362994589E+03  0.81841906472E+03  0.91221459694E+02 0.  0.
    5000000    2    1    2    0    0 -0.45573775973E+03 -0.37684404542E+01  0.16345811121E+03  0.77109669052E+03  0.60013368946E+03 0.  0.
         23    2    4    4    0    0 -0.41962641145E+03  0.18274728976E+03 -0.52014922506E+02  0.46951335790E+03  0.90853420325E+02 0.  0.
         23    2    4    4    0    0 -0.36111348284E+02 -0.18651573021E+03  0.21547303372E+03  0.30158333262E+03  0.91824458421E+02 0.  0.
          2    1    3    3  502    0  0.12785765061E+03 -0.35970197307E+02  0.16266265692E+03  0.21000136636E+03  0.00000000000E+00 0. -1.
         -2    1    3    3    0  502  0.32788010912E+03  0.39738637761E+02  0.51096728897E+03  0.60841769836E+03  0.00000000000E+00 0.  1.
         13    1    5    5    0    0 -0.19951964540E+03  0.12653688447E+03 -0.53910864723E+02  0.24233458971E+03  0.00000000000E+00 0.  1.
        -13    1    5    5    0    0 -0.22010676604E+03  0.56210405292E+02  0.18959422168E+01  0.22717876819E+03  0.00000000000E+00 0. -1.
          3    1    6    6  503    0 -0.34923213297E+02 -0.12914907455E+03  0.83578088153E+02  0.15774793534E+03  0.00000000000E+00 0. -1.
         -3    1    6    6    0  503 -0.11881349873E+01 -0.57366655665E+02  0.13189494556E+03  0.14383539728E+03  0.00000000000E+00 0.  1.
<mgrwt>
<rscale>  0 0.55884989E+03</rscale>
<asrwt>0</asrwt>
<pdfrwt beam="1">  1        1 0.18666183E+00 0.55884989E+03</pdfrwt>
<pdfrwt beam="2">  1       -1 0.57879054E-01 0.55884989E+03</pdfrwt>
<totfact> 0.33328388E+01</totfact>
</mgrwt>
</event>
<event>
12    1  0.1338445E-007  0.9211415E+03  0.7818608E-02  0.9399533E-01
          2   -1    0    0  501    0  0.00000000000E+00  0.00000000000E+00  0.11810110341E+04  0.11810110341E+04  0.00000000000E+00 0. -1.
         -2   -1    0    0    0  501 -0.00000000000E+00 -0.00000000000E+00 -0.92118631383E+03  0.92118631383E+03  0.00000000000E+00 0.  1.
         23    2    1    2    0    0  0.35974994434E+03  0.81966601132E+03  0.45328592913E+03  0.10073250735E+04  0.89237198609E+02 0.  0.
    5000000    2    1    2    0    0 -0.35974994434E+03 -0.81966601132E+03 -0.19346120889E+03  0.10948722744E+04  0.60003805323E+03 0.  0.
         23    2    4    4    0    0 -0.24608187796E+02 -0.64683006522E+02 -0.23617467670E+03  0.26275487170E+03  0.92044502524E+02 0.  0.
         23    2    4    4    0    0 -0.33514175655E+03 -0.75498300480E+03  0.42713467816E+02  0.83211740270E+03  0.90970308473E+02 0.  0.
          2    1    3    3  502    0  0.25522552146E+03  0.64388488844E+03  0.38043478862E+03  0.79022683121E+03  0.00000000000E+00 0. -1.
         -2    1    3    3    0  502  0.10452442288E+03  0.17578112288E+03  0.72851140511E+02  0.21709824231E+03  0.00000000000E+00 0.  1.
         11    1    5    5    0    0 -0.56685543511E+02 -0.21487345715E+02 -0.11024799739E+03  0.12581565005E+03  0.00000000000E+00 0. -1.
        -11    1    5    5    0    0  0.32077355715E+02 -0.43195660807E+02 -0.12592667931E+03  0.13693922164E+03  0.00000000000E+00 0.  1.
          1    1    6    6  503    0 -0.21249811650E+03 -0.57426389003E+03  0.41257258230E+02  0.61370728060E+03  0.00000000000E+00 0. -1.
         -1    1    6    6    0  503 -0.12264364005E+03 -0.18071911477E+03  0.14562095857E+01  0.21841012209E+03  0.00000000000E+00 0.  1.
<mgrwt>
<rscale>  0 0.92114154E+03</rscale>
<asrwt>0</asrwt>
<pdfrwt beam="1">  1        2 0.18169401E+00 0.92114154E+03</pdfrwt>
<pdfrwt beam="2">  1       -2 0.14172097E+00 0.92114154E+03</pdfrwt>
<totfact> 0.67629283E+00</totfact>
</mgrwt>
</event>
<event>
12    1  0.1338445E-007  0.7781019E+03  0.7818608E-02  0.9592266E-01
          2   -1    0    0  501    0  0.00000000000E+00  0.00000000000E+00  0.32728258827E+04  0.32728258827E+04  0.00000000000E+00 0.  1.
         -2   -1    0    0    0  501 -0.00000000000E+00 -0.00000000000E+00 -0.19685460449E+03  0.19685460449E+03  0.00000000000E+00 0. -1.
         23    2    1    2    0    0  0.26547708226E+03 -0.63325991613E+03  0.13779855096E+04  0.15423372880E+04  0.92000231486E+02 0.  0.
    5000000    2    1    2    0    0 -0.26547708226E+03  0.63325991613E+03  0.16979857686E+04  0.19273431992E+04  0.59999994555E+03 0.  0.
         23    2    4    4    0    0  0.12144623828E+03  0.35688351972E+03  0.10384288520E+04  0.11086942157E+04  0.93559327952E+02 0.  0.
         23    2    4    4    0    0 -0.38692332054E+03  0.27637639641E+03  0.65955691658E+03  0.81864898349E+03  0.95274673984E+02 0.  0.
          3    1    3    3  502    0  0.84987743679E+02 -0.31854297101E+03  0.63314420786E+03  0.71383760681E+03  0.00000000000E+00 0. -1.
         -3    1    3    3    0  502  0.18048933858E+03 -0.31471694512E+03  0.74484130177E+03  0.82849968118E+03  0.00000000000E+00 0.  1.
         13    1    5    5    0    0  0.91585412737E+02  0.17800254625E+03  0.64768410653E+03  0.67791407726E+03  0.00000000000E+00 0. -1.
        -13    1    5    5    0    0  0.29860825544E+02  0.17888097346E+03  0.39074474547E+03  0.43078013845E+03  0.00000000000E+00 0.  1.
          3    1    6    6  503    0 -0.31725228109E+03  0.18492530977E+03  0.53760333637E+03  0.65104817589E+03  0.00000000000E+00 0. -1.
         -3    1    6    6    0  503 -0.69671039450E+02  0.91451086637E+02  0.12195358021E+03  0.16760080761E+03  0.00000000000E+00 0.  1.
<mgrwt>
<rscale>  0 0.77810189E+03</rscale>
<asrwt>0</asrwt>
<pdfrwt beam="1">  1        2 0.50351164E+00 0.77810189E+03</pdfrwt>
<pdfrwt beam="2">  1       -2 0.30285326E-01 0.77810189E+03</pdfrwt>
<totfact> 0.12458903E+01</totfact>
</mgrwt>
</event>
<event>
12    1  0.1338445E-007  0.8916942E+03  0.7818608E-02  0.9436024E-01
         -2   -1    0    0    0  501 -0.00000000000E+00  0.00000000000E+00  0.29119030600E+03  0.29119030600E+03  0.00000000000E+00 0. -1.
          2   -1    0    0  501    0  0.00000000000E+00 -0.00000000000E+00 -0.29991313194E+04  0.29991313194E+04  0.00000000000E+00 0.  1.
         23    2    1    2    0    0  0.39161025439E+03  0.71496921773E+03 -0.15430478152E+04  0.17474647680E+04  0.89983230997E+02 0.  0.
    5000000    2    1    2    0    0 -0.39161025439E+03 -0.71496921773E+03 -0.11648931982E+04  0.15428568574E+04  0.59907557580E+03 0.  0.
         23    2    4    4    0    0  0.39190929091E+02  0.43230197298E+02 -0.34447305602E+02  0.11219570764E+03  0.89423045507E+02 0.  0.
         23    2    4    4    0    0 -0.43080118348E+03 -0.75819941503E+03 -0.11304458926E+04  0.14306611498E+04  0.91800853262E+02 0.  0.
          4    1    3    3  502    0  0.38304035119E+03  0.68109082696E+03 -0.14357547652E+04  0.16346242293E+04  0.00000000000E+00 0. -1.
         -4    1    3    3    0  502  0.85699032012E+01  0.33878390773E+02 -0.10729305006E+03  0.11284053879E+03  0.00000000000E+00 0.  1.
         13    1    5    5    0    0  0.46515385239E+02 -0.58213023295E-01  0.12249244434E+02  0.48101231189E+02  0.00000000000E+00 0. -1.
        -13    1    5    5    0    0 -0.73244561482E+01  0.43288410321E+02 -0.46696550036E+02  0.64094476449E+02  0.00000000000E+00 0.  1.
          1    1    6    6  503    0 -0.81504718709E+02 -0.22383929915E+03 -0.29220028398E+03  0.37699874930E+03  0.00000000000E+00 0. -1.
         -1    1    6    6    0  503 -0.34929646477E+03 -0.53436011588E+03 -0.83824560864E+03  0.10536624005E+04  0.00000000000E+00 0.  1.
<mgrwt>
<rscale>  0 0.89169421E+03</rscale>
<asrwt>0</asrwt>
<pdfrwt beam="1">  1        2 0.46140482E+00 0.89169421E+03</pdfrwt>
<pdfrwt beam="2">  1       -2 0.44798509E-01 0.89169421E+03</pdfrwt>
<totfact> 0.85598775E+00</totfact>
</mgrwt>
</event>
<event>
12    1  0.1338445E-007  0.1298716E+04  0.7818608E-02  0.9030584E-01
          1   -1    0    0  501    0  0.00000000000E+00  0.00000000000E+00  0.21619626676E+04  0.21619626676E+04  0.00000000000E+00 0. -1.
         -1   -1    0    0    0  501 -0.00000000000E+00 -0.00000000000E+00 -0.81018545186E+03  0.81018545186E+03  0.00000000000E+00 0.  1.
         23    2    1    2    0    0  0.15474177631E+03 -0.12439736758E+04  0.65298627176E+03  0.14165311549E+04  0.93562376598E+02 0.  0.
    5000000    2    1    2    0    0 -0.15474177631E+03  0.12439736758E+04  0.69879094400E+03  0.15556169646E+04  0.60018316677E+03 0.  0.
         23    2    4    4    0    0 -0.40758989056E+02  0.12340578390E+02 -0.33693648494E+02  0.11551189343E+03  0.10195170676E+03 0.  0.
         23    2    4    4    0    0 -0.11398278725E+03  0.12316330974E+04  0.73248459250E+03  0.14401050711E+04  0.86352621807E+02 0.  0.
          2    1    3    3  502    0  0.11759682267E+03 -0.11487039898E+04  0.59531559804E+03  0.12991345312E+04  0.00000000000E+00 0. -1.
         -2    1    3    3    0  502  0.37144953637E+02 -0.95269685947E+02  0.57670673720E+02  0.11739662367E+03  0.00000000000E+00 0.  1.
         11    1    5    5    0    0 -0.65351482620E+02 -0.14738068350E+02 -0.18570650758E+01  0.67018472305E+02  0.00000000000E+00 0. -1.
        -11    1    5    5    0    0  0.24592493564E+02  0.27078646740E+02 -0.31836583418E+02  0.48493421128E+02  0.00000000000E+00 0.  1.
          3    1    6    6  503    0 -0.59662816989E+02  0.63495994712E+03  0.42773355021E+03  0.76791260971E+03  0.00000000000E+00 0. -1.
         -3    1    6    6    0  503 -0.54319970261E+02  0.59667315028E+03  0.30475104229E+03  0.67219246144E+03  0.00000000000E+00 0.  1.
<mgrwt>
<rscale>  0 0.12987160E+04</rscale>
<asrwt>0</asrwt>
<pdfrwt beam="1">  1        1 0.33260964E+00 0.12987160E+04</pdfrwt>
<pdfrwt beam="2">  1       -1 0.12464392E+00 0.12987160E+04</pdfrwt>
<totfact> 0.12691002E+00</totfact>
</mgrwt>
</event>
<event>
12    1  0.1338445E-007  0.4499863E+03  0.7818608E-02  0.1027726E+00
          1   -1    0    0  501    0  0.00000000000E+00  0.00000000000E+00  0.34157065604E+04  0.34157065604E+04  0.00000000000E+00 0. -1.
         -1   -1    0    0    0  501 -0.00000000000E+00 -0.00000000000E+00 -0.10992570536E+03  0.10992570536E+03  0.00000000000E+00 0.  1.
         23    2    1    2    0    0  0.18143610255E+03  0.19822386746E+03  0.18671030858E+03  0.33802923329E+03  0.84801310653E+02 0.  0.
    5000000    2    1    2    0    0 -0.18143610255E+03 -0.19822386746E+03  0.31190705465E+04  0.31876030325E+04  0.60000021490E+03 0.  0.
         23    2    4    4    0    0 -0.86499590498E+01  0.19235299011E+03  0.79701605699E+03  0.82483130665E+03  0.89652633664E+02 0.  0.
         23    2    4    4    0    0 -0.17278614350E+03 -0.39057685758E+03  0.23220544895E+04  0.23627717259E+04  0.91366532368E+02 0.  0.
          2    1    3    3  502    0  0.26612185137E+02  0.83314047640E+02  0.74885488098E+02  0.11514024170E+03  0.00000000000E+00 0. -1.
         -2    1    3    3    0  502  0.15482391741E+03  0.11490981982E+03  0.11182482048E+03  0.22288899159E+03  0.00000000000E+00 0.  1.
         13    1    5    5    0    0 -0.37130996342E+01  0.66275643009E+02  0.46381548106E+03  0.46854140525E+03  0.00000000000E+00 0. -1.
        -13    1    5    5    0    0 -0.49368594155E+01  0.12607734710E+03  0.33320057594E+03  0.35628990140E+03  0.00000000000E+00 0.  1.
          4    1    6    6  503    0 -0.62146211927E+02 -0.14914034602E+03  0.11298936717E+04  0.11413871840E+04  0.00000000000E+00 0. -1.
         -4    1    6    6    0  503 -0.11063993157E+03 -0.24143651156E+03  0.11921608179E+04  0.12213845419E+04  0.00000000000E+00 0.  1.
<mgrwt>
<rscale>  0 0.44998628E+03</rscale>
<asrwt>0</asrwt>
<pdfrwt beam="1">  1        1 0.52549324E+00 0.44998628E+03</pdfrwt>
<pdfrwt beam="2">  1       -1 0.16911650E-01 0.44998628E+03</pdfrwt>
<totfact> 0.90294284E+00</totfact>
</mgrwt>
</event>
<event>
12    1  0.1338445E-007  0.8426817E+03  0.7818608E-02  0.9500212E-01
         -2   -1    0    0    0  501 -0.00000000000E+00  0.00000000000E+00  0.40824073521E+04  0.40824073521E+04  0.00000000000E+00 0.  1.
          2   -1    0    0  501    0  0.00000000000E+00 -0.00000000000E+00 -0.17918994227E+03  0.17918994227E+03  0.00000000000E+00 0. -1.
         23    2    1    2    0    0 -0.74592635107E+03  0.19765661626E+02  0.16338972210E+04  0.17985288270E+04  0.91044000398E+02 0.  0.
    5000000    2    1    2    0    0  0.74592635107E+03 -0.19765661626E+02  0.22693201888E+04  0.24630684674E+04  0.60007945571E+03 0.  0.
         23    2    4    4    0    0  0.22499198604E+03 -0.27311060665E+03  0.10042855243E+04  0.10686774104E+04  0.90946115298E+02 0.  0.
         23    2    4    4    0    0  0.52093436502E+03  0.25334494503E+03  0.12650346645E+04  0.13943910570E+04  0.91964360764E+02 0.  0.
          2    1    3    3  502    0 -0.42522785103E+03 -0.75438690412E+01  0.83063178810E+03  0.93317994120E+03  0.00000000000E+00 0. -1.
         -2    1    3    3    0  502 -0.32069850003E+03  0.27309530667E+02  0.80326543292E+03  0.86534888578E+03  0.00000000000E+00 0.  1.
         11    1    5    5    0    0  0.86252830453E+02 -0.12430008202E+03  0.55903059608E+03  0.57914183798E+03  0.00000000000E+00 0. -1.
        -11    1    5    5    0    0  0.13873915559E+03 -0.14881052463E+03  0.44525492821E+03  0.48953557238E+03  0.00000000000E+00 0.  1.
          2    1    6    6  503    0  0.23836998062E+03  0.77512730090E+02  0.47390736608E+03  0.53611254659E+03  0.00000000000E+00 0.  1.
         -2    1    6    6    0  503  0.28256438440E+03  0.17583221494E+03  0.79112729845E+03  0.85827851044E+03  0.00000000000E+00 0. -1.
<mgrwt>
<rscale>  0 0.84268165E+03</rscale>
<asrwt>0</asrwt>
<pdfrwt beam="1">  1        2 0.27567686E-01 0.84268165E+03</pdfrwt>
<pdfrwt beam="2">  1       -2 0.62806260E+00 0.84268165E+03</pdfrwt>
<totfact> 0.78907900E-02</totfact>
</mgrwt>
</event>
<event>
12    1  0.1533737E-007  0.9354375E+03  0.7818608E-02  0.9382336E-01
          1   -1    0    0  501    0  0.00000000000E+00  0.00000000000E+00  0.12536190999E+04  0.12536190999E+04  0.00000000000E+00 0. -1.
         -1   -1    0    0    0  501 -0.00000000000E+00 -0.00000000000E+00 -0.12398929274E+04  0.12398929274E+04  0.00000000000E+00 0.  1.
         23    2    1    2    0    0 -0.90546077783E+03 -0.14781915754E+02  0.75154840006E+03  0.11805455843E+04  0.93729150762E+02 0.  0.
    5000000    2    1    2    0    0  0.90546077783E+03  0.14781915754E+02 -0.73782222759E+03  0.13129664430E+04  0.59951773585E+03 0.  0.
         23    2    4    4    0    0  0.15327217680E+03 -0.10900658271E+03  0.48005798489E+02  0.21492781278E+03  0.92274659367E+02 0.  0.
         23    2    4    4    0    0  0.75218860103E+03  0.12378849846E+03 -0.78582802608E+03  0.10980386302E+04  0.83975370988E+02 0.  0.
          3    1    3    3  502    0 -0.47163520101E+03  0.23625700907E+02  0.34574190104E+03  0.58526523792E+03  0.00000000000E+00 0. -1.
         -3    1    3    3    0  502 -0.43382557682E+03 -0.38407616660E+02  0.40580649902E+03  0.59528034636E+03  0.00000000000E+00 0.  1.
         11    1    5    5    0    0  0.12082696434E+03 -0.53187344148E+02 -0.39206040088E+01  0.13207354022E+03  0.00000000000E+00 0. -1.
        -11    1    5    5    0    0  0.32445212458E+02 -0.55819238562E+02  0.51926402498E+02  0.82854272560E+02  0.00000000000E+00 0.  1.
          1    1    6    6  503    0  0.57314411208E+03  0.12877647700E+03 -0.58755305229E+03  0.83084062461E+03  0.00000000000E+00 0.  1.
         -1    1    6    6    0  503  0.17904448895E+03 -0.49879785389E+01 -0.19827497379E+03  0.26719800558E+03  0.00000000000E+00 0. -1.
<mgrwt>
<rscale>  0 0.93543753E+03</rscale>
<asrwt>0</asrwt>
<pdfrwt beam="1">  1        1 0.19286448E+00 0.93543753E+03</pdfrwt>
<pdfrwt beam="2">  1       -1 0.19075276E+00 0.93543753E+03</pdfrwt>
<totfact> 0.17294305E+00</totfact>
</mgrwt>
</event>
<event>
12    1  0.1338445E-007  0.4219549E+03  0.7818608E-02  0.1036432E+00
         -1   -1    0    0    0  501 -0.00000000000E+00  0.00000000000E+00  0.48969068794E+03  0.48969068794E+03  0.00000000000E+00 0.  1.
          1   -1    0    0  501    0  0.00000000000E+00 -0.00000000000E+00 -0.14474969280E+04  0.14474969280E+04  0.00000000000E+00 0. -1.
         23    2    1    2    0    0  0.17072108951E+03  0.33050457797E+03  0.30571246550E+03  0.48979344138E+03  0.89769355549E+02 0.  0.
    5000000    2    1    2    0    0 -0.17072108951E+03 -0.33050457797E+03 -0.12635187056E+04  0.14473941746E+04  0.60007617081E+03 0.  0.
         23    2    4    4    0    0  0.31642990615E+02 -0.22143801556E+03 -0.11322345627E+03  0.27093691118E+03  0.10271896223E+03 0.  0.
         23    2    4    4    0    0 -0.20236408012E+03 -0.10906656241E+03 -0.11502952493E+04  0.11764572634E+04  0.89586807258E+02 0.  0.
          2    1    3    3  502    0  0.47916463661E+02  0.13322973036E+03  0.16788999693E+03  0.21962058102E+03  0.00000000000E+00 0. -1.
         -2    1    3    3    0  502  0.12280462585E+03  0.19727484761E+03  0.13782246857E+03  0.27017286036E+03  0.00000000000E+00 0.  1.
         11    1    5    5    0    0 -0.29277995341E+02 -0.98674586881E+02 -0.78810883469E+02  0.12963421794E+03  0.00000000000E+00 0. -1.
        -11    1    5    5    0    0  0.60920985957E+02 -0.12276342868E+03 -0.34412572798E+02  0.14130269324E+03  0.00000000000E+00 0.  1.
          2    1    6    6  503    0 -0.13128421513E+03 -0.74247427960E+02 -0.52704573694E+03  0.54820200157E+03  0.00000000000E+00 0. -1.
         -2    1    6    6    0  503 -0.71079864997E+02 -0.34819134448E+02 -0.62324951236E+03  0.62825526181E+03  0.00000000000E+00 0.  1.
<mgrwt>
<rscale>  0 0.42195490E+03</rscale>
<asrwt>0</asrwt>
<pdfrwt beam="1">  1        1 0.22269183E+00 0.42195490E+03</pdfrwt>
<pdfrwt beam="2">  1       -1 0.75337030E-01 0.42195490E+03</pdfrwt>
<totfact> 0.13896907E+01</totfact>
</mgrwt>
</event>
<event>
12    1  0.1338445E-007  0.2176534E+04  0.7818608E-02  0.8528259E-01
          2   -1    0    0  501    0  0.00000000000E+00  0.00000000000E+00  0.17098895170E+04  0.17098895170E+04  0.00000000000E+00 0. -1.
         -2   -1    0    0    0  501 -0.00000000000E+00 -0.00000000000E+00 -0.28246478359E+04  0.28246478359E+04  0.00000000000E+00 0.  1.
         23    2    1    2    0    0 -0.17194484876E+04 -0.12908688062E+04 -0.38570003334E+03  0.21862538914E+04  0.89978807065E+02 0.  0.
    5000000    2    1    2    0    0  0.17194484876E+04  0.12908688062E+04 -0.72905828565E+03  0.23482834615E+04  0.60005321037E+03 0.  0.
         23    2    4    4    0    0  0.87098875425E+03  0.93326361230E+03 -0.24086872714E+03  0.13021208166E+04  0.88873490081E+02 0.  0.
         23    2    4    4    0    0  0.84845973336E+03  0.35760519387E+03 -0.48818955851E+03  0.10461626449E+04  0.91443100751E+02 0.  0.
          3    1    3    3  502    0 -0.78519848974E+03 -0.57661704786E+03 -0.13049080613E+03  0.98287931032E+03  0.00000000000E+00 0. -1.
         -3    1    3    3    0  502 -0.93424999788E+03 -0.71425175830E+03 -0.25520922721E+03  0.12033745811E+04  0.00000000000E+00 0.  1.
         13    1    5    5    0    0  0.58065348238E+03  0.65795925658E+03 -0.13150236941E+03  0.88733405383E+03  0.00000000000E+00 0.  1.
        -13    1    5    5    0    0  0.29033527187E+03  0.27530435571E+03 -0.10936635772E+03  0.41478676277E+03  0.00000000000E+00 0. -1.
          3    1    6    6  503    0  0.11213208628E+03  0.82460493661E+02 -0.70543487198E+02  0.15604397257E+03  0.00000000000E+00 0. -1.
         -3    1    6    6    0  503  0.73632764708E+03  0.27514470021E+03 -0.41764607131E+03  0.89011867231E+03  0.00000000000E+00 0.  1.
<mgrwt>
<rscale>  0 0.21765338E+04</rscale>
<asrwt>0</asrwt>
<pdfrwt beam="1">  1        2 0.26305993E+00 0.21765338E+04</pdfrwt>
<pdfrwt beam="2">  1       -2 0.43456120E+00 0.21765338E+04</pdfrwt>
<totfact> 0.37141309E-02</totfact>
</mgrwt>
</event>
<event>
12    1  0.1338445E-007  0.3797179E+03  0.7818608E-02  0.1051038E+00
          2   -1    0    0  501    0  0.00000000000E+00  0.00000000000E+00  0.11598633958E+04  0.11598633958E+04  0.00000000000E+00 0. -1.
         -2   -1    0    0    0  501 -0.00000000000E+00 -0.00000000000E+00 -0.15508099975E+03  0.15508099975E+03  0.00000000000E+00 0.  1.
         23    2    1    2    0    0 -0.93014139569E+02 -0.17090868232E+03  0.30594770697E+03  0.37360874393E+03  0.90100423371E+02 0.  0.
    5000000    2    1    2    0    0  0.93014139569E+02  0.17090868232E+03  0.69883468909E+03  0.94133565162E+03  0.59990122394E+03 0.  0.
         23    2    4    4    0    0  0.30933043854E+03  0.11944888417E+03  0.57841069614E+03  0.67262120908E+03  0.88921321202E+02 0.  0.
         23    2    4    4    0    0 -0.21631629897E+03  0.51459798153E+02  0.12042399295E+03  0.26871444254E+03  0.90910183841E+02 0.  0.
          4    1    3    3  502    0 -0.10786037121E+02 -0.41615218807E+02  0.14563065087E+03  0.15184350992E+03  0.00000000000E+00 0. -1.
         -4    1    3    3    0  502 -0.82228102448E+02 -0.12929346351E+03  0.16031705610E+03  0.22176523401E+03  0.00000000000E+00 0.  1.
         11    1    5    5    0    0  0.65758715942E+02  0.22207530416E+02  0.60425203689E+02  0.92024933417E+02  0.00000000000E+00 0. -1.
        -11    1    5    5    0    0  0.24357172259E+03  0.97241353749E+02  0.51798549245E+03  0.58059627566E+03  0.00000000000E+00 0.  1.
          4    1    6    6  503    0 -0.69761861765E+02  0.48496313765E+02  0.79903269589E+02  0.11663250960E+03  0.00000000000E+00 0. -1.
         -4    1    6    6    0  503 -0.14655443720E+03  0.29634843882E+01  0.40520723363E+02  0.15208193293E+03  0.00000000000E+00 0.  1.
<mgrwt>
<rscale>  0 0.37971795E+03</rscale>
<asrwt>0</asrwt>
<pdfrwt beam="1">  1        2 0.17844052E+00 0.37971795E+03</pdfrwt>
<pdfrwt beam="2">  1       -2 0.23858616E-01 0.37971795E+03</pdfrwt>
<totfact> 0.32371589E+02</totfact>
</mgrwt>
</event>
<event>
12    1  0.1338445E-007  0.7698443E+03  0.7818608E-02  0.9604722E-01
          2   -1    0    0  501    0  0.00000000000E+00  0.00000000000E+00  0.19633406472E+04  0.19633406472E+04  0.00000000000E+00 0. -1.
         -2   -1    0    0    0  501 -0.00000000000E+00 -0.00000000000E+00 -0.37846909421E+03  0.37846909421E+03  0.00000000000E+00 0.  1.
         23    2    1    2    0    0  0.70048768760E+03  0.28000950371E+03  0.69401308614E+03  0.10292328194E+04  0.92615928232E+02 0.  0.
    5000000    2    1    2    0    0 -0.70048768760E+03 -0.28000950371E+03  0.89085846685E+03  0.13125769220E+04  0.60011752643E+03 0.  0.
         23    2    4    4    0    0 -0.13848764192E+03 -0.27762376495E+02 -0.58210530725E+02  0.17742366066E+03  0.90228116253E+02 0.  0.
         23    2    4    4    0    0 -0.56200004568E+03 -0.25224712721E+03  0.94906899757E+03  0.11351532613E+04  0.91478412816E+02 0.  0.
          3    1    3    3  502    0  0.23485845533E+03  0.52867502478E+02  0.24784537726E+03  0.34551526433E+03  0.00000000000E+00 0. -1.
         -3    1    3    3    0  502  0.46562923228E+03  0.22714200123E+03  0.44616770888E+03  0.68371755508E+03  0.00000000000E+00 0.  1.
         13    1    5    5    0    0 -0.13468316220E+03  0.21582436749E+01 -0.59450953841E+02  0.14723663983E+03  0.00000000000E+00 0.  1.
        -13    1    5    5    0    0 -0.38044797210E+01 -0.29920620170E+02  0.12404231164E+01  0.30187020833E+02  0.00000000000E+00 0. -1.
          1    1    6    6  503    0 -0.31465138142E+03 -0.14164470309E+03  0.44761815799E+03  0.56518203183E+03  0.00000000000E+00 0. -1.
         -1    1    6    6    0  503 -0.24734866427E+03 -0.11060242413E+03  0.50145083958E+03  0.56997122950E+03  0.00000000000E+00 0.  1.
<mgrwt>
<rscale>  0 0.76984426E+03</rscale>
<asrwt>0</asrwt>
<pdfrwt beam="1">  1        2 0.30205240E+00 0.76984426E+03</pdfrwt>
<pdfrwt beam="2">  1       -2 0.58226016E-01 0.76984426E+03</pdfrwt>
<totfact> 0.19910571E+01</totfact>
</mgrwt>
</event>
<event>
12    1  0.1338445E-007  0.5344797E+03  0.7818608E-02  0.1005151E+00
          2   -1    0    0  501    0  0.00000000000E+00  0.00000000000E+00  0.86479535593E+03  0.86479535593E+03  0.00000000000E+00 0.  1.
         -2   -1    0    0    0  501 -0.00000000000E+00 -0.00000000000E+00 -0.46586563087E+03  0.46586563087E+03  0.00000000000E+00 0. -1.
         23    2    1    2    0    0 -0.30284206524E+03 -0.23941397627E+03  0.46350592550E+03  0.61410741899E+03  0.11514256629E+03 0.  0.
    5000000    2    1    2    0    0  0.30284206524E+03  0.23941397627E+03 -0.64576200430E+02  0.71655356781E+03  0.60020543264E+03 0.  0.
         23    2    4    4    0    0 -0.63399513478E+02  0.26640615516E+03  0.94337270111E+02  0.30366810028E+03  0.91230788534E+02 0.  0.
         23    2    4    4    0    0  0.36624157872E+03 -0.26992178891E+02 -0.15891347054E+03  0.41288546753E+03  0.10178136606E+03 0.  0.
          3    1    3    3  502    0 -0.21176639750E+03 -0.97816474758E+02  0.29262099245E+03  0.37421934086E+03  0.00000000000E+00 0.  1.
         -3    1    3    3    0  502 -0.91075667734E+02 -0.14159750151E+03  0.17088493304E+03  0.23988807813E+03  0.00000000000E+00 0. -1.
         11    1    5    5    0    0 -0.60712832263E+02  0.27276414188E+03  0.97652734887E+02  0.29601077975E+03  0.00000000000E+00 0. -1.
        -11    1    5    5    0    0 -0.26866812149E+01 -0.63579867154E+01 -0.33154647757E+01  0.76573205302E+01  0.00000000000E+00 0.  1.
          4    1    6    6  503    0  0.35505183296E+03 -0.36088422243E+01 -0.14586424024E+03  0.38386352316E+03  0.00000000000E+00 0. -1.
         -4    1    6    6    0  503  0.11189745756E+02 -0.23383336667E+02 -0.13049230301E+02  0.29021944373E+02  0.00000000000E+00 0.  1.
<mgrwt>
<rscale>  0 0.53447966E+03</rscale>
<asrwt>0</asrwt>
<pdfrwt beam="1">  1        2 0.13304544E+00 0.53447966E+03</pdfrwt>
<pdfrwt beam="2">  1       -2 0.71671636E-01 0.53447966E+03</pdfrwt>
<totfact> 0.56613746E+01</totfact>
</mgrwt>
</event>
<event>
12    1  0.1338445E-007  0.5260923E+03  0.7818608E-02  0.1007184E+00
         -1   -1    0    0    0  501 -0.00000000000E+00  0.00000000000E+00  0.30346522223E+03  0.30346522223E+03  0.00000000000E+00 0.  1.
          1   -1    0    0  501    0  0.00000000000E+00 -0.00000000000E+00 -0.10594294679E+04  0.10594294679E+04  0.00000000000E+00 0. -1.
         23    2    1    2    0    0  0.38965224156E+03 -0.67048087079E+02 -0.35919192295E+03  0.54200633543E+03  0.91802586071E+02 0.  0.
    5000000    2    1    2    0    0 -0.38965224156E+03  0.67048087079E+02 -0.39677232276E+03  0.82088835473E+03  0.60008757652E+03 0.  0.
         23    2    4    4    0    0 -0.49383754194E+03  0.12362572570E+03 -0.42134558586E+03  0.66720145879E+03  0.92015466087E+02 0.  0.
         23    2    4    4    0    0  0.10418530039E+03 -0.56577638622E+02  0.24573263108E+02  0.15368689594E+03  0.94658389560E+02 0.  0.
          4    1    3    3  502    0  0.21235216878E+03 -0.61438439069E+02 -0.24993707304E+03  0.33367149393E+03  0.00000000000E+00 0.  1.
         -4    1    3    3    0  502  0.17730007277E+03 -0.56096480095E+01 -0.10925484991E+03  0.20833484151E+03  0.00000000000E+00 0. -1.
         11    1    5    5    0    0 -0.28150083547E+03  0.45929041642E+02 -0.18415177484E+03  0.33950563090E+03  0.00000000000E+00 0. -1.
        -11    1    5    5    0    0 -0.21233670648E+03  0.77696684059E+02 -0.23719381102E+03  0.32769582789E+03  0.00000000000E+00 0.  1.
          1    1    6    6  503    0  0.60548176510E+02  0.11415110993E+02  0.37112255448E+02  0.71928477963E+02  0.00000000000E+00 0. -1.
         -1    1    6    6    0  503  0.43637123878E+02 -0.67992749616E+02 -0.12538992340E+02  0.81758417974E+02  0.00000000000E+00 0.  1.
<mgrwt>
<rscale>  0 0.52609230E+03</rscale>
<asrwt>0</asrwt>
<pdfrwt beam="1">  1        1 0.16298915E+00 0.52609230E+03</pdfrwt>
<pdfrwt beam="2">  1       -1 0.46686958E-01 0.52609230E+03</pdfrwt>
<totfact> 0.65234430E+01</totfact>
</mgrwt>
</event>
<event>
12    1  0.1338445E-007  0.1544539E+04  0.7818608E-02  0.8855363E-01
         -1   -1    0    0    0  501 -0.00000000000E+00  0.00000000000E+00  0.80461748192E+03  0.80461748192E+03  0.00000000000E+00 0.  1.
          1   -1    0    0  501    0  0.00000000000E+00 -0.00000000000E+00 -0.29936013108E+04  0.29936013108E+04  0.00000000000E+00 0. -1.
         23    2    1    2    0    0 -0.42834304981E+03 -0.14294726406E+04 -0.10872343864E+04  0.18486257880E+04  0.92026597913E+02 0.  0.
    5000000    2    1    2    0    0  0.42834304981E+03  0.14294726406E+04 -0.11017494425E+04  0.19495930047E+04  0.60015935514E+03 0.  0.
         23    2    4    4    0    0  0.18009739843E+03  0.12977952914E+04 -0.89963112491E+03  0.15918352647E+04  0.88857513890E+02 0.  0.
         23    2    4    4    0    0  0.24824565138E+03  0.13167734917E+03 -0.20211831759E+03  0.35775774002E+03  0.90409947019E+02 0.  0.
          4    1    3    3  502    0 -0.71375952559E+02 -0.25883116287E+03 -0.24003259747E+03  0.36014406191E+03  0.00000000000E+00 0. -1.
         -4    1    3    3    0  502 -0.35696709725E+03 -0.11706414777E+04 -0.84720178891E+03  0.14884817261E+04  0.00000000000E+00 0.  1.
         13    1    5    5    0    0  0.13106020186E+03  0.10069461760E+04 -0.73986480677E+03  0.12563905882E+04  0.00000000000E+00 0. -1.
        -13    1    5    5    0    0  0.49037196564E+02  0.29084911537E+03 -0.15976631814E+03  0.33544467647E+03  0.00000000000E+00 0.  1.
          2    1    6    6  503    0  0.12496419197E+03  0.35304700012E+02 -0.13553019551E+03  0.18769897445E+03  0.00000000000E+00 0. -1.
         -2    1    6    6    0  503  0.12328145941E+03  0.96372649163E+02 -0.66588122087E+02  0.17005876556E+03  0.00000000000E+00 0.  1.
<mgrwt>
<rscale>  0 0.15445394E+04</rscale>
<asrwt>0</asrwt>
<pdfrwt beam="1">  1        1 0.46055405E+00 0.15445394E+04</pdfrwt>
<pdfrwt beam="2">  1       -1 0.12378730E+00 0.15445394E+04</pdfrwt>
<totfact> 0.32923754E-01</totfact>
</mgrwt>
</event>
<event>
12    1  0.1338445E-007  0.1499171E+04  0.7818608E-02  0.8885005E-01
         -1   -1    0    0    0  501 -0.00000000000E+00  0.00000000000E+00  0.19675957679E+04  0.19675957679E+04  0.00000000000E+00 0.  1.
          1   -1    0    0  501    0  0.00000000000E+00 -0.00000000000E+00 -0.12204945411E+04  0.12204945411E+04  0.00000000000E+00 0. -1.
         23    2    1    2    0    0  0.14841913326E+04 -0.41193084675E+02  0.48992571925E+03  0.15661709565E+04  0.91342611203E+02 0.  0.
    5000000    2    1    2    0    0 -0.14841913326E+04  0.41193084675E+02  0.25717550759E+03  0.16219193525E+04  0.59996863450E+03 0.  0.
         23    2    4    4    0    0 -0.79524906859E+03 -0.10352912048E+03  0.39598371899E+03  0.89899875045E+03  0.90864116878E+02 0.  0.
         23    2    4    4    0    0 -0.68894226402E+03  0.14472220515E+03 -0.13880821139E+03  0.72292060208E+03  0.88093799672E+02 0.  0.
          3    1    3    3  502    0  0.93745876316E+03 -0.21850049567E+01  0.34803427051E+03  0.99998077998E+03  0.00000000000E+00 0. -1.
         -3    1    3    3    0  502  0.54673256945E+03 -0.39008079718E+02  0.14189144874E+03  0.56619017653E+03  0.00000000000E+00 0.  1.
         13    1    5    5    0    0 -0.38989508892E+03 -0.88122871529E+02  0.22582619527E+03  0.45910923681E+03  0.00000000000E+00 0.  1.
        -13    1    5    5    0    0 -0.40535397966E+03 -0.15406248949E+02  0.17015752372E+03  0.43988951364E+03  0.00000000000E+00 0. -1.
          3    1    6    6  503    0 -0.26121122079E+03  0.20688488756E+02 -0.24752301320E+02  0.26319572917E+03  0.00000000000E+00 0. -1.
         -3    1    6    6    0  503 -0.42773104323E+03  0.12403371640E+03 -0.11405591007E+03  0.45972487291E+03  0.00000000000E+00 0.  1.
<mgrwt>
<rscale>  0 0.14991705E+04</rscale>
<asrwt>0</asrwt>
<pdfrwt beam="1">  1        1 0.18776839E+00 0.14991705E+04</pdfrwt>
<pdfrwt beam="2">  1       -1 0.30270704E+00 0.14991705E+04</pdfrwt>
<totfact> 0.31058136E-01</totfact>
</mgrwt>
</event>
<event>
12    1  0.1338445E-007  0.6698694E+03  0.7818608E-02  0.9770194E-01
         -2   -1    0    0    0  501 -0.00000000000E+00  0.00000000000E+00  0.32657482003E+03  0.32657482003E+03  0.00000000000E+00 0.  1.
          2   -1    0    0  501    0  0.00000000000E+00 -0.00000000000E+00 -0.19975888419E+04  0.19975888419E+04  0.00000000000E+00 0. -1.
         23    2    1    2    0    0 -0.36794943838E+03  0.53717267827E+03 -0.10647070343E+04  0.12513295713E+04  0.91012919886E+02 0.  0.
    5000000    2    1    2    0    0  0.36794943838E+03 -0.53717267827E+03 -0.60630698763E+03  0.10728340907E+04  0.59951943041E+03 0.  0.
         23    2    4    4    0    0  0.33900862638E+03 -0.47813521779E+03 -0.16241012073E+03  0.61579664475E+03  0.96375957194E+02 0.  0.
         23    2    4    4    0    0  0.28940812002E+02 -0.59037460481E+02 -0.44389686690E+03  0.45703744595E+03  0.86693749572E+02 0.  0.
          3    1    3    3  502    0 -0.18525442500E+03  0.30625073255E+03 -0.50621950346E+03  0.61997330495E+03  0.00000000000E+00 0.  1.
         -3    1    3    3    0  502 -0.18269501338E+03  0.23092194572E+03 -0.55848753082E+03  0.63135626631E+03  0.00000000000E+00 0. -1.
         11    1    5    5    0    0  0.12825960360E+02 -0.21332943029E+02  0.12522166780E+02  0.27864033776E+02  0.00000000000E+00 0.  1.
        -11    1    5    5    0    0  0.32618266602E+03 -0.45680227476E+03 -0.17493228751E+03  0.58793261098E+03  0.00000000000E+00 0. -1.
          4    1    6    6  503    0  0.48691301000E+02 -0.64367446720E+02 -0.26618120461E+03  0.27814824227E+03  0.00000000000E+00 0. -1.
         -4    1    6    6    0  503 -0.19750488998E+02  0.53299862391E+01 -0.17771566229E+03  0.17888920368E+03  0.00000000000E+00 0.  1.
<mgrwt>
<rscale>  0 0.66986943E+03</rscale>
<asrwt>0</asrwt>
<pdfrwt beam="1">  1        2 0.30732136E+00 0.66986943E+03</pdfrwt>
<pdfrwt beam="2">  1       -2 0.50242280E-01 0.66986943E+03</pdfrwt>
<totfact> 0.26238550E+01</totfact>
</mgrwt>
</event>
<event>
12    1  0.1338445E-007  0.7897375E+03  0.7818608E-02  0.9574992E-01
          1   -1    0    0  501    0  0.00000000000E+00  0.00000000000E+00  0.48864962899E+03  0.48864962899E+03  0.00000000000E+00 0. -1.
         -1   -1    0    0    0  501 -0.00000000000E+00 -0.00000000000E+00 -0.19638405325E+04  0.19638405325E+04  0.00000000000E+00 0.  1.
         23    2    1    2    0    0 -0.17577818790E+03 -0.70078803270E+03 -0.13101526873E+04  0.14989409269E+04  0.91224997272E+02 0.  0.
    5000000    2    1    2    0    0  0.17577818790E+03  0.70078803270E+03 -0.16503821621E+03  0.95354923460E+03  0.60001390975E+03 0.  0.
         23    2    4    4    0    0  0.32355287655E+03  0.48998177444E+03  0.63158520080E+02  0.59773396703E+03  0.92348760001E+02 0.  0.
         23    2    4    4    0    0 -0.14777468866E+03  0.21080625826E+03 -0.22819673629E+03  0.35581526758E+03  0.90852171461E+02 0.  0.
          3    1    3    3  502    0 -0.18496757911E+03 -0.62954887000E+03 -0.11921263146E+04  0.13607754903E+04  0.00000000000E+00 0. -1.
         -3    1    3    3    0  502  0.91893912154E+01 -0.71239162691E+02 -0.11802637268E+03  0.13816543656E+03  0.00000000000E+00 0.  1.
         13    1    5    5    0    0  0.13667047282E+03  0.13664593391E+03  0.13441464264E+01  0.19326855959E+03  0.00000000000E+00 0.  1.
        -13    1    5    5    0    0  0.18688240373E+03  0.35333584053E+03  0.61814373653E+02  0.40446540744E+03  0.00000000000E+00 0. -1.
          3    1    6    6  503    0 -0.92634746225E+02  0.11187588940E+03 -0.69953807477E+02  0.16121707732E+03  0.00000000000E+00 0. -1.
         -3    1    6    6    0  503 -0.55139942430E+02  0.98930368853E+02 -0.15824292881E+03  0.19459819026E+03  0.00000000000E+00 0.  1.
<mgrwt>
<rscale>  0 0.78973749E+03</rscale>
<asrwt>0</asrwt>
<pdfrwt beam="1">  1        1 0.75176866E-01 0.78973749E+03</pdfrwt>
<pdfrwt beam="2">  1       -1 0.30212931E+00 0.78973749E+03</pdfrwt>
<totfact> 0.15315965E+00</totfact>
</mgrwt>
</event>
<event>
12    1  0.1338445E-007  0.9664534E+03  0.7818608E-02  0.9346123E-01
         -1   -1    0    0    0  501 -0.00000000000E+00  0.00000000000E+00  0.71969092676E+03  0.71969092676E+03  0.00000000000E+00 0.  1.
          1   -1    0    0  501    0  0.00000000000E+00 -0.00000000000E+00 -0.16513394351E+04  0.16513394351E+04  0.00000000000E+00 0. -1.
         23    2    1    2    0    0  0.82004997135E+03 -0.32350626089E+03 -0.95732799983E+03  0.13043743914E+04  0.88189553652E+02 0.  0.
    5000000    2    1    2    0    0 -0.82004997135E+03  0.32350626089E+03  0.25679491487E+02  0.10666559705E+04  0.59996438785E+03 0.  0.
         23    2    4    4    0    0 -0.58827928098E+03  0.48103846082E+03  0.70191448445E+02  0.76880423481E+03  0.93073083229E+02 0.  0.
         23    2    4    4    0    0 -0.23177069037E+03 -0.15753219992E+03 -0.44511956958E+02  0.29785173565E+03  0.90555481261E+02 0.  0.
          1    1    3    3  502    0  0.22147581752E+03 -0.51050795487E+02 -0.21923608530E+03  0.31578819257E+03  0.00000000000E+00 0. -1.
         -1    1    3    3    0  502  0.59857415383E+03 -0.27245546540E+03 -0.73809191453E+03  0.98858619885E+03  0.00000000000E+00 0.  1.
         13    1    5    5    0    0 -0.24226936485E+03  0.14922925816E+03  0.50621694401E+02  0.28900929497E+03  0.00000000000E+00 0. -1.
        -13    1    5    5    0    0 -0.34600991613E+03  0.33180920266E+03  0.19569754044E+02  0.47979493985E+03  0.00000000000E+00 0.  1.
          3    1    6    6  503    0 -0.88282024216E+02 -0.87713340089E+02 -0.58799774388E+02  0.13763996257E+03  0.00000000000E+00 0. -1.
         -3    1    6    6    0  503 -0.14348866616E+03 -0.69818859836E+02  0.14287817430E+02  0.16021177307E+03  0.00000000000E+00 0.  1.
<mgrwt>
<rscale>  0 0.96645340E+03</rscale>
<asrwt>0</asrwt>
<pdfrwt beam="1">  1        1 0.25405222E+00 0.96645340E+03</pdfrwt>
<pdfrwt beam="2">  1       -1 0.11072168E+00 0.96645340E+03</pdfrwt>
<totfact> 0.39106453E+00</totfact>
</mgrwt>
</event>
<event>
12    1  0.1338445E-007  0.1898244E+04  0.7818608E-02  0.8655731E-01
         -2   -1    0    0    0  501 -0.00000000000E+00  0.00000000000E+00  0.14105755683E+04  0.14105755683E+04  0.00000000000E+00 0.  1.
          2   -1    0    0  501    0  0.00000000000E+00 -0.00000000000E+00 -0.26650180006E+04  0.26650180006E+04  0.00000000000E+00 0. -1.
         23    2    1    2    0    0  0.51276224676E+03 -0.18204961099E+04 -0.61195040247E+03  0.19899630492E+04  0.91315027856E+02 0.  0.
    5000000    2    1    2    0    0 -0.51276224676E+03  0.18204961099E+04 -0.64249202983E+03  0.20856305196E+04  0.59993953723E+03 0.  0.
         23    2    4    4    0    0 -0.10339478556E+03  0.72321488016E+03  0.20946036869E+02  0.73646702758E+03  0.90634991450E+02 0.  0.
         23    2    4    4    0    0 -0.40936746120E+03  0.10972812297E+04 -0.66343806670E+03  0.13491634921E+04  0.92109959459E+02 0.  0.
          2    1    3    3  502    0  0.36302239598E+03 -0.13200669128E+04 -0.48463092014E+03  0.14523185060E+04  0.00000000000E+00 0. -1.
         -2    1    3    3    0  502  0.14973985078E+03 -0.50042919711E+03 -0.12731948233E+03  0.53764454318E+03  0.00000000000E+00 0.  1.
         13    1    5    5    0    0 -0.10231745656E+03  0.57644648500E+03 -0.13873752290E+02  0.58562094651E+03  0.00000000000E+00 0. -1.
        -13    1    5    5    0    0 -0.10773290015E+01  0.14676839516E+03  0.34819789159E+02  0.15084608107E+03  0.00000000000E+00 0.  1.
          1    1    6    6  503    0 -0.31493283299E+03  0.76220437736E+03 -0.50147242419E+03  0.96520090882E+03  0.00000000000E+00 0. -1.
         -1    1    6    6    0  503 -0.94434628209E+02  0.33507685234E+03 -0.16196564252E+03  0.38396258325E+03  0.00000000000E+00 0.  1.
<mgrwt>
<rscale>  0 0.18982444E+04</rscale>
<asrwt>0</asrwt>
<pdfrwt beam="1">  1        2 0.41000276E+00 0.18982444E+04</pdfrwt>
<pdfrwt beam="2">  1       -2 0.21701163E+00 0.18982444E+04</pdfrwt>
<totfact> 0.25913787E-01</totfact>
</mgrwt>
</event>
<event>
12    1  0.1338445E-007  0.1706447E+04  0.7818608E-02  0.8757696E-01
         -1   -1    0    0    0  501 -0.00000000000E+00  0.00000000000E+00  0.16003505363E+04  0.16003505363E+04  0.00000000000E+00 0.  1.
          1   -1    0    0  501    0  0.00000000000E+00 -0.00000000000E+00 -0.18709425994E+04  0.18709425994E+04  0.00000000000E+00 0. -1.
         23    2    1    2    0    0  0.84770966854E+02  0.16626054493E+04 -0.33497849311E+03  0.17005331581E+04  0.90329585418E+02 0.  0.
    5000000    2    1    2    0    0 -0.84770966854E+02 -0.16626054493E+04  0.64386429998E+02  0.17707599776E+04  0.60000190734E+03 0.  0.
         23    2    4    4    0    0  0.12560017893E+03 -0.11032116610E+03 -0.47560150242E+02  0.19758476335E+03  0.93976625712E+02 0.  0.
         23    2    4    4    0    0 -0.21037114579E+03 -0.15522842832E+04  0.11194658024E+03  0.15731752142E+04  0.92226367399E+02 0.  0.
          1    1    3    3  502    0  0.11765923220E+02  0.77642961413E+03 -0.19236592992E+03  0.79999127098E+03  0.00000000000E+00 0. -1.
         -1    1    3    3    0  502  0.73005043634E+02  0.88617583519E+03 -0.14261256319E+03  0.90054188712E+03  0.00000000000E+00 0.  1.
         13    1    5    5    0    0  0.65336738922E+02 -0.14339001871E+02 -0.51131862567E+02  0.84195984448E+02  0.00000000000E+00 0.  1.
        -13    1    5    5    0    0  0.60263440010E+02 -0.95982164233E+02  0.35717123255E+01  0.11338877891E+03  0.00000000000E+00 0. -1.
          1    1    6    6  503    0 -0.15115590664E+03 -0.97321127196E+03  0.29945749630E+02  0.98533498664E+03  0.00000000000E+00 0. -1.
         -1    1    6    6    0  503 -0.59215239148E+02 -0.57907301127E+03  0.82000830610E+02  0.58784022757E+03  0.00000000000E+00 0.  1.
<mgrwt>
<rscale>  0 0.17064467E+04</rscale>
<asrwt>0</asrwt>
<pdfrwt beam="1">  1        1 0.28783732E+00 0.17064467E+04</pdfrwt>
<pdfrwt beam="2">  1       -1 0.24620777E+00 0.17064467E+04</pdfrwt>
<totfact> 0.24838630E-01</totfact>
</mgrwt>
</event>
<event>
12    1  0.1338445E-007  0.1268904E+04  0.7818608E-02  0.9054594E-01
         -2   -1    0    0    0  501 -0.00000000000E+00  0.00000000000E+00  0.21328275699E+04  0.21328275699E+04  0.00000000000E+00 0.  1.
          2   -1    0    0  501    0  0.00000000000E+00 -0.00000000000E+00 -0.86206191552E+03  0.86206191552E+03  0.00000000000E+00 0. -1.
         23    2    1    2    0    0 -0.10129394354E+04  0.67884886477E+03  0.10622096101E+04  0.16196891584E+04  0.90673220825E+02 0.  0.
    5000000    2    1    2    0    0  0.10129394354E+04 -0.67884886477E+03  0.20855604427E+03  0.13752003270E+04  0.60066482739E+03 0.  0.
         23    2    4    4    0    0  0.10395705778E+04 -0.70409996495E+03  0.20815648894E+03  0.12757860217E+04  0.88527410200E+02 0.  0.
         23    2    4    4    0    0 -0.26631142385E+02  0.25251100175E+02  0.39955533262E+00  0.99414305358E+02  0.92391604925E+02 0.  0.
          1    1    3    3  502    0 -0.41403654374E+03  0.30597489060E+03  0.39809969081E+03  0.65079202289E+03  0.00000000000E+00 0. -1.
         -1    1    3    3    0  502 -0.59890289168E+03  0.37287397417E+03  0.66410991933E+03  0.96889713553E+03  0.00000000000E+00 0.  1.
         13    1    5    5    0    0  0.83777945682E+03 -0.60820320129E+03  0.17176673605E+03  0.10494233483E+04  0.00000000000E+00 0. -1.
        -13    1    5    5    0    0  0.20179112099E+03 -0.95896763651E+02  0.36389752885E+02  0.22636267339E+03  0.00000000000E+00 0.  1.
          2    1    6    6  503    0 -0.33005266418E+02  0.25762898549E+00 -0.39766370956E+02  0.51679572784E+02  0.00000000000E+00 0. -1.
         -2    1    6    6    0  503  0.63741240333E+01  0.24993471189E+02  0.40165926289E+02  0.47734732574E+02  0.00000000000E+00 0.  1.
<mgrwt>
<rscale>  0 0.12689043E+04</rscale>
<asrwt>0</asrwt>
<pdfrwt beam="1">  1        2 0.13262491E+00 0.12689043E+04</pdfrwt>
<pdfrwt beam="2">  1       -2 0.32812732E+00 0.12689043E+04</pdfrwt>
<totfact> 0.64685529E-01</totfact>
</mgrwt>
</event>
<event>
12    1  0.1338445E-007  0.2779718E+03  0.7818608E-02  0.1096802E+00
         -1   -1    0    0    0  501 -0.00000000000E+00  0.00000000000E+00  0.17467340531E+03  0.17467340531E+03  0.00000000000E+00 0.  1.
          1   -1    0    0  501    0  0.00000000000E+00 -0.00000000000E+00 -0.17559999449E+04  0.17559999449E+04  0.00000000000E+00 0. -1.
         23    2    1    2    0    0 -0.39516436531E+02  0.10010725977E+03 -0.12077393473E+04  0.12159394354E+04  0.91056945065E+02 0.  0.
    5000000    2    1    2    0    0  0.39516436531E+02 -0.10010725977E+03 -0.37358719220E+03  0.71473391475E+03  0.59974508461E+03 0.  0.
         23    2    4    4    0    0 -0.17805113621E+03 -0.36207615585E+02 -0.41960169395E+03  0.46640630280E+03  0.91956833304E+02 0.  0.
         23    2    4    4    0    0  0.21756757274E+03 -0.63899644182E+02  0.46014501752E+02  0.24832761195E+03  0.90169037106E+02 0.  0.
          4    1    3    3  502    0 -0.46648550978E+02  0.16832144681E+02 -0.27275189147E+03  0.27722374123E+03  0.00000000000E+00 0. -1.
         -4    1    3    3    0  502  0.71321144474E+01  0.83275115086E+02 -0.93498745587E+03  0.93871569417E+03  0.00000000000E+00 0.  1.
         13    1    5    5    0    0 -0.78828027383E+02 -0.13502158892E+02 -0.85196776871E+02  0.11685314281E+03  0.00000000000E+00 0.  1.
        -13    1    5    5    0    0 -0.99223108827E+02 -0.22705456693E+02 -0.33440491708E+03  0.34955315999E+03  0.00000000000E+00 0. -1.
          1    1    6    6  503    0  0.15392897778E+03 -0.45616280630E+01  0.10519413162E+02  0.15435542330E+03  0.00000000000E+00 0. -1.
         -1    1    6    6    0  503  0.63638594966E+02 -0.59338016119E+02  0.35495088590E+02  0.93972188653E+02  0.00000000000E+00 0.  1.
<mgrwt>
<rscale>  0 0.27797179E+03</rscale>
<asrwt>0</asrwt>
<pdfrwt beam="1">  1        1 0.27015384E+00 0.27797179E+03</pdfrwt>
<pdfrwt beam="2">  1       -1 0.26872831E-01 0.27797179E+03</pdfrwt>
<totfact> 0.60410444E+01</totfact>
</mgrwt>
</event>
<event>
12    1  0.1338445E-007  0.3785345E+03  0.7818608E-02  0.1051477E+00
          1   -1    0    0  501    0  0.00000000000E+00  0.00000000000E+00  0.94959185132E+03  0.94959185132E+03  0.00000000000E+00 0. -1.
         -1   -1    0    0    0  501 -0.00000000000E+00 -0.00000000000E+00 -0.20012380927E+03  0.20012380927E+03  0.00000000000E+00 0.  1.
         23    2    1    2    0    0 -0.18974895742E+03 -0.13816748614E+02  0.77401256366E+02  0.22898301311E+03  0.10122596713E+03 0.  0.
    5000000    2    1    2    0    0  0.18974895742E+03  0.13816748614E+02  0.67206678568E+03  0.92073264748E+03  0.59989938685E+03 0.  0.
         23    2    4    4    0    0  0.34623815587E+03 -0.59628665908E+02  0.61997695366E+03  0.71857511639E+03  0.92424761000E+02 0.  0.
         23    2    4    4    0    0 -0.15648919845E+03  0.73445414521E+02  0.52089832023E+02  0.20215753110E+03  0.90946240355E+02 0.  0.
          1    1    3    3  502    0 -0.10631913979E+03  0.30177804721E+02  0.59924303960E+01  0.11068138328E+03  0.00000000000E+00 0. -1.
         -1    1    3    3    0  502 -0.83429817635E+02 -0.43994553335E+02  0.71408825970E+02  0.11830162983E+03  0.00000000000E+00 0.  1.
         11    1    5    5    0    0  0.25784310132E+03 -0.24191179993E+01  0.43102024365E+03  0.50226224969E+03  0.00000000000E+00 0. -1.
        -11    1    5    5    0    0  0.88395054552E+02 -0.57209547908E+02  0.18895671000E+03  0.21631286669E+03  0.00000000000E+00 0.  1.
          4    1    6    6  503    0 -0.78417000425E+02 -0.47823623136E+01 -0.30983691117E+01  0.78623767628E+02  0.00000000000E+00 0. -1.
         -4    1    6    6    0  503 -0.78072198022E+02  0.78227776835E+02  0.55188201134E+02  0.12353376347E+03  0.00000000000E+00 0.  1.
<mgrwt>
<rscale>  0 0.37853446E+03</rscale>
<asrwt>0</asrwt>
<pdfrwt beam="1">  1        1 0.14609105E+00 0.37853446E+03</pdfrwt>
<pdfrwt beam="2">  1       -1 0.30788279E-01 0.37853446E+03</pdfrwt>
<totfact> 0.16976529E+02</totfact>
</mgrwt>
</event>
<event>
12    1  0.1338445E-007  0.5732921E+03  0.7818608E-02  0.9962420E-01
         -2   -1    0    0    0  501 -0.00000000000E+00  0.00000000000E+00  0.27191052024E+03  0.27191052024E+03  0.00000000000E+00 0. -1.
          2   -1    0    0  501    0  0.00000000000E+00 -0.00000000000E+00 -0.39874319565E+04  0.39874319565E+04  0.00000000000E+00 0.  1.
         23    2    1    2    0    0 -0.29161384764E+03 -0.44947177251E+03 -0.33177876655E+04  0.33620307820E+04  0.92046050740E+02 0.  0.
    5000000    2    1    2    0    0  0.29161384764E+03  0.44947177251E+03 -0.39773377071E+03  0.89731169468E+03  0.59992717444E+03 0.  0.
         23    2    4    4    0    0  0.86615714042E+01  0.21837319136E+01  0.12036325424E+03  0.15112492308E+03  0.90948545354E+02 0.  0.
         23    2    4    4    0    0  0.28295227623E+03  0.44728804060E+03 -0.51809702495E+03  0.74618677159E+03  0.90783197565E+02 0.  0.
          3    1    3    3  502    0 -0.17129688096E+03 -0.18588240063E+03 -0.16532657514E+04  0.16724779619E+04  0.00000000000E+00 0. -1.
         -3    1    3    3    0  502 -0.12031696667E+03 -0.26358937188E+03 -0.16645219141E+04  0.16895528201E+04  0.00000000000E+00 0.  1.
         13    1    5    5    0    0  0.30372109562E+02  0.25597391582E+02  0.11093527779E+03  0.11783177565E+03  0.00000000000E+00 0.  1.
        -13    1    5    5    0    0 -0.21710538158E+02 -0.23413659668E+02  0.94279764529E+01  0.33293147435E+02  0.00000000000E+00 0. -1.
          4    1    6    6  503    0  0.89142920456E+02  0.19379980585E+03 -0.16072431962E+03  0.26709011949E+03  0.00000000000E+00 0.  1.
         -4    1    6    6    0  503  0.19380935578E+03  0.25348823475E+03 -0.35737270533E+03  0.47909665210E+03  0.00000000000E+00 0. -1.
<mgrwt>
<rscale>  0 0.57329209E+03</rscale>
<asrwt>0</asrwt>
<pdfrwt beam="1">  1        2 0.61345106E+00 0.57329209E+03</pdfrwt>
<pdfrwt beam="2">  1       -2 0.41832388E-01 0.57329209E+03</pdfrwt>
<totfact> 0.22063122E+00</totfact>
</mgrwt>
</event>
<event>
12    1  0.1338445E-007  0.1998491E+04  0.7818608E-02  0.8607327E-01
          2   -1    0    0  501    0  0.00000000000E+00  0.00000000000E+00  0.11190314688E+04  0.11190314688E+04  0.00000000000E+00 0. -1.
         -2   -1    0    0    0  501 -0.00000000000E+00 -0.00000000000E+00 -0.45060384531E+04  0.45060384531E+04  0.00000000000E+00 0.  1.
         23    2    1    2    0    0 -0.19764216181E+04  0.23806885512E+03 -0.47748559858E+03  0.20490236037E+04  0.87097873068E+02 0.  0.
    5000000    2    1    2    0    0  0.19764216181E+04 -0.23806885512E+03 -0.29095213858E+04  0.35760463182E+04  0.59989447716E+03 0.  0.
         23    2    4    4    0    0  0.28553293382E+03  0.57696134466E+01 -0.17050520750E+03  0.34663245224E+03  0.97568880413E+02 0.  0.
         23    2    4    4    0    0  0.16908886842E+04 -0.24383846857E+03 -0.27390161783E+04  0.32294138660E+04  0.91337570304E+02 0.  0.
          2    1    3    3  502    0 -0.13976407738E+04  0.13921859107E+03 -0.30865316111E+03  0.14380710422E+04  0.00000000000E+00 0. -1.
         -2    1    3    3    0  502 -0.57878084426E+03  0.98850264051E+02 -0.16883243746E+03  0.61095256144E+03  0.00000000000E+00 0.  1.
         13    1    5    5    0    0  0.27208370794E+03 -0.11930010229E+02 -0.17530775788E+03  0.32388991840E+03  0.00000000000E+00 0. -1.
        -13    1    5    5    0    0  0.13449225884E+02  0.17699623676E+02  0.48025503833E+01  0.22742533837E+02  0.00000000000E+00 0.  1.
          2    1    6    6  503    0  0.13981272303E+04 -0.16740679799E+03 -0.22697177132E+04  0.26710303791E+04  0.00000000000E+00 0. -1.
         -2    1    6    6    0  503  0.29276145392E+03 -0.76431670580E+02 -0.46929846507E+03  0.55838348694E+03  0.00000000000E+00 0.  1.
<mgrwt>
<rscale>  0 0.19984909E+04</rscale>
<asrwt>0</asrwt>
<pdfrwt beam="1">  1        2 0.17215869E+00 0.19984909E+04</pdfrwt>
<pdfrwt beam="2">  1       -2 0.69323668E+00 0.19984909E+04</pdfrwt>
<totfact> 0.44905934E-03</totfact>
</mgrwt>
</event>
<event>
12    1  0.1338445E-007  0.1069883E+04  0.7818608E-02  0.9235053E-01
         -2   -1    0    0    0  501 -0.00000000000E+00  0.00000000000E+00  0.60086464130E+03  0.60086464130E+03  0.00000000000E+00 0.  1.
          2   -1    0    0  501    0  0.00000000000E+00 -0.00000000000E+00 -0.29869764722E+04  0.29869764722E+04  0.00000000000E+00 0. -1.
         23    2    1    2    0    0  0.84961685838E+03 -0.61290321844E+03 -0.17065527373E+03  0.10647951718E+04  0.84654439582E+02 0.  0.
    5000000    2    1    2    0    0 -0.84961685838E+03  0.61290321844E+03 -0.22154565571E+04  0.25230459417E+04  0.60001158840E+03 0.  0.
         23    2    4    4    0    0 -0.75925687356E+03  0.61041164891E+03 -0.14583347894E+04  0.17561868648E+04  0.91534501439E+02 0.  0.
         23    2    4    4    0    0 -0.90359984815E+02  0.24915695375E+01 -0.75712176779E+03  0.76685907696E+03  0.81659891452E+02 0.  0.
          1    1    3    3  502    0  0.39684921281E+03 -0.28167787077E+03 -0.12191872131E+03  0.50169302885E+03  0.00000000000E+00 0. -1.
         -1    1    3    3    0  502  0.45276764557E+03 -0.33122534767E+03 -0.48736552426E+02  0.56310214291E+03  0.00000000000E+00 0.  1.
         11    1    5    5    0    0 -0.62216995883E+03  0.49210522332E+03 -0.12464908206E+04  0.14774986885E+04  0.00000000000E+00 0.  1.
        -11    1    5    5    0    0 -0.13708691473E+03  0.11830642558E+03 -0.21184396872E+03  0.27868817630E+03  0.00000000000E+00 0. -1.
          1    1    6    6  503    0  0.84411238393E+01  0.15974370067E+02 -0.60613474022E+02  0.63248923340E+02  0.00000000000E+00 0. -1.
         -1    1    6    6    0  503 -0.98801108654E+02 -0.13482800530E+02 -0.69650829377E+03  0.70361015362E+03  0.00000000000E+00 0.  1.
<mgrwt>
<rscale>  0 0.10698830E+04</rscale>
<asrwt>0</asrwt>
<pdfrwt beam="1">  1        2 0.45953485E+00 0.10698830E+04</pdfrwt>
<pdfrwt beam="2">  1       -2 0.92440713E-01 0.10698830E+04</pdfrwt>
<totfact> 0.17783736E+00</totfact>
</mgrwt>
</event>
<event>
12    1  0.1338445E-007  0.7129577E+03  0.7818608E-02  0.9695326E-01
         -2   -1    0    0    0  501 -0.00000000000E+00  0.00000000000E+00  0.41551576356E+03  0.41551576356E+03  0.00000000000E+00 0.  1.
          2   -1    0    0  501    0  0.00000000000E+00 -0.00000000000E+00 -0.18717123277E+04  0.18717123277E+04  0.00000000000E+00 0. -1.
         23    2    1    2    0    0 -0.69637860709E+03 -0.52262210108E+02 -0.20436881761E+03  0.73330747051E+03  0.91097363740E+02 0.  0.
    5000000    2    1    2    0    0  0.69637860709E+03  0.52262210108E+02 -0.12518277465E+04  0.15539206208E+04  0.59993506783E+03 0.  0.
         23    2    4    4    0    0  0.88825043588E+02 -0.20252680180E+02  0.29295137037E+02  0.13134882612E+03  0.89968047919E+02 0.  0.
         23    2    4    4    0    0  0.60755356350E+03  0.72514890288E+02 -0.12811228836E+04  0.14225717946E+04  0.89749240951E+02 0.  0.
          3    1    3    3  502    0 -0.31187413558E+03  0.15226974301E+02 -0.66129380740E+02  0.31917147772E+03  0.00000000000E+00 0. -1.
         -3    1    3    3    0  502 -0.38450447150E+03 -0.67489184409E+02 -0.13823943687E+03  0.41413599279E+03  0.00000000000E+00 0.  1.
         11    1    5    5    0    0  0.27642225803E+02 -0.38372450176E+02  0.45380191077E+02  0.65543110409E+02  0.00000000000E+00 0. -1.
        -11    1    5    5    0    0  0.61182817785E+02  0.18119769996E+02 -0.16085054040E+02  0.65805715712E+02  0.00000000000E+00 0.  1.
          1    1    6    6  503    0  0.11239361685E+03  0.56974684263E+01 -0.32214507981E+03  0.34123633848E+03  0.00000000000E+00 0. -1.
         -1    1    6    6    0  503  0.49515994665E+03  0.66817421861E+02 -0.95897780378E+03  0.10813354562E+04  0.00000000000E+00 0.  1.
<mgrwt>
<rscale>  0 0.71295775E+03</rscale>
<asrwt>0</asrwt>
<pdfrwt beam="1">  1        2 0.28795575E+00 0.71295775E+03</pdfrwt>
<pdfrwt beam="2">  1       -2 0.63925501E-01 0.71295775E+03</pdfrwt>
<totfact> 0.18470042E+01</totfact>
</mgrwt>
</event>
<event>
12    1  0.1338445E-007  0.1081215E+04  0.7818608E-02  0.9223697E-01
          1   -1    0    0  501    0  0.00000000000E+00  0.00000000000E+00  0.23636314979E+04  0.23636314979E+04  0.00000000000E+00 0. -1.
         -1   -1    0    0    0  501 -0.00000000000E+00 -0.00000000000E+00 -0.55065615418E+03  0.55065615418E+03  0.00000000000E+00 0.  1.
         23    2    1    2    0    0  0.85667381365E+03 -0.53888914565E+03  0.12468277371E+04  0.16084982412E+04  0.91627788968E+02 0.  0.
    5000000    2    1    2    0    0 -0.85667381365E+03  0.53888914565E+03  0.56614760662E+03  0.13057894109E+04  0.60022607302E+03 0.  0.
         23    2    4    4    0    0 -0.15050304983E+03  0.38582325501E+03  0.34041044758E+03  0.54311251586E+03  0.87069971558E+02 0.  0.
         23    2    4    4    0    0 -0.70617076382E+03  0.15306589065E+03  0.22573715903E+03  0.76267689500E+03  0.92803376270E+02 0.  0.
          2    1    3    3  502    0  0.11914811211E+03 -0.39572353752E+02  0.15146314829E+03  0.19673161691E+03  0.00000000000E+00 0. -1.
         -2    1    3    3    0  502  0.73752570153E+03 -0.49931679190E+03  0.10953645888E+04  0.14117666243E+04  0.00000000000E+00 0.  1.
         13    1    5    5    0    0 -0.94455144590E+02  0.13471817729E+03  0.15437454261E+03  0.22561529434E+03  0.00000000000E+00 0.  1.
        -13    1    5    5    0    0 -0.56047905241E+02  0.25110507771E+03  0.18603590497E+03  0.31749722152E+03  0.00000000000E+00 0. -1.
          3    1    6    6  503    0 -0.36491798054E+03  0.10550057051E+03  0.15861393799E+03  0.41164776718E+03  0.00000000000E+00 0. -1.
         -3    1    6    6    0  503 -0.34125278327E+03  0.47565320138E+02  0.67123221038E+02  0.35102912781E+03  0.00000000000E+00 0.  1.
<mgrwt>
<rscale>  0 0.10812152E+04</rscale>
<asrwt>0</asrwt>
<pdfrwt beam="1">  1        1 0.36363561E+00 0.10812152E+04</pdfrwt>
<pdfrwt beam="2">  1       -1 0.84716332E-01 0.10812152E+04</pdfrwt>
<totfact> 0.23329639E+00</totfact>
</mgrwt>
</event>
<event>
12    1  0.1338445E-007  0.2479172E+03  0.7818608E-02  0.1114628E+00
          2   -1    0    0  501    0  0.00000000000E+00  0.00000000000E+00  0.76988596154E+03  0.76988596154E+03  0.00000000000E+00 0. -1.
         -2   -1    0    0    0  501 -0.00000000000E+00 -0.00000000000E+00 -0.23381938017E+03  0.23381938017E+03  0.00000000000E+00 0.  1.
         23    2    1    2    0    0 -0.17824891288E+03  0.28701460144E+02  0.44823130134E+02  0.20749699732E+03  0.91920847166E+02 0.  0.
    5000000    2    1    2    0    0  0.17824891288E+03 -0.28701460144E+02  0.49124345123E+03  0.79620834440E+03  0.60002595823E+03 0.  0.
         23    2    4    4    0    0  0.19135346391E+02  0.74242770259E+02 -0.10802704181E+03  0.16055003137E+03  0.90710089819E+02 0.  0.
         23    2    4    4    0    0  0.15911356649E+03 -0.10294423040E+03  0.59927049304E+03  0.63565831302E+03  0.94982764071E+02 0.  0.
          3    1    3    3  502    0 -0.11000936163E+03  0.22695293735E+02  0.72415372809E+02  0.13364550955E+03  0.00000000000E+00 0. -1.
         -3    1    3    3    0  502 -0.68239551245E+02  0.60061664090E+01 -0.27592242675E+02  0.73851487763E+02  0.00000000000E+00 0.  1.
         11    1    5    5    0    0  0.46970986679E+02  0.64176625959E+02 -0.46130044488E+02  0.91939621021E+02  0.00000000000E+00 0. -1.
        -11    1    5    5    0    0 -0.27835640288E+02  0.10066144300E+02 -0.61896997322E+02  0.68610410353E+02  0.00000000000E+00 0.  1.
          4    1    6    6  503    0  0.14035817782E+03 -0.48839499597E+02  0.49337869416E+03  0.51527492725E+03  0.00000000000E+00 0. -1.
         -4    1    6    6    0  503  0.18755388671E+02 -0.54104730806E+02  0.10589179888E+03  0.12038338577E+03  0.00000000000E+00 0.  1.
<mgrwt>
<rscale>  0 0.24791724E+03</rscale>
<asrwt>0</asrwt>
<pdfrwt beam="1">  1        2 0.11844399E+00 0.24791724E+03</pdfrwt>
<pdfrwt beam="2">  1       -2 0.35972213E-01 0.24791724E+03</pdfrwt>
<totfact> 0.27479818E+02</totfact>
</mgrwt>
</event>
<event>
12    1  0.1338445E-007  0.1094057E+04  0.7818608E-02  0.9211004E-01
          2   -1    0    0  501    0  0.00000000000E+00  0.00000000000E+00  0.87441160980E+03  0.87441160980E+03  0.00000000000E+00 0. -1.
         -2   -1    0    0    0  501 -0.00000000000E+00 -0.00000000000E+00 -0.14256174071E+04  0.14256174071E+04  0.00000000000E+00 0.  1.
         23    2    1    2    0    0 -0.40480077969E+03  0.94945870699E+03 -0.20047199632E+03  0.10553370864E+04  0.90619187338E+02 0.  0.
    5000000    2    1    2    0    0  0.40480077969E+03 -0.94945870699E+03 -0.35073380097E+03  0.12446919305E+04  0.60075643580E+03 0.  0.
         23    2    4    4    0    0  0.72613832424E+02 -0.76194466070E+03 -0.36415267101E+03  0.85214631406E+03  0.87827889294E+02 0.  0.
         23    2    4    4    0    0  0.33218694727E+03 -0.18751404629E+03  0.13418870042E+02  0.39254561643E+03  0.91664111891E+02 0.  0.
          4    1    3    3  502    0 -0.23202771859E+03  0.65054562058E+03 -0.14299467917E+03  0.70533250664E+03  0.00000000000E+00 0. -1.
         -4    1    3    3    0  502 -0.17277306111E+03  0.29891308641E+03 -0.57477317146E+02  0.35000457976E+03  0.00000000000E+00 0.  1.
         13    1    5    5    0    0  0.89063878738E+02 -0.52509822272E+03 -0.26455362301E+03  0.59468406523E+03  0.00000000000E+00 0. -1.
        -13    1    5    5    0    0 -0.16450046314E+02 -0.23684643798E+03 -0.99599048002E+02  0.25746224883E+03  0.00000000000E+00 0.  1.
          3    1    6    6  503    0  0.32750001831E+03 -0.18768851711E+03 -0.90795442431E+00  0.37747061585E+03  0.00000000000E+00 0. -1.
         -3    1    6    6    0  503  0.46869289619E+01  0.17447081903E+00  0.14326824466E+02  0.15075000578E+02  0.00000000000E+00 0.  1.
<mgrwt>
<rscale>  0 0.10940565E+04</rscale>
<asrwt>0</asrwt>
<pdfrwt beam="1">  1        2 0.13452487E+00 0.10940565E+04</pdfrwt>
<pdfrwt beam="2">  1       -2 0.21932575E+00 0.10940565E+04</pdfrwt>
<totfact> 0.29985883E+00</totfact>
</mgrwt>
</event>
<event>
12    1  0.1338445E-007  0.9785456E+03  0.7818608E-02  0.9332394E-01
          2   -1    0    0  501    0  0.00000000000E+00  0.00000000000E+00  0.18802170598E+04  0.18802170598E+04  0.00000000000E+00 0. -1.
         -2   -1    0    0    0  501 -0.00000000000E+00 -0.00000000000E+00 -0.71837134081E+03  0.71837134081E+03  0.00000000000E+00 0.  1.
         23    2    1    2    0    0 -0.90697264256E+03  0.17803182716E+03  0.11738540433E+04  0.14969067592E+04  0.92205341151E+02 0.  0.
    5000000    2    1    2    0    0  0.90697264256E+03 -0.17803182716E+03 -0.12008324266E+02  0.11016816415E+04  0.59938596366E+03 0.  0.
         23    2    4    4    0    0  0.18412468619E+03  0.12956376482E+03  0.16305467750E+03  0.29216493836E+03  0.89915816937E+02 0.  0.
         23    2    4    4    0    0  0.72284795637E+03 -0.30759559197E+03 -0.17506300177E+03  0.80951670309E+03  0.86867840812E+02 0.  0.
          2    1    3    3  502    0 -0.27788632948E+03  0.76965315448E+02  0.30831113111E+03  0.42213768543E+03  0.00000000000E+00 0. -1.
         -2    1    3    3    0  502 -0.62908631308E+03  0.10106651171E+03  0.86554291216E+03  0.10747690737E+04  0.00000000000E+00 0.  1.
         11    1    5    5    0    0 -0.37712771811E+00  0.35116823089E+02  0.25581172904E+02  0.43448013721E+02  0.00000000000E+00 0.  1.
        -11    1    5    5    0    0  0.18450181391E+03  0.94446941727E+02  0.13747350460E+03  0.24871692464E+03  0.00000000000E+00 0. -1.
          3    1    6    6  503    0  0.65064897907E+03 -0.30038824487E+03 -0.14605358443E+03  0.73137462435E+03  0.00000000000E+00 0. -1.
         -3    1    6    6    0  503  0.72198977297E+02 -0.72073471029E+01 -0.29009417342E+02  0.78142078738E+02  0.00000000000E+00 0.  1.
<mgrwt>
<rscale>  0 0.97854564E+03</rscale>
<asrwt>0</asrwt>
<pdfrwt beam="1">  1        2 0.28926416E+00 0.97854564E+03</pdfrwt>
<pdfrwt beam="2">  1       -2 0.11051867E+00 0.97854564E+03</pdfrwt>
<totfact> 0.50628749E+00</totfact>
</mgrwt>
</event>
<event>
12    1  0.1338445E-007  0.5607006E+03  0.7818608E-02  0.9990471E-01
          2   -1    0    0  501    0  0.00000000000E+00  0.00000000000E+00  0.21819273894E+04  0.21819273894E+04  0.00000000000E+00 0. -1.
         -2   -1    0    0    0  501 -0.00000000000E+00 -0.00000000000E+00 -0.22697595061E+03  0.22697595061E+03  0.00000000000E+00 0.  1.
         23    2    1    2    0    0 -0.30738079164E+03 -0.38555038053E+03  0.30924724158E+03  0.58916274339E+03  0.91361013500E+02 0.  0.
    5000000    2    1    2    0    0  0.30738079164E+03  0.38555038053E+03  0.16457041972E+04  0.18197405966E+04  0.59998457250E+03 0.  0.
         23    2    4    4    0    0  0.26464067542E+02 -0.60290036203E+02  0.28802738949E+02  0.11674853168E+03  0.92007535245E+02 0.  0.
         23    2    4    4    0    0  0.28091672410E+03  0.44584041673E+03  0.16169014583E+04  0.17029920649E+04  0.90131927888E+02 0.  0.
          3    1    3    3  502    0 -0.27323728952E+02 -0.90138768957E+02  0.65091951787E+02  0.11449255880E+03  0.00000000000E+00 0. -1.
         -3    1    3    3    0  502 -0.28005706269E+03 -0.29541161157E+03  0.24415528979E+03  0.47467018460E+03  0.00000000000E+00 0.  1.
         13    1    5    5    0    0  0.22967736640E+02  0.55100822174E+01 -0.22971885223E+02  0.32948223671E+02  0.00000000000E+00 0.  1.
        -13    1    5    5    0    0  0.34963309017E+01 -0.65800118421E+02  0.51774624172E+02  0.83800308007E+02  0.00000000000E+00 0. -1.
          3    1    6    6  503    0  0.64932117287E+02  0.15761414322E+03  0.62062331150E+03  0.64360833802E+03  0.00000000000E+00 0. -1.
         -3    1    6    6    0  503  0.21598460681E+03  0.28822627351E+03  0.99627814677E+03  0.10593837269E+04  0.00000000000E+00 0.  1.
<mgrwt>
<rscale>  0 0.56070057E+03</rscale>
<asrwt>0</asrwt>
<pdfrwt beam="1">  1        2 0.33568112E+00 0.56070057E+03</pdfrwt>
<pdfrwt beam="2">  1       -2 0.34919379E-01 0.56070057E+03</pdfrwt>
<totfact> 0.43276556E+01</totfact>
</mgrwt>
</event>
<event>
12    1  0.1338445E-007  0.8860719E+03  0.7818608E-02  0.9443162E-01
         -1   -1    0    0    0  501 -0.00000000000E+00  0.00000000000E+00  0.21138237328E+04  0.21138237328E+04  0.00000000000E+00 0.  1.
          1   -1    0    0  501    0  0.00000000000E+00 -0.00000000000E+00 -0.91213303714E+03  0.91213303714E+03  0.00000000000E+00 0. -1.
         23    2    1    2    0    0 -0.49636315655E+03  0.62097013239E+03 -0.57772155778E+03  0.98682772710E+03  0.89924836051E+02 0.  0.
    5000000    2    1    2    0    0  0.49636315655E+03 -0.62097013239E+03  0.17794122534E+04  0.20391290428E+04  0.59979913065E+03 0.  0.
         23    2    4    4    0    0  0.57644462816E+03 -0.32033237336E+03  0.10918012567E+04  0.12787382996E+04  0.90776736632E+02 0.  0.
         23    2    4    4    0    0 -0.80081471607E+02 -0.30063775903E+03  0.68761099667E+03  0.76039074320E+03  0.92677372357E+02 0.  0.
          1    1    3    3  502    0 -0.36767505982E+03  0.45978233812E+03 -0.47478660827E+03  0.75631149103E+03  0.00000000000E+00 0. -1.
         -1    1    3    3    0  502 -0.12868809673E+03  0.16118779427E+03 -0.10293494950E+03  0.23051623607E+03  0.00000000000E+00 0.  1.
         13    1    5    5    0    0  0.53586756694E+03 -0.26881977419E+03  0.96716849018E+03  0.11379072935E+04  0.00000000000E+00 0. -1.
        -13    1    5    5    0    0  0.40577061218E+02 -0.51512599165E+02  0.12463276655E+03  0.14083100606E+03  0.00000000000E+00 0.  1.
          1    1    6    6  503    0 -0.25272717100E+02 -0.56931364427E+02  0.23835891207E+03  0.24636327130E+03  0.00000000000E+00 0. -1.
         -1    1    6    6    0  503 -0.54808754506E+02 -0.24370639461E+03  0.44925208461E+03  0.51402747190E+03  0.00000000000E+00 0.  1.
<mgrwt>
<rscale>  0 0.88607193E+03</rscale>
<asrwt>0</asrwt>
<pdfrwt beam="1">  1        1 0.14032816E+00 0.88607193E+03</pdfrwt>
<pdfrwt beam="2">  1       -1 0.32520365E+00 0.88607193E+03</pdfrwt>
<totfact> 0.41754878E-01</totfact>
</mgrwt>
</event>
<event>
12    1  0.1338445E-007  0.1054193E+04  0.7818608E-02  0.9251026E-01
         -2   -1    0    0    0  501 -0.00000000000E+00  0.00000000000E+00  0.54237782264E+03  0.54237782264E+03  0.00000000000E+00 0.  1.
          2   -1    0    0  501    0  0.00000000000E+00 -0.00000000000E+00 -0.21087062751E+04  0.21087062751E+04  0.00000000000E+00 0. -1.
         23    2    1    2    0    0  0.23021309514E+03 -0.95429204295E+03 -0.66212432541E+03  0.11877801820E+04  0.93497412215E+02 0.  0.
    5000000    2    1    2    0    0 -0.23021309514E+03  0.95429204295E+03 -0.90420412705E+03  0.14633039157E+04  0.60000156167E+03 0.  0.
         23    2    4    4    0    0 -0.28202057658E+03  0.98625398986E+03 -0.75625461309E+03  0.12780660347E+04  0.96432417593E+02 0.  0.
         23    2    4    4    0    0  0.51807481446E+02 -0.31961946916E+02 -0.14794951396E+03  0.18523788100E+03  0.93372547851E+02 0.  0.
          3    1    3    3  502    0  0.15758084220E+03 -0.50737868204E+03 -0.39549085286E+03  0.66232761041E+03  0.00000000000E+00 0. -1.
         -3    1    3    3    0  502  0.72632252936E+02 -0.44691336091E+03 -0.26663347255E+03  0.52545257161E+03  0.00000000000E+00 0.  1.
         13    1    5    5    0    0 -0.51576503820E+02  0.20323497429E+03 -0.20418489917E+03  0.29267057175E+03  0.00000000000E+00 0. -1.
        -13    1    5    5    0    0 -0.23044407276E+03  0.78301901557E+03 -0.55206971392E+03  0.98539546297E+03  0.00000000000E+00 0.  1.
          1    1    6    6  503    0  0.71959474804E+02 -0.18882923195E+02 -0.64709887539E+02  0.98600711700E+02  0.00000000000E+00 0. -1.
         -1    1    6    6    0  503 -0.20151993357E+02 -0.13079023721E+02 -0.83239626423E+02  0.86637169303E+02  0.00000000000E+00 0.  1.
<mgrwt>
<rscale>  0 0.10541927E+04</rscale>
<asrwt>0</asrwt>
<pdfrwt beam="1">  1        2 0.32441635E+00 0.10541927E+04</pdfrwt>
<pdfrwt beam="2">  1       -2 0.83442743E-01 0.10541927E+04</pdfrwt>
<totfact> 0.72804379E+00</totfact>
</mgrwt>
</event>
<event>
12    1  0.1338445E-007  0.1080246E+04  0.7818608E-02  0.9224662E-01
          1   -1    0    0  501    0  0.00000000000E+00  0.00000000000E+00  0.21325010300E+04  0.21325010300E+04  0.00000000000E+00 0. -1.
         -1   -1    0    0    0  501 -0.00000000000E+00 -0.00000000000E+00 -0.78001714707E+03  0.78001714707E+03  0.00000000000E+00 0.  1.
         23    2    1    2    0    0 -0.54461474050E+03 -0.83906188179E+03  0.14255454466E+04  0.17439629681E+04  0.92719776205E+02 0.  0.
    5000000    2    1    2    0    0  0.54461474050E+03  0.83906188179E+03 -0.73061563619E+02  0.11685552090E+04  0.59962757383E+03 0.  0.
         23    2    4    4    0    0  0.47061934757E+03  0.20642070424E+03 -0.10811000295E+02  0.52212956060E+03  0.91707812522E+02 0.  0.
         23    2    4    4    0    0  0.73995392930E+02  0.63264117755E+03 -0.62250563324E+02  0.64642564837E+03  0.90998947963E+02 0.  0.
          2    1    3    3  502    0 -0.20172484857E+03 -0.23249330049E+03  0.44146789317E+03  0.53818207886E+03  0.00000000000E+00 0.  1.
         -2    1    3    3    0  502 -0.34288989193E+03 -0.60656858130E+03  0.98407755340E+03  0.12057808893E+04  0.00000000000E+00 0. -1.
         11    1    5    5    0    0  0.40755199647E+03  0.20309338891E+03  0.10507755933E+02  0.45547334431E+03  0.00000000000E+00 0. -1.
        -11    1    5    5    0    0  0.63067351105E+02  0.33273153253E+01 -0.21318756228E+02  0.66656216288E+02  0.00000000000E+00 0.  1.
          4    1    6    6  503    0  0.19044440296E+02  0.90645944908E+02 -0.40846743820E+02  0.10123158852E+03  0.00000000000E+00 0. -1.
         -4    1    6    6    0  503  0.54950952634E+02  0.54199523265E+03 -0.21403819503E+02  0.54519405985E+03  0.00000000000E+00 0.  1.
<mgrwt>
<rscale>  0 0.10802459E+04</rscale>
<asrwt>0</asrwt>
<pdfrwt beam="1">  1        1 0.32807708E+00 0.10802459E+04</pdfrwt>
<pdfrwt beam="2">  1       -1 0.12000264E+00 0.10802459E+04</pdfrwt>
<totfact> 0.15008951E+00</totfact>
</mgrwt>
</event>
<event>
12    1  0.1338445E-007  0.4362575E+03  0.7818608E-02  0.1031901E+00
          2   -1    0    0  501    0  0.00000000000E+00  0.00000000000E+00  0.53415530909E+03  0.53415530909E+03  0.00000000000E+00 0. -1.
         -2   -1    0    0    0  501 -0.00000000000E+00 -0.00000000000E+00 -0.54479597447E+03  0.54479597447E+03  0.00000000000E+00 0.  1.
         23    2    1    2    0    0  0.34454795661E+03 -0.12029329238E+02  0.11701188556E+03  0.37521422217E+03  0.90752035722E+02 0.  0.
    5000000    2    1    2    0    0 -0.34454795661E+03  0.12029329238E+02 -0.12765255094E+03  0.70373706139E+03  0.60007722723E+03 0.  0.
         23    2    4    4    0    0 -0.30561441909E+03 -0.13197080636E+03  0.14932021915E+03  0.37632392629E+03  0.92231788257E+02 0.  0.
         23    2    4    4    0    0 -0.38933537520E+02  0.14400013560E+03 -0.27697277009E+03  0.32741313510E+03  0.90739111000E+02 0.  0.
          1    1    3    3  502    0  0.11053877917E+03  0.36813542591E+02  0.25646349374E+02  0.11929708234E+03  0.00000000000E+00 0. -1.
         -1    1    3    3    0  502  0.23400917744E+03 -0.48842871830E+02  0.91365536186E+02  0.25591713982E+03  0.00000000000E+00 0.  1.
         13    1    5    5    0    0 -0.15658404310E+03 -0.22567597201E+02  0.90797974956E+02  0.18240650003E+03  0.00000000000E+00 0. -1.
        -13    1    5    5    0    0 -0.14903037599E+03 -0.10940320916E+03  0.58522244195E+02  0.19391742626E+03  0.00000000000E+00 0.  1.
          1    1    6    6  503    0  0.29197976443E+02  0.39248674582E+02 -0.65020773573E+02  0.81367568975E+02  0.00000000000E+00 0. -1.
         -1    1    6    6    0  503 -0.68131513963E+02  0.10475146102E+03 -0.21195199652E+03  0.24604556612E+03  0.00000000000E+00 0.  1.
<mgrwt>
<rscale>  0 0.43625749E+03</rscale>
<asrwt>0</asrwt>
<pdfrwt beam="1">  1        2 0.82177739E-01 0.43625749E+03</pdfrwt>
<pdfrwt beam="2">  1       -2 0.83814766E-01 0.43625749E+03</pdfrwt>
<totfact> 0.73492200E+01</totfact>
</mgrwt>
</event>
<event>
12    1  0.1338445E-007  0.3666417E+03  0.7818608E-02  0.1055985E+00
          2   -1    0    0  501    0  0.00000000000E+00  0.00000000000E+00  0.10190372217E+04  0.10190372217E+04  0.00000000000E+00 0.  1.
         -2   -1    0    0    0  501 -0.00000000000E+00 -0.00000000000E+00 -0.25414767768E+03  0.25414767768E+03  0.00000000000E+00 0. -1.
         23    2    1    2    0    0  0.21191114844E+03  0.18135644528E+03  0.45652575941E+03  0.54324602917E+03  0.94360924776E+02 0.  0.
    5000000    2    1    2    0    0 -0.21191114844E+03 -0.18135644528E+03  0.30836378462E+03  0.72993887023E+03  0.59993835978E+03 0.  0.
         23    2    4    4    0    0 -0.93743354365E+02 -0.24967092467E+03  0.43847570451E+03  0.52007918717E+03  0.84249809337E+02 0.  0.
         23    2    4    4    0    0 -0.11816779407E+03  0.68314479390E+02 -0.13011191989E+03  0.20985968306E+03  0.92094946796E+02 0.  0.
          4    1    3    3  502    0  0.18574360808E+03  0.11091016430E+03  0.30288299851E+03  0.37220943470E+03  0.00000000000E+00 0.  1.
         -4    1    3    3    0  502  0.26167540352E+02  0.70446280973E+02  0.15364276090E+03  0.17103659447E+03  0.00000000000E+00 0. -1.
         13    1    5    5    0    0 -0.99036626470E+02 -0.15818617812E+03  0.31787302660E+03  0.36861142328E+03  0.00000000000E+00 0.  1.
        -13    1    5    5    0    0  0.52932721053E+01 -0.91484746548E+02  0.12060267791E+03  0.15146776390E+03  0.00000000000E+00 0. -1.
          2    1    6    6  503    0  0.14281244387E+02 -0.45857072788E+00 -0.19130180899E+02  0.23877354325E+02  0.00000000000E+00 0. -1.
         -2    1    6    6    0  503 -0.13244903846E+03  0.68773050117E+02 -0.11098173899E+03  0.18598232873E+03  0.00000000000E+00 0.  1.
<mgrwt>
<rscale>  0 0.36664172E+03</rscale>
<asrwt>0</asrwt>
<pdfrwt beam="1">  1        2 0.15677496E+00 0.36664172E+03</pdfrwt>
<pdfrwt beam="2">  1       -2 0.39099643E-01 0.36664172E+03</pdfrwt>
<totfact> 0.15858031E+02</totfact>
</mgrwt>
</event>
<event>
12    1  0.1338445E-007  0.1345868E+04  0.7818608E-02  0.8993962E-01
          2   -1    0    0  501    0  0.00000000000E+00  0.00000000000E+00  0.22203951135E+04  0.22203951135E+04  0.00000000000E+00 0.  1.
         -2   -1    0    0    0  501 -0.00000000000E+00 -0.00000000000E+00 -0.12705320933E+04  0.12705320933E+04  0.00000000000E+00 0. -1.
         23    2    1    2    0    0 -0.40677916073E+03  0.12635734243E+04  0.14337280668E+04  0.19559640103E+04  0.90177357546E+02 0.  0.
    5000000    2    1    2    0    0  0.40677916073E+03 -0.12635734243E+04 -0.48386504664E+03  0.15349631965E+04  0.59991628337E+03 0.  0.
         23    2    4    4    0    0  0.21536337443E+03 -0.30073921715E+03  0.93580403242E+02  0.39243264969E+03  0.91764006548E+02 0.  0.
         23    2    4    4    0    0  0.19141578630E+03 -0.96283420715E+03 -0.57744544988E+03  0.11425305468E+04  0.90791459337E+02 0.  0.
          3    1    3    3  502    0 -0.22153478367E+03  0.63567789017E+03  0.78874390136E+03  0.10369575605E+04  0.00000000000E+00 0.  1.
         -3    1    3    3    0  502 -0.18524437706E+03  0.62789553414E+03  0.64498416544E+03  0.91900644976E+03  0.00000000000E+00 0. -1.
         13    1    5    5    0    0  0.17307686498E+03 -0.16775207640E+03  0.49247257037E+02  0.24601148886E+03  0.00000000000E+00 0. -1.
        -13    1    5    5    0    0  0.42286509452E+02 -0.13298714075E+03  0.44333146206E+02  0.14642116083E+03  0.00000000000E+00 0.  1.
          3    1    6    6  503    0  0.41958374176E+02 -0.11483361272E+03 -0.10002747330E+03  0.15796442381E+03  0.00000000000E+00 0. -1.
         -3    1    6    6    0  503  0.14945741213E+03 -0.84800059443E+03 -0.47741797659E+03  0.98456612300E+03  0.00000000000E+00 0.  1.
<mgrwt>
<rscale>  0 0.13458678E+04</rscale>
<asrwt>0</asrwt>
<pdfrwt beam="1">  1        2 0.34159925E+00 0.13458678E+04</pdfrwt>
<pdfrwt beam="2">  1       -2 0.19546648E+00 0.13458678E+04</pdfrwt>
<totfact> 0.68478882E-01</totfact>
</mgrwt>
</event>
<event>
12    1  0.1338445E-007  0.5543807E+03  0.7818608E-02  0.1000485E+00
          2   -1    0    0  501    0  0.00000000000E+00  0.00000000000E+00  0.17815337563E+04  0.17815337563E+04  0.00000000000E+00 0. -1.
         -2   -1    0    0    0  501 -0.00000000000E+00 -0.00000000000E+00 -0.36003451702E+03  0.36003451702E+03  0.00000000000E+00 0.  1.
         23    2    1    2    0    0  0.44603349832E+03 -0.14789727502E+03  0.12795537114E+04  0.13661057833E+04  0.90376020883E+02 0.  0.
    5000000    2    1    2    0    0 -0.44603349832E+03  0.14789727502E+03  0.14194552782E+03  0.77546248998E+03  0.60031163150E+03 0.  0.
         23    2    4    4    0    0 -0.83890446982E+02 -0.14311156297E+03  0.22457753096E+03  0.29486105006E+03  0.94812683138E+02 0.  0.
         23    2    4    4    0    0 -0.36214305134E+03  0.29100883799E+03 -0.82632003141E+02  0.48060143992E+03  0.91191900318E+02 0.  0.
          3    1    3    3  502    0  0.16402446925E+03 -0.71268343971E+02  0.60719441245E+03  0.63298361580E+03  0.00000000000E+00 0. -1.
         -3    1    3    3    0  502  0.28200902907E+03 -0.76628931051E+02  0.67235929898E+03  0.73312216749E+03  0.00000000000E+00 0.  1.
         13    1    5    5    0    0 -0.86312424868E+02 -0.11161095260E+03  0.11873555498E+03  0.18440436937E+03  0.00000000000E+00 0.  1.
        -13    1    5    5    0    0  0.24219778864E+01 -0.31500610364E+02  0.10584197598E+03  0.11045668069E+03  0.00000000000E+00 0. -1.
          2    1    6    6  503    0 -0.31059727623E+03  0.25818371472E+03 -0.10185700387E+03  0.41653853097E+03  0.00000000000E+00 0. -1.
         -2    1    6    6    0  503 -0.51545775112E+02  0.32825123271E+02  0.19225000725E+02  0.64062908945E+02  0.00000000000E+00 0.  1.
<mgrwt>
<rscale>  0 0.55438071E+03</rscale>
<asrwt>0</asrwt>
<pdfrwt beam="1">  1        2 0.27408211E+00 0.55438071E+03</pdfrwt>
<pdfrwt beam="2">  1       -2 0.55389926E-01 0.55438071E+03</pdfrwt>
<totfact> 0.28643798E+01</totfact>
</mgrwt>
</event>
<event>
12    1  0.1338445E-007  0.7737376E+03  0.7818608E-02  0.9598829E-01
         -2   -1    0    0    0  501 -0.00000000000E+00  0.00000000000E+00  0.48750258820E+03  0.48750258820E+03  0.00000000000E+00 0.  1.
          2   -1    0    0  501    0  0.00000000000E+00 -0.00000000000E+00 -0.18269123082E+04  0.18269123082E+04  0.00000000000E+00 0. -1.
         23    2    1    2    0    0 -0.72775367856E+03  0.21437557901E+03 -0.14699853490E+03  0.77907374878E+03  0.98818172625E+02 0.  0.
    5000000    2    1    2    0    0  0.72775367856E+03 -0.21437557901E+03 -0.11924111851E+04  0.15353411476E+04  0.59987140262E+03 0.  0.
         23    2    4    4    0    0  0.16042686647E+03 -0.81503018702E+02 -0.80416658281E+03  0.82902715688E+03  0.90678621441E+02 0.  0.
         23    2    4    4    0    0  0.56732681209E+03 -0.13287256031E+03 -0.38824460232E+03  0.70631399077E+03  0.92901847766E+02 0.  0.
          4    1    3    3  502    0 -0.35355908568E+03  0.10394882685E+03 -0.12173153965E+03  0.38810817231E+03  0.00000000000E+00 0. -1.
         -4    1    3    3    0  502 -0.37419459288E+03  0.11042675216E+03 -0.25266995251E+02  0.39096557647E+03  0.00000000000E+00 0.  1.
         11    1    5    5    0    0 -0.67486053514E+01 -0.23535329783E+02 -0.10539981595E+03  0.10820617646E+03  0.00000000000E+00 0. -1.
        -11    1    5    5    0    0  0.16717547182E+03 -0.57967688919E+02 -0.69876676686E+03  0.72082098042E+03  0.00000000000E+00 0.  1.
          3    1    6    6  503    0  0.65674975911E+02  0.84124014470E+01 -0.23791037305E+02  0.70356125640E+02  0.00000000000E+00 0. -1.
         -3    1    6    6    0  503  0.50165183618E+03 -0.14128496176E+03 -0.36445356502E+03  0.63595786512E+03  0.00000000000E+00 0.  1.
<mgrwt>
<rscale>  0 0.77373757E+03</rscale>
<asrwt>0</asrwt>
<pdfrwt beam="1">  1        2 0.28106344E+00 0.77373757E+03</pdfrwt>
<pdfrwt beam="2">  1       -2 0.75000397E-01 0.77373757E+03</pdfrwt>
<totfact> 0.13680360E+01</totfact>
</mgrwt>
</event>
<event>
12    1  0.1338445E-007  0.6811093E+03  0.7818608E-02  0.9750095E-01
         -1   -1    0    0    0  501 -0.00000000000E+00  0.00000000000E+00  0.17798842030E+03  0.17798842030E+03  0.00000000000E+00 0.  1.
          1   -1    0    0  501    0  0.00000000000E+00 -0.00000000000E+00 -0.29518087470E+04  0.29518087470E+04  0.00000000000E+00 0. -1.
         23    2    1    2    0    0  0.15234004280E+03 -0.53442485953E+03 -0.16280986366E+04  0.17221444999E+04  0.79114404720E+02 0.  0.
    5000000    2    1    2    0    0 -0.15234004280E+03  0.53442485953E+03 -0.11457216901E+04  0.14076526673E+04  0.59999201796E+03 0.  0.
         23    2    4    4    0    0  0.19749753543E+03  0.34712715789E+03 -0.59531655947E+03  0.72289204515E+03  0.93105116408E+02 0.  0.
         23    2    4    4    0    0 -0.34983757823E+03  0.18729770164E+03 -0.55040513059E+03  0.68476062218E+03  0.92111572151E+02 0.  0.
          1    1    3    3  502    0  0.14749988827E+03 -0.43717923018E+03 -0.14020909725E+04  0.14760558904E+04  0.00000000000E+00 0. -1.
         -1    1    3    3    0  502  0.48401545306E+01 -0.97245629351E+02 -0.22600766407E+03  0.24608860953E+03  0.00000000000E+00 0.  1.
         13    1    5    5    0    0  0.13650351223E+02  0.15467709606E+01 -0.48503701539E+02  0.50411642028E+02  0.00000000000E+00 0. -1.
        -13    1    5    5    0    0  0.18384718421E+03  0.34558038693E+03 -0.54681285793E+03  0.67248040312E+03  0.00000000000E+00 0.  1.
          4    1    6    6  503    0 -0.16022871556E+03  0.66606421855E+02 -0.31270386965E+03  0.35762182095E+03  0.00000000000E+00 0. -1.
         -4    1    6    6    0  503 -0.18960886267E+03  0.12069127978E+03 -0.23770126093E+03  0.32713880123E+03  0.00000000000E+00 0.  1.
<mgrwt>
<rscale>  0 0.68110931E+03</rscale>
<asrwt>0</asrwt>
<pdfrwt beam="1">  1        1 0.45412442E+00 0.68110931E+03</pdfrwt>
<pdfrwt beam="2">  1       -1 0.27382834E-01 0.68110931E+03</pdfrwt>
<totfact> 0.83447948E+00</totfact>
</mgrwt>
</event>
<event>
12    1  0.1338445E-007  0.4436849E+03  0.7818608E-02  0.1029622E+00
          2   -1    0    0  501    0  0.00000000000E+00  0.00000000000E+00  0.33161249948E+04  0.33161249948E+04  0.00000000000E+00 0. -1.
         -2   -1    0    0    0  501 -0.00000000000E+00 -0.00000000000E+00 -0.78820420262E+02  0.78820420262E+02  0.00000000000E+00 0.  1.
         23    2    1    2    0    0  0.26407477499E+03 -0.16398169717E+03  0.73978188101E+03  0.80764936816E+03  0.91623068241E+02 0.  0.
    5000000    2    1    2    0    0 -0.26407477499E+03  0.16398169717E+03  0.24975226935E+04  0.25872960469E+04  0.59987977613E+03 0.  0.
         23    2    4    4    0    0 -0.29510123050E+03 -0.84949453881E+02  0.69396971565E+03  0.76411682537E+03  0.89327546822E+02 0.  0.
         23    2    4    4    0    0  0.31026455515E+02  0.24893115105E+03  0.18035529779E+04  0.18231792215E+04  0.90828249327E+02 0.  0.
          4    1    3    3  502    0  0.10943113328E+03 -0.38251388625E+02  0.36783169079E+03  0.38566629929E+03  0.00000000000E+00 0. -1.
         -4    1    3    3    0  502  0.15464364171E+03 -0.12573030854E+03  0.37195019022E+03  0.42198306887E+03  0.00000000000E+00 0.  1.
         11    1    5    5    0    0 -0.14683149641E+03 -0.19244034464E+01  0.37455996066E+03  0.40231623855E+03  0.00000000000E+00 0. -1.
        -11    1    5    5    0    0 -0.14826973409E+03 -0.83025050435E+02  0.31940975499E+03  0.36180058683E+03  0.00000000000E+00 0.  1.
          2    1    6    6  503    0  0.17079006930E+02  0.23510506141E+03  0.17556881992E+04  0.17714421060E+04  0.00000000000E+00 0. -1.
         -2    1    6    6    0  503  0.13947448585E+02  0.13826089642E+02  0.47864778704E+02  0.51737115470E+02  0.00000000000E+00 0.  1.
<mgrwt>
<rscale>  0 0.44368493E+03</rscale>
<asrwt>0</asrwt>
<pdfrwt beam="1">  1        2 0.51017297E+00 0.44368493E+03</pdfrwt>
<pdfrwt beam="2">  1       -2 0.12126221E-01 0.44368493E+03</pdfrwt>
<totfact> 0.61532882E+01</totfact>
</mgrwt>
</event>
<event>
12    1  0.1338445E-007  0.4873693E+03  0.7818608E-02  0.1017129E+00
         -2   -1    0    0    0  501 -0.00000000000E+00  0.00000000000E+00  0.39901801303E+03  0.39901801303E+03  0.00000000000E+00 0.  1.
          2   -1    0    0  501    0  0.00000000000E+00 -0.00000000000E+00 -0.14029899048E+04  0.14029899048E+04  0.00000000000E+00 0. -1.
         23    2    1    2    0    0  0.40088727022E+03  0.68056328282E+02 -0.99315296688E+03  0.10770850314E+04  0.91744656880E+02 0.  0.
    5000000    2    1    2    0    0 -0.40088727022E+03 -0.68056328282E+02 -0.10818924886E+02  0.72492288640E+03  0.60004489403E+03 0.  0.
         23    2    4    4    0    0 -0.43610394636E+03 -0.12906669882E+03 -0.19927400046E+03  0.50496024384E+03  0.91814246329E+02 0.  0.
         23    2    4    4    0    0  0.35216676138E+02  0.61010370538E+02  0.18845507558E+03  0.21996264256E+03  0.88914391508E+02 0.  0.
          3    1    3    3  502    0  0.10393884932E+03 -0.19299912693E+02 -0.29580129201E+03  0.31412445843E+03  0.00000000000E+00 0. -1.
         -3    1    3    3    0  502  0.29694842090E+03  0.87356240975E+02 -0.69735167487E+03  0.76296057300E+03  0.00000000000E+00 0.  1.
         11    1    5    5    0    0 -0.37798906363E+03 -0.13664123487E+03 -0.15216829013E+03  0.42976941237E+03  0.00000000000E+00 0. -1.
        -11    1    5    5    0    0 -0.58114882727E+02  0.75745360540E+01 -0.47105710336E+02  0.75190831470E+02  0.00000000000E+00 0.  1.
          2    1    6    6  503    0  0.55994492772E+02  0.36571815295E+02  0.17062201721E+03  0.18326143526E+03  0.00000000000E+00 0. -1.
         -2    1    6    6    0  503 -0.20777816634E+02  0.24438555243E+02  0.17833058366E+02  0.36701207298E+02  0.00000000000E+00 0.  1.
<mgrwt>
<rscale>  0 0.48736929E+03</rscale>
<asrwt>0</asrwt>
<pdfrwt beam="1">  1        2 0.21584460E+00 0.48736929E+03</pdfrwt>
<pdfrwt beam="2">  1       -2 0.61387386E-01 0.48736929E+03</pdfrwt>
<totfact> 0.37609486E+01</totfact>
</mgrwt>
</event>
<event>
12    1  0.1338445E-007  0.8144443E+03  0.7818608E-02  0.9539342E-01
         -1   -1    0    0    0  501 -0.00000000000E+00  0.00000000000E+00  0.24393906268E+04  0.24393906268E+04  0.00000000000E+00 0.  1.
          1   -1    0    0  501    0  0.00000000000E+00 -0.00000000000E+00 -0.29486128830E+03  0.29486128830E+03  0.00000000000E+00 0. -1.
         23    2    1    2    0    0 -0.40440638610E+03  0.58898014285E+03  0.12459985380E+04  0.14389494232E+04  0.87298064339E+02 0.  0.
    5000000    2    1    2    0    0  0.40440638610E+03 -0.58898014285E+03  0.89853080051E+03  0.12953024919E+04  0.60000734354E+03 0.  0.
         23    2    4    4    0    0  0.44704785400E+03 -0.65265491115E+03  0.67812519032E+03  0.10460017622E+04  0.91954858797E+02 0.  0.
         23    2    4    4    0    0 -0.42641467902E+02  0.63674768303E+02  0.22040561019E+03  0.24930072967E+03  0.87746509366E+02 0.  0.
          3    1    3    3  502    0 -0.36599769179E+02  0.99457636178E+02  0.21848916989E+03  0.24283509190E+03  0.00000000000E+00 0. -1.
         -3    1    3    3    0  502 -0.36780661692E+03  0.48952250667E+03  0.10275093681E+04  0.11961143313E+04  0.00000000000E+00 0.  1.
         13    1    5    5    0    0  0.24368077945E+03 -0.29220564511E+03  0.28726587918E+03  0.47674536878E+03  0.00000000000E+00 0.  1.
        -13    1    5    5    0    0  0.20336707455E+03 -0.36044926603E+03  0.39085931114E+03  0.56925639346E+03  0.00000000000E+00 0. -1.
          1    1    6    6  503    0  0.25874997646E+01  0.70481196457E+02  0.14130478727E+03  0.15792826572E+03  0.00000000000E+00 0. -1.
         -1    1    6    6    0  503 -0.45228967667E+02 -0.68064281544E+01  0.79100822920E+02  0.91372463943E+02  0.00000000000E+00 0.  1.
<mgrwt>
<rscale>  0 0.81444431E+03</rscale>
<asrwt>0</asrwt>
<pdfrwt beam="1">  1        1 0.45363277E-01 0.81444431E+03</pdfrwt>
<pdfrwt beam="2">  1       -1 0.37529085E+00 0.81444431E+03</pdfrwt>
<totfact> 0.99371365E-01</totfact>
</mgrwt>
</event>
<event>
12    1  0.1338445E-007  0.1342658E+04  0.7818608E-02  0.8996405E-01
          2   -1    0    0  501    0  0.00000000000E+00  0.00000000000E+00  0.14328993388E+04  0.14328993388E+04  0.00000000000E+00 0. -1.
         -2   -1    0    0    0  501 -0.00000000000E+00 -0.00000000000E+00 -0.13619767747E+04  0.13619767747E+04  0.00000000000E+00 0.  1.
         23    2    1    2    0    0  0.96955199696E+03 -0.90992470057E+03  0.92538347949E+02  0.13359212791E+04  0.90156988282E+02 0.  0.
    5000000    2    1    2    0    0 -0.96955199696E+03  0.90992470057E+03 -0.21615783854E+02  0.14589548345E+04  0.60007327177E+03 0.  0.
         23    2    4    4    0    0 -0.87488988442E+03  0.74403432380E+03  0.18121316982E+03  0.11661453470E+04  0.89651394075E+02 0.  0.
         23    2    4    4    0    0 -0.94662112538E+02  0.16589037676E+03 -0.20282895368E+03  0.29280948754E+03  0.90095942707E+02 0.  0.
          4    1    3    3  502    0  0.38412281334E+03 -0.39808291896E+03  0.34281167828E+01  0.55320167939E+03  0.00000000000E+00 0. -1.
         -4    1    3    3    0  502  0.58542918363E+03 -0.51184178160E+03  0.89110231166E+02  0.78271959969E+03  0.00000000000E+00 0.  1.
         13    1    5    5    0    0 -0.18106607836E+03  0.13384823824E+03  0.68327963762E+02  0.23530615428E+03  0.00000000000E+00 0.  1.
        -13    1    5    5    0    0 -0.69382380607E+03  0.61018608556E+03  0.11288520606E+03  0.93083919268E+03  0.00000000000E+00 0. -1.
          1    1    6    6  503    0 -0.55342892517E+02  0.28102040859E+02 -0.95007000225E+02  0.11348519967E+03  0.00000000000E+00 0. -1.
         -1    1    6    6    0  503 -0.39319220021E+02  0.13778833590E+03 -0.10782195345E+03  0.17932428787E+03  0.00000000000E+00 0.  1.
<mgrwt>
<rscale>  0 0.13426577E+04</rscale>
<asrwt>0</asrwt>
<pdfrwt beam="1">  1        2 0.22044605E+00 0.13426577E+04</pdfrwt>
<pdfrwt beam="2">  1       -2 0.20953489E+00 0.13426577E+04</pdfrwt>
<totfact> 0.15276365E+00</totfact>
</mgrwt>
</event>
<event>
12    1  0.1338445E-007  0.6434160E+03  0.7818608E-02  0.9819213E-01
          2   -1    0    0  501    0  0.00000000000E+00  0.00000000000E+00  0.24881988481E+04  0.24881988481E+04  0.00000000000E+00 0. -1.
         -2   -1    0    0    0  501 -0.00000000000E+00 -0.00000000000E+00 -0.17658931523E+03  0.17658931523E+03  0.00000000000E+00 0.  1.
         23    2    1    2    0    0  0.47056389409E+03 -0.20681697550E+03  0.11130373148E+04  0.12292484212E+04  0.89420227857E+02 0.  0.
    5000000    2    1    2    0    0 -0.47056389409E+03  0.20681697550E+03  0.11985722181E+04  0.14355397421E+04  0.59999612457E+03 0.  0.
         23    2    4    4    0    0 -0.19505289454E+03  0.38567388909E+03  0.57648700110E+03  0.72627473337E+03  0.91365997509E+02 0.  0.
         23    2    4    4    0    0 -0.27551099955E+03 -0.17885691358E+03  0.62208521697E+03  0.70926500875E+03  0.90392085150E+02 0.  0.
          2    1    3    3  502    0  0.14764847876E+03 -0.72136489555E+02  0.26424990478E+03  0.31117801751E+03  0.00000000000E+00 0. -1.
         -2    1    3    3    0  502  0.32291541533E+03 -0.13468048595E+03  0.84878741003E+03  0.91807040372E+03  0.00000000000E+00 0.  1.
         11    1    5    5    0    0 -0.10031820982E+03  0.27800695881E+03  0.42507723408E+03  0.51772798583E+03  0.00000000000E+00 0. -1.
        -11    1    5    5    0    0 -0.94734684717E+02  0.10766693027E+03  0.15140976702E+03  0.20854674754E+03  0.00000000000E+00 0.  1.
          4    1    6    6  503    0 -0.22832732730E+02 -0.38119434394E+02  0.14197466364E+03  0.14876568852E+03  0.00000000000E+00 0. -1.
         -4    1    6    6    0  503 -0.25267826682E+03 -0.14073747919E+03  0.48011055333E+03  0.56049932024E+03  0.00000000000E+00 0.  1.
<mgrwt>
<rscale>  0 0.64341599E+03</rscale>
<asrwt>0</asrwt>
<pdfrwt beam="1">  1        2 0.38279980E+00 0.64341599E+03</pdfrwt>
<pdfrwt beam="2">  1       -2 0.27167589E-01 0.64341599E+03</pdfrwt>
<totfact> 0.46053353E+01</totfact>
</mgrwt>
</event>
<event>
12    1  0.1338445E-007  0.8238713E+03  0.7818608E-02  0.9526093E-01
         -1   -1    0    0    0  501 -0.00000000000E+00  0.00000000000E+00  0.89294472951E+03  0.89294472951E+03  0.00000000000E+00 0.  1.
          1   -1    0    0  501    0  0.00000000000E+00 -0.00000000000E+00 -0.13362844156E+04  0.13362844156E+04  0.00000000000E+00 0. -1.
         23    2    1    2    0    0  0.41644305790E+03  0.58128407135E+03 -0.92886591753E+03  0.11771540666E+04  0.10762811724E+03 0.  0.
    5000000    2    1    2    0    0 -0.41644305790E+03 -0.58128407135E+03  0.48552623148E+03  0.10520750785E+04  0.59984186020E+03 0.  0.
         23    2    4    4    0    0  0.61246643175E+02  0.61669984051E+02  0.44782910261E+02  0.13318882358E+03  0.90440120753E+02 0.  0.
         23    2    4    4    0    0 -0.47768970108E+03 -0.64295405540E+03  0.44074332122E+03  0.91888625491E+03  0.92303339013E+02 0.  0.
          1    1    3    3  502    0  0.39717335412E+03  0.52946265309E+03 -0.80977537985E+03  0.10458554107E+04  0.00000000000E+00 0. -1.
         -1    1    3    3    0  502  0.19269703785E+02  0.51821418267E+02 -0.11909053768E+03  0.13129865590E+03  0.00000000000E+00 0.  1.
         13    1    5    5    0    0  0.65398356204E+02  0.20777049347E+01  0.27737525391E+02  0.71067799789E+02  0.00000000000E+00 0.  1.
        -13    1    5    5    0    0 -0.41517130293E+01  0.59592279116E+02  0.17045384869E+02  0.62121023790E+02  0.00000000000E+00 0. -1.
          4    1    6    6  503    0 -0.56934313084E+02 -0.37726708356E+02  0.25828325047E+02  0.73020017149E+02  0.00000000000E+00 0. -1.
         -4    1    6    6    0  503 -0.42075538799E+03 -0.60522734705E+03  0.41491499617E+03  0.84586623776E+03  0.00000000000E+00 0.  1.
<mgrwt>
<rscale>  0 0.82387132E+03</rscale>
<asrwt>0</asrwt>
<pdfrwt beam="1">  1        1 0.20558222E+00 0.82387132E+03</pdfrwt>
<pdfrwt beam="2">  1       -1 0.13737611E+00 0.82387132E+03</pdfrwt>
<totfact> 0.38612392E+00</totfact>
</mgrwt>
</event>
<event>
12    1  0.1338445E-007  0.4869762E+03  0.7818608E-02  0.1017235E+00
         -2   -1    0    0    0  501 -0.00000000000E+00  0.00000000000E+00  0.50485432016E+03  0.50485432016E+03  0.00000000000E+00 0.  1.
          2   -1    0    0  501    0  0.00000000000E+00 -0.00000000000E+00 -0.28171904000E+04  0.28171904000E+04  0.00000000000E+00 0. -1.
         23    2    1    2    0    0  0.11450405962E+03  0.40828501901E+03  0.35173270058E+03  0.55851504776E+03  0.91735105111E+02 0.  0.
    5000000    2    1    2    0    0 -0.11450405962E+03 -0.40828501901E+03 -0.26640687804E+04  0.27635296724E+04  0.60002162214E+03 0.  0.
         23    2    4    4    0    0  0.10214979476E+03 -0.25123811609E+03 -0.22106321756E+04  0.22290735696E+04  0.91209601016E+02 0.  0.
         23    2    4    4    0    0 -0.21665385438E+03 -0.15704690292E+03 -0.45343660484E+03  0.53445610283E+03  0.91847421909E+02 0.  0.
          1    1    3    3  502    0  0.86040283196E+02  0.32166061894E+03  0.22293970186E+03  0.40071260871E+03  0.00000000000E+00 0. -1.
         -1    1    3    3    0  502  0.28463776420E+02  0.86624400069E+02  0.12879299871E+03  0.15780243906E+03  0.00000000000E+00 0.  1.
         13    1    5    5    0    0  0.18127026764E+02 -0.13216830504E+03 -0.13036726139E+04  0.13104805737E+04  0.00000000000E+00 0.  1.
        -13    1    5    5    0    0  0.84022767996E+02 -0.11906981105E+03 -0.90695956171E+03  0.91859299584E+03  0.00000000000E+00 0. -1.
          4    1    6    6  503    0 -0.13663793724E+03 -0.12249980755E+03 -0.22747455941E+03  0.29226837654E+03  0.00000000000E+00 0. -1.
         -4    1    6    6    0  503 -0.80015917133E+02 -0.34547095369E+02 -0.22596204543E+03  0.24218772629E+03  0.00000000000E+00 0.  1.
<mgrwt>
<rscale>  0 0.48697619E+03</rscale>
<asrwt>0</asrwt>
<pdfrwt beam="1">  1        2 0.43341391E+00 0.48697619E+03</pdfrwt>
<pdfrwt beam="2">  1       -2 0.77669895E-01 0.48697619E+03</pdfrwt>
<totfact> 0.37700264E+00</totfact>
</mgrwt>
</event>
<event>
12    1  0.1338445E-007  0.1153957E+04  0.7818608E-02  0.9154141E-01
         -1   -1    0    0    0  501 -0.00000000000E+00  0.00000000000E+00  0.72063896207E+03  0.72063896207E+03  0.00000000000E+00 0.  1.
          1   -1    0    0  501    0  0.00000000000E+00 -0.00000000000E+00 -0.20747917237E+04  0.20747917237E+04  0.00000000000E+00 0. -1.
         23    2    1    2    0    0  0.10582796024E+04  0.43684107561E+03 -0.55288412996E+03  0.12746570335E+04  0.91015656609E+02 0.  0.
    5000000    2    1    2    0    0 -0.10582796024E+04 -0.43684107561E+03 -0.80126863165E+03  0.15207736522E+04  0.59994603009E+03 0.  0.
         23    2    4    4    0    0 -0.93594098103E+03 -0.32634377938E+03 -0.86848741874E+03  0.13209261009E+04  0.89942121663E+02 0.  0.
         23    2    4    4    0    0 -0.12233862137E+03 -0.11049729623E+03  0.67218787084E+02  0.19984755131E+03  0.90798059862E+02 0.  0.
          2    1    3    3  502    0  0.31291700273E+03  0.16013463824E+03 -0.13579944462E+03  0.37683105249E+03  0.00000000000E+00 0. -1.
         -2    1    3    3    0  502  0.74536259967E+03  0.27670643737E+03 -0.41708468534E+03  0.89782598103E+03  0.00000000000E+00 0.  1.
         13    1    5    5    0    0 -0.45565439737E+03 -0.20614583193E+03 -0.42913405033E+03  0.65899398102E+03  0.00000000000E+00 0. -1.
        -13    1    5    5    0    0 -0.48028658367E+03 -0.12019794745E+03 -0.43935336840E+03  0.66193211990E+03  0.00000000000E+00 0.  1.
          2    1    6    6  503    0 -0.56433252270E+02 -0.64757775975E+02 -0.12440909915E+02  0.86793189539E+02  0.00000000000E+00 0. -1.
         -2    1    6    6    0  503 -0.65905369099E+02 -0.45739520258E+02  0.79659696999E+02  0.11305436177E+03  0.00000000000E+00 0.  1.
<mgrwt>
<rscale>  0 0.11539567E+04</rscale>
<asrwt>0</asrwt>
<pdfrwt beam="1">  1        1 0.31919872E+00 0.11539567E+04</pdfrwt>
<pdfrwt beam="2">  1       -1 0.11086753E+00 0.11539567E+04</pdfrwt>
<totfact> 0.19687299E+00</totfact>
</mgrwt>
</event>
<event>
12    1  0.1338445E-007  0.1006576E+04  0.7818608E-02  0.9301362E-01
         -1   -1    0    0    0  501 -0.00000000000E+00  0.00000000000E+00  0.54330918227E+03  0.54330918227E+03  0.00000000000E+00 0.  1.
          1   -1    0    0  501    0  0.00000000000E+00 -0.00000000000E+00 -0.21398807399E+04  0.21398807399E+04  0.00000000000E+00 0. -1.
         23    2    1    2    0    0  0.65088945919E+02 -0.92654931644E+03 -0.11710706307E+04  0.14982851186E+04  0.10354548797E+03 0.  0.
    5000000    2    1    2    0    0 -0.65088945919E+02  0.92654931644E+03 -0.42550092700E+03  0.11849048035E+04  0.60018176240E+03 0.  0.
         23    2    4    4    0    0  0.87598881053E+02  0.91384565439E+03 -0.31876841031E+03  0.97579614653E+03  0.88189433355E+02 0.  0.
         23    2    4    4    0    0 -0.15268782697E+03  0.12703662049E+02 -0.10673251669E+03  0.20910865702E+03  0.94125686112E+02 0.  0.
          1    1    3    3  502    0  0.89201123340E+02 -0.83865545997E+03 -0.10618080458E+04  0.13560000543E+04  0.00000000000E+00 0.  1.
         -1    1    3    3    0  502 -0.24112177421E+02 -0.87893856468E+02 -0.10926258483E+03  0.14228506439E+03  0.00000000000E+00 0. -1.
         13    1    5    5    0    0 -0.12404762353E+02  0.29145869564E+03 -0.92202781747E+02  0.30594673124E+03  0.00000000000E+00 0.  1.
        -13    1    5    5    0    0  0.10000364341E+03  0.62238695875E+03 -0.22656562857E+03  0.66984941529E+03  0.00000000000E+00 0. -1.
          4    1    6    6  503    0 -0.57327052574E+02 -0.10757425038E+02 -0.93241085386E+02  0.10998187648E+03  0.00000000000E+00 0. -1.
         -4    1    6    6    0  503 -0.95360774398E+02  0.23461087087E+02 -0.13491431304E+02  0.99126780537E+02  0.00000000000E+00 0.  1.
<mgrwt>
<rscale>  0 0.10065758E+04</rscale>
<asrwt>0</asrwt>
<pdfrwt beam="1">  1        1 0.32921242E+00 0.10065758E+04</pdfrwt>
<pdfrwt beam="2">  1       -1 0.83586029E-01 0.10065758E+04</pdfrwt>
<totfact> 0.34409525E+00</totfact>
</mgrwt>
</event>
<event>
12    1  0.1338445E-007  0.6734871E+03  0.7818608E-02  0.9763679E-01
          1   -1    0    0  501    0  0.00000000000E+00  0.00000000000E+00  0.11252762926E+04  0.11252762926E+04  0.00000000000E+00 0. -1.
         -1   -1    0    0    0  501 -0.00000000000E+00 -0.00000000000E+00 -0.59764535042E+03  0.59764535042E+03  0.00000000000E+00 0.  1.
         23    2    1    2    0    0 -0.53665821662E+03  0.16909006363E+03 -0.22003837132E+03  0.61138125572E+03  0.93683850805E+02 0.  0.
    5000000    2    1    2    0    0  0.53665821662E+03 -0.16909006363E+03  0.74766931354E+03  0.11115403873E+04  0.59993261219E+03 0.  0.
         23    2    4    4    0    0 -0.68711107498E+02 -0.13455541289E+03  0.52041045839E+02  0.18401998026E+03  0.91261751310E+02 0.  0.
         23    2    4    4    0    0  0.60536932412E+03 -0.34534650741E+02  0.69562826770E+03  0.92752040707E+03  0.93438525339E+02 0.  0.
          4    1    3    3  502    0 -0.39124562846E+03  0.10751446826E+03 -0.11502273934E+03  0.42173775411E+03  0.00000000000E+00 0.  1.
         -4    1    3    3    0  502 -0.14541258816E+03  0.61575595371E+02 -0.10501563199E+03  0.18964350161E+03  0.00000000000E+00 0. -1.
         13    1    5    5    0    0 -0.87667919014E+02 -0.10333691436E+03  0.23208514040E+02  0.13748751586E+03  0.00000000000E+00 0.  1.
        -13    1    5    5    0    0  0.18956811516E+02 -0.31218498533E+02  0.28832531799E+02  0.46532464404E+02  0.00000000000E+00 0. -1.
          3    1    6    6  503    0  0.23887782307E+03 -0.51594481121E+02  0.23985437411E+03  0.34242477366E+03  0.00000000000E+00 0. -1.
         -3    1    6    6    0  503  0.36649150105E+03  0.17059830380E+02  0.45577389359E+03  0.58509563341E+03  0.00000000000E+00 0.  1.
<mgrwt>
<rscale>  0 0.67348713E+03</rscale>
<asrwt>0</asrwt>
<pdfrwt beam="1">  1        1 0.17311943E+00 0.67348713E+03</pdfrwt>
<pdfrwt beam="2">  1       -1 0.91945439E-01 0.67348713E+03</pdfrwt>
<totfact> 0.14583379E+01</totfact>
</mgrwt>
</event>
<event>
12    1  0.1338445E-007  0.6781808E+03  0.7818608E-02  0.9755291E-01
         -2   -1    0    0    0  501 -0.00000000000E+00  0.00000000000E+00  0.11467265637E+04  0.11467265637E+04  0.00000000000E+00 0.  1.
          2   -1    0    0  501    0  0.00000000000E+00 -0.00000000000E+00 -0.49640859361E+03  0.49640859361E+03  0.00000000000E+00 0. -1.
         23    2    1    2    0    0  0.51538940065E+03 -0.35982111902E+03  0.34426075770E+03  0.72196617730E+03  0.87305325609E+02 0.  0.
    5000000    2    1    2    0    0 -0.51538940065E+03  0.35982111902E+03  0.30605721241E+03  0.92116898003E+03  0.59981980670E+03 0.  0.
         23    2    4    4    0    0 -0.24318880791E+03  0.35869695947E+03 -0.69906629519E+02  0.44830748695E+03  0.91040435997E+02 0.  0.
         23    2    4    4    0    0 -0.27220059274E+03  0.11241595542E+01  0.37596384193E+03  0.47286149307E+03  0.90303680836E+02 0.  0.
          3    1    3    3  502    0  0.20273703135E+03 -0.18065417014E+03  0.11518595669E+03  0.29496785874E+03  0.00000000000E+00 0. -1.
         -3    1    3    3    0  502  0.31265236929E+03 -0.17916694888E+03  0.22907480100E+03  0.42699831856E+03  0.00000000000E+00 0.  1.
         13    1    5    5    0    0 -0.13001436964E+03  0.13711285116E+03 -0.63749045856E+02  0.19941818150E+03  0.00000000000E+00 0. -1.
        -13    1    5    5    0    0 -0.11317443826E+03  0.22158410831E+03 -0.61575836625E+01  0.24888930545E+03  0.00000000000E+00 0.  1.
          3    1    6    6  503    0 -0.18203703259E+03  0.43361080153E+02  0.23956600489E+03  0.30398936693E+03  0.00000000000E+00 0. -1.
         -3    1    6    6    0  503 -0.90163560149E+02 -0.42236920599E+02  0.13639783704E+03  0.16887212615E+03  0.00000000000E+00 0.  1.
<mgrwt>
<rscale>  0 0.67818081E+03</rscale>
<asrwt>0</asrwt>
<pdfrwt beam="1">  1        2 0.76370553E-01 0.67818081E+03</pdfrwt>
<pdfrwt beam="2">  1       -2 0.17641947E+00 0.67818081E+03</pdfrwt>
<totfact> 0.12208587E+01</totfact>
</mgrwt>
</event>
<event>
12    1  0.1338445E-007  0.9541549E+03  0.7818608E-02  0.9360307E-01
         -2   -1    0    0    0  501 -0.00000000000E+00  0.00000000000E+00  0.24437099895E+04  0.24437099895E+04  0.00000000000E+00 0.  1.
          2   -1    0    0  501    0  0.00000000000E+00 -0.00000000000E+00 -0.10260372017E+04  0.10260372017E+04  0.00000000000E+00 0. -1.
         23    2    1    2    0    0 -0.44468539328E+03  0.82355988102E+03 -0.63516295994E+03  0.11352108917E+04  0.96310988101E+02 0.  0.
    5000000    2    1    2    0    0  0.44468539328E+03 -0.82355988102E+03  0.20528357478E+04  0.23345362994E+04  0.59994095476E+03 0.  0.
         23    2    4    4    0    0  0.20123460836E+02 -0.17500816834E+03  0.82041568439E+02  0.21488954913E+03  0.91727240853E+02 0.  0.
         23    2    4    4    0    0  0.42456193244E+03 -0.64855171269E+03  0.19707941793E+04  0.21196467503E+04  0.89445458576E+02 0.  0.
          3    1    3    3  502    0 -0.28661862343E+03  0.50546957166E+03 -0.33895215631E+03  0.67270966058E+03  0.00000000000E+00 0. -1.
         -3    1    3    3    0  502 -0.15806676985E+03  0.31809030936E+03 -0.29621080363E+03  0.46250123116E+03  0.00000000000E+00 0.  1.
         13    1    5    5    0    0 -0.26398151262E+02 -0.26221363073E+02 -0.29700607986E+01  0.37326177578E+02  0.00000000000E+00 0. -1.
        -13    1    5    5    0    0  0.46521612098E+02 -0.14878680526E+03  0.85011629238E+02  0.17756337156E+03  0.00000000000E+00 0.  1.
          2    1    6    6  503    0  0.15394696347E+03 -0.17139191294E+03  0.64154930141E+03  0.68166000434E+03  0.00000000000E+00 0. -1.
         -2    1    6    6    0  503  0.27061496897E+03 -0.47715979975E+03  0.13292448779E+04  0.14379867459E+04  0.00000000000E+00 0.  1.
<mgrwt>
<rscale>  0 0.95415489E+03</rscale>
<asrwt>0</asrwt>
<pdfrwt beam="1">  1        2 0.15785188E+00 0.95415489E+03</pdfrwt>
<pdfrwt beam="2">  1       -2 0.37595538E+00 0.95415489E+03</pdfrwt>
<totfact> 0.26355780E-01</totfact>
</mgrwt>
</event>
<event>
12    1  0.1338445E-007  0.1635074E+04  0.7818608E-02  0.8799286E-01
         -2   -1    0    0    0  501 -0.00000000000E+00  0.00000000000E+00  0.17784734324E+04  0.17784734324E+04  0.00000000000E+00 0.  1.
          2   -1    0    0  501    0  0.00000000000E+00 -0.00000000000E+00 -0.17161719297E+04  0.17161719297E+04  0.00000000000E+00 0. -1.
         23    2    1    2    0    0 -0.94329828170E+03 -0.13232663592E+04  0.51096194717E+03  0.17052073673E+04  0.76187586057E+02 0.  0.
    5000000    2    1    2    0    0  0.94329828170E+03  0.13232663592E+04 -0.44866044440E+03  0.17894379948E+04  0.59995552953E+03 0.  0.
         23    2    4    4    0    0  0.95499784146E+03  0.12647044334E+04 -0.31410481645E+03  0.16183380070E+04  0.94116355024E+02 0.  0.
         23    2    4    4    0    0 -0.11699559760E+02  0.58561925800E+02 -0.13455562795E+03  0.17109998781E+03  0.87198680966E+02 0.  0.
          3    1    3    3  502    0 -0.77119547549E+03 -0.10971775832E+04  0.45018148062E+03  0.14146393449E+04  0.00000000000E+00 0. -1.
         -3    1    3    3    0  502 -0.17210280621E+03 -0.22608877594E+03  0.60780466552E+02  0.29056802237E+03  0.00000000000E+00 0.  1.
         11    1    5    5    0    0  0.27155541320E+03  0.35845450938E+03 -0.13263443987E+03  0.46885378571E+03  0.00000000000E+00 0. -1.
        -11    1    5    5    0    0  0.68344242826E+03  0.90624992400E+03 -0.18147037658E+03  0.11494842213E+04  0.00000000000E+00 0.  1.
          2    1    6    6  503    0 -0.12687914880E+02  0.54697798186E+02 -0.24986996992E+02  0.61458785613E+02  0.00000000000E+00 0. -1.
         -2    1    6    6    0  503  0.98835512005E+00  0.38641276144E+01 -0.10956863096E+03  0.10964120219E+03  0.00000000000E+00 0.  1.
<mgrwt>
<rscale>  0 0.16350735E+04</rscale>
<asrwt>0</asrwt>
<pdfrwt beam="1">  1        2 0.26402645E+00 0.16350735E+04</pdfrwt>
<pdfrwt beam="2">  1       -2 0.27361130E+00 0.16350735E+04</pdfrwt>
<totfact> 0.40972086E-01</totfact>
</mgrwt>
</event>
<event>
12    1  0.1338445E-007  0.9749021E+03  0.7818608E-02  0.9336508E-01
          1   -1    0    0  501    0  0.00000000000E+00  0.00000000000E+00  0.24049562006E+04  0.24049562006E+04  0.00000000000E+00 0. -1.
         -1   -1    0    0    0  501 -0.00000000000E+00 -0.00000000000E+00 -0.50111100667E+03  0.50111100667E+03  0.00000000000E+00 0.  1.
         23    2    1    2    0    0 -0.27785622919E+03 -0.91814709598E+03  0.13153748336E+04  0.16307257819E+04  0.94114022366E+02 0.  0.
    5000000    2    1    2    0    0  0.27785622919E+03  0.91814709598E+03  0.58847036036E+03  0.12753414253E+04  0.60000017676E+03 0.  0.
         23    2    4    4    0    0  0.31808790951E+03  0.78507377625E+03  0.67472644451E+03  0.10871850477E+04  0.95889522946E+02 0.  0.
         23    2    4    4    0    0 -0.40231680318E+02  0.13307331972E+03 -0.86256084149E+02  0.18815637763E+03  0.92928003682E+02 0.  0.
          1    1    3    3  502    0 -0.19205337956E+03 -0.53733909665E+03  0.84231870678E+03  0.10174077890E+04  0.00000000000E+00 0. -1.
         -1    1    3    3    0  502 -0.85802849635E+02 -0.38080799932E+03  0.47305612678E+03  0.61331799291E+03  0.00000000000E+00 0.  1.
         11    1    5    5    0    0  0.10614321043E+03  0.33377637141E+03  0.32833107658E+03  0.48007743447E+03  0.00000000000E+00 0. -1.
        -11    1    5    5    0    0  0.21194469908E+03  0.45129740484E+03  0.34639536793E+03  0.60710761320E+03  0.00000000000E+00 0.  1.
          1    1    6    6  503    0 -0.30247575435E+02  0.11863900973E+03 -0.25692353320E+02  0.12510086917E+03  0.00000000000E+00 0. -1.
         -1    1    6    6    0  503 -0.99841048833E+01  0.14434309996E+02 -0.60563730829E+02  0.63055508461E+02  0.00000000000E+00 0.  1.
<mgrwt>
<rscale>  0 0.97490207E+03</rscale>
<asrwt>0</asrwt>
<pdfrwt beam="1">  1        1 0.36999326E+00 0.97490207E+03</pdfrwt>
<pdfrwt beam="2">  1       -1 0.77094002E-01 0.97490207E+03</pdfrwt>
<totfact> 0.27155081E+00</totfact>
</mgrwt>
</event>
<event>
12    1  0.1338445E-007  0.7897494E+03  0.7818608E-02  0.9574974E-01
          2   -1    0    0  501    0  0.00000000000E+00  0.00000000000E+00  0.14724543413E+04  0.14724543413E+04  0.00000000000E+00 0. -1.
         -2   -1    0    0    0  501 -0.00000000000E+00 -0.00000000000E+00 -0.59816056480E+03  0.59816056480E+03  0.00000000000E+00 0.  1.
         23    2    1    2    0    0  0.66291104675E+03  0.26434009479E+03 -0.95015414913E+02  0.72566709048E+03  0.90763734597E+02 0.  0.
    5000000    2    1    2    0    0 -0.66291104675E+03 -0.26434009479E+03  0.96930919142E+03  0.13449478156E+04  0.59999798050E+03 0.  0.
         23    2    4    4    0    0  0.41039405850E+02 -0.90627541979E+02  0.54092612767E+01  0.13530676926E+03  0.91548225009E+02 0.  0.
         23    2    4    4    0    0 -0.70395045260E+03 -0.17371255281E+03  0.96389993014E+03  0.12096410464E+04  0.91684759034E+02 0.  0.
          3    1    3    3  502    0  0.27569676717E+03  0.14124821132E+03 -0.75756543427E+02  0.31890252194E+03  0.00000000000E+00 0. -1.
         -3    1    3    3    0  502  0.38721427958E+03  0.12309188347E+03 -0.19258871486E+02  0.40676456853E+03  0.00000000000E+00 0.  1.
         13    1    5    5    0    0  0.77053714790E+01 -0.10020047677E+03  0.50600997513E+01  0.10062362001E+03  0.00000000000E+00 0. -1.
        -13    1    5    5    0    0  0.33334034371E+02  0.95729347925E+01  0.34916152535E+00  0.34683149248E+02  0.00000000000E+00 0.  1.
          2    1    6    6  503    0 -0.35877892862E+03 -0.12346979085E+03  0.45112531470E+03  0.58947532471E+03  0.00000000000E+00 0.  1.
         -2    1    6    6    0  503 -0.34517152398E+03 -0.50242761953E+02  0.51277461544E+03  0.62016572167E+03  0.00000000000E+00 0. -1.
<mgrwt>
<rscale>  0 0.78974940E+03</rscale>
<asrwt>0</asrwt>
<pdfrwt beam="1">  1        2 0.22653144E+00 0.78974940E+03</pdfrwt>
<pdfrwt beam="2">  1       -2 0.92024703E-01 0.78974940E+03</pdfrwt>
<totfact> 0.13455650E+01</totfact>
</mgrwt>
</event>
<event>
12    1  0.1338445E-007  0.1562039E+04  0.7818608E-02  0.8844215E-01
          1   -1    0    0  501    0  0.00000000000E+00  0.00000000000E+00  0.19422752642E+04  0.19422752642E+04  0.00000000000E+00 0. -1.
         -1   -1    0    0    0  501 -0.00000000000E+00 -0.00000000000E+00 -0.16580560998E+04  0.16580560998E+04  0.00000000000E+00 0.  1.
         23    2    1    2    0    0  0.10796635509E+04  0.10720327951E+04  0.99158764705E+03  0.18183943256E+04  0.91565083633E+02 0.  0.
    5000000    2    1    2    0    0 -0.10796635509E+04 -0.10720327951E+04 -0.70736848262E+03  0.17819370384E+04  0.60000145130E+03 0.  0.
         23    2    4    4    0    0 -0.48120207823E+03 -0.82227403476E+03 -0.56595432637E+03  0.11121441452E+04  0.94182120334E+02 0.  0.
         23    2    4    4    0    0 -0.59846147265E+03 -0.24975876038E+03 -0.14141415625E+03  0.66979289319E+03  0.89938776651E+02 0.  0.
          2    1    3    3  502    0  0.71654443327E+03  0.71047426549E+03  0.60541460300E+03  0.11767482519E+04  0.00000000000E+00 0. -1.
         -2    1    3    3    0  502  0.36311911760E+03  0.36155852965E+03  0.38617304405E+03  0.64164607369E+03  0.00000000000E+00 0.  1.
         11    1    5    5    0    0 -0.47728791530E+03 -0.80078074654E+03 -0.53687753375E+03  0.10757746253E+04  0.00000000000E+00 0. -1.
        -11    1    5    5    0    0 -0.39141629299E+01 -0.21493288222E+02 -0.29076792614E+02  0.36369519914E+02  0.00000000000E+00 0.  1.
          1    1    6    6  503    0 -0.42369011036E+03 -0.17955007746E+03 -0.58012166452E+02  0.46380701955E+03  0.00000000000E+00 0. -1.
         -1    1    6    6    0  503 -0.17477136229E+03 -0.70208682913E+02 -0.83401989798E+02  0.20598587363E+03  0.00000000000E+00 0.  1.
<mgrwt>
<rscale>  0 0.15620387E+04</rscale>
<asrwt>0</asrwt>
<pdfrwt beam="1">  1        1 0.29881158E+00 0.15620387E+04</pdfrwt>
<pdfrwt beam="2">  1       -1 0.25508555E+00 0.15620387E+04</pdfrwt>
<totfact> 0.19729282E-01</totfact>
</mgrwt>
</event>
<event>
12    1  0.1338445E-007  0.9595848E+03  0.7818608E-02  0.9354017E-01
         -2   -1    0    0    0  501 -0.00000000000E+00  0.00000000000E+00  0.64355523046E+03  0.64355523046E+03  0.00000000000E+00 0.  1.
          2   -1    0    0  501    0  0.00000000000E+00 -0.00000000000E+00 -0.22893393421E+04  0.22893393421E+04  0.00000000000E+00 0. -1.
         23    2    1    2    0    0 -0.48958980926E+02 -0.94894782644E+03 -0.15297328525E+04  0.18031174725E+04  0.90835348069E+02 0.  0.
    5000000    2    1    2    0    0  0.48958980926E+02  0.94894782644E+03 -0.11605125917E+03  0.11297771001E+04  0.60002453452E+03 0.  0.
         23    2    4    4    0    0 -0.53638770999E+02  0.49781189368E+03 -0.33587791265E+03  0.60937672656E+03  0.88499849799E+02 0.  0.
         23    2    4    4    0    0  0.10259775193E+03  0.45113593276E+03  0.21982665349E+03  0.52040037354E+03  0.91885051394E+02 0.  0.
          1    1    3    3  502    0 -0.36824058126E+02 -0.48622684902E+03 -0.86746237712E+03  0.99511985996E+03  0.00000000000E+00 0. -1.
         -1    1    3    3    0  502 -0.12134922800E+02 -0.46272097742E+03 -0.66227047539E+03  0.80799761254E+03  0.00000000000E+00 0.  1.
         13    1    5    5    0    0  0.88353569451E+00  0.27677184274E+03 -0.22207253291E+03  0.35485157945E+03  0.00000000000E+00 0. -1.
        -13    1    5    5    0    0 -0.54522306694E+02  0.22104005095E+03 -0.11380537974E+03  0.25452514710E+03  0.00000000000E+00 0.  1.
          2    1    6    6  503    0  0.42343464863E+02  0.11103854938E+03  0.17529131219E+02  0.12012409794E+03  0.00000000000E+00 0. -1.
         -2    1    6    6    0  503  0.60254287063E+02  0.34009738339E+03  0.20229752227E+03  0.40027627560E+03  0.00000000000E+00 0.  1.
<mgrwt>
<rscale>  0 0.95958481E+03</rscale>
<asrwt>0</asrwt>
<pdfrwt beam="1">  1        2 0.35220605E+00 0.95958481E+03</pdfrwt>
<pdfrwt beam="2">  1       -2 0.99008497E-01 0.95958481E+03</pdfrwt>
<totfact> 0.39283463E+00</totfact>
</mgrwt>
</event>
<event>
12    1  0.1338445E-007  0.9536045E+03  0.7818608E-02  0.9360947E-01
         -1   -1    0    0    0  501 -0.00000000000E+00  0.00000000000E+00  0.15333237407E+04  0.15333237407E+04  0.00000000000E+00 0. -1.
          1   -1    0    0  501    0  0.00000000000E+00 -0.00000000000E+00 -0.10669764475E+04  0.10669764475E+04  0.00000000000E+00 0.  1.
         23    2    1    2    0    0 -0.86708661732E+03 -0.39508592613E+02  0.10729877759E+04  0.13831901834E+04  0.92261505303E+02 0.  0.
    5000000    2    1    2    0    0  0.86708661732E+03  0.39508592613E+02 -0.60664048272E+03  0.12171100048E+04  0.59995329624E+03 0.  0.
         23    2    4    4    0    0  0.12661955751E+03 -0.21670489048E+03 -0.12558674183E+03  0.29321533765E+03  0.84909849870E+02 0.  0.
         23    2    4    4    0    0  0.74046705980E+03  0.25621348309E+03 -0.48105374089E+03  0.92389466714E+03  0.90729481305E+02 0.  0.
          1    1    3    3  502    0 -0.44696068001E+03 -0.10883791824E+02  0.62389405278E+03  0.76755201485E+03  0.00000000000E+00 0. -1.
         -1    1    3    3    0  502 -0.42012593731E+03 -0.28624800789E+02  0.44909372315E+03  0.61563816856E+03  0.00000000000E+00 0.  1.
         13    1    5    5    0    0  0.31865273367E+00  0.24592679178E+01  0.71383374811E+01  0.75568115135E+01  0.00000000000E+00 0. -1.
        -13    1    5    5    0    0  0.12630090478E+03 -0.21916415840E+03 -0.13272507932E+03  0.28565852613E+03  0.00000000000E+00 0.  1.
          3    1    6    6  503    0  0.29663068540E+03  0.98408386421E+02 -0.14066407701E+03  0.34272489930E+03  0.00000000000E+00 0. -1.
         -3    1    6    6    0  503  0.44383637441E+03  0.15780509667E+03 -0.34038966388E+03  0.58116976784E+03  0.00000000000E+00 0.  1.
<mgrwt>
<rscale>  0 0.95360449E+03</rscale>
<asrwt>0</asrwt>
<pdfrwt beam="1">  1        1 0.16415022E+00 0.95360449E+03</pdfrwt>
<pdfrwt beam="2">  1       -1 0.23589596E+00 0.95360449E+03</pdfrwt>
<totfact> 0.11751476E+00</totfact>
</mgrwt>
</event>
<event>
12    1  0.1338445E-007  0.1032717E+04  0.7818608E-02  0.9273372E-01
         -1   -1    0    0    0  501 -0.00000000000E+00  0.00000000000E+00  0.82203453823E+03  0.82203453823E+03  0.00000000000E+00 0.  1.
          1   -1    0    0  501    0  0.00000000000E+00 -0.00000000000E+00 -0.16883639741E+04  0.16883639741E+04  0.00000000000E+00 0. -1.
         23    2    1    2    0    0 -0.90993963434E+03  0.30811426133E+03 -0.97604871767E+03  0.13724675415E+04  0.89841621437E+02 0.  0.
    5000000    2    1    2    0    0  0.90993963434E+03 -0.30811426133E+03  0.10971928180E+03  0.11379309709E+04  0.59993669454E+03 0.  0.
         23    2    4    4    0    0  0.95950556200E+03 -0.20483119558E+03  0.86932680252E+02  0.98897198765E+03  0.88890715399E+02 0.  0.
         23    2    4    4    0    0 -0.49565927658E+02 -0.10328306576E+03  0.22786601550E+02  0.14895898320E+03  0.92441206229E+02 0.  0.
          3    1    3    3  502    0 -0.39976732458E+03  0.88510291285E+02 -0.41231293253E+03  0.58107653524E+03  0.00000000000E+00 0. -1.
         -3    1    3    3    0  502 -0.51017230976E+03  0.21960397005E+03 -0.56373578514E+03  0.79139100623E+03  0.00000000000E+00 0.  1.
         11    1    5    5    0    0  0.58095806593E+03 -0.93582226172E+02  0.83945588878E+02  0.59440455022E+03  0.00000000000E+00 0. -1.
        -11    1    5    5    0    0  0.37854749606E+03 -0.11124896940E+03  0.29870913743E+01  0.39456743744E+03  0.00000000000E+00 0.  1.
          3    1    6    6  503    0 -0.21070514734E+02 -0.18260330315E+02 -0.33115462733E+02  0.43290185105E+02  0.00000000000E+00 0. -1.
         -3    1    6    6    0  503 -0.28495412924E+02 -0.85022735442E+02  0.55902064283E+02  0.10566879810E+03  0.00000000000E+00 0.  1.
<mgrwt>
<rscale>  0 0.10327168E+04</rscale>
<asrwt>0</asrwt>
<pdfrwt beam="1">  1        1 0.25974830E+00 0.10327168E+04</pdfrwt>
<pdfrwt beam="2">  1       -1 0.12646685E+00 0.10327168E+04</pdfrwt>
<totfact> 0.26458623E+00</totfact>
</mgrwt>
</event>
<event>
12    1  0.1338445E-007  0.1671912E+04  0.7818608E-02  0.8777548E-01
          2   -1    0    0  501    0  0.00000000000E+00  0.00000000000E+00  0.29314633238E+04  0.29314633238E+04  0.00000000000E+00 0. -1.
         -2   -1    0    0    0  501 -0.00000000000E+00 -0.00000000000E+00 -0.96377109196E+03  0.96377109196E+03  0.00000000000E+00 0.  1.
         23    2    1    2    0    0  0.16221819260E+04  0.99698711423E+02  0.89908226542E+03  0.18596783982E+04  0.92955853713E+02 0.  0.
    5000000    2    1    2    0    0 -0.16221819260E+04 -0.99698711423E+02  0.10686099664E+04  0.20355560175E+04  0.60012249259E+03 0.  0.
         23    2    4    4    0    0 -0.43041380884E+03  0.21545935055E+03  0.38958255395E+03  0.62503654822E+03  0.84954939155E+02 0.  0.
         23    2    4    4    0    0 -0.11917681172E+04 -0.31515806198E+03  0.67902741248E+03  0.14105194693E+04  0.94080270732E+02 0.  0.
          2    1    3    3  502    0  0.37229462324E+03  0.39361341534E+02  0.24828003001E+03  0.44921662369E+03  0.00000000000E+00 0. -1.
         -2    1    3    3    0  502  0.12498873028E+04  0.60337369889E+02  0.65080223541E+03  0.14104617745E+04  0.00000000000E+00 0.  1.
         11    1    5    5    0    0 -0.35090821755E+03  0.19815910594E+03  0.29027147921E+03  0.49664991699E+03  0.00000000000E+00 0. -1.
        -11    1    5    5    0    0 -0.79505591295E+02  0.17300244612E+02  0.99311074749E+02  0.12838663123E+03  0.00000000000E+00 0.  1.
          1    1    6    6  503    0 -0.72242251025E+03 -0.16568028846E+03  0.36313279751E+03  0.82535426934E+03  0.00000000000E+00 0. -1.
         -1    1    6    6    0  503 -0.46934560691E+03 -0.14947777352E+03  0.31589461497E+03  0.58516519998E+03  0.00000000000E+00 0.  1.
<mgrwt>
<rscale>  0 0.16719116E+04</rscale>
<asrwt>0</asrwt>
<pdfrwt beam="1">  1        2 0.45099435E+00 0.16719116E+04</pdfrwt>
<pdfrwt beam="2">  1       -2 0.14827248E+00 0.16719116E+04</pdfrwt>
<totfact> 0.55230901E-01</totfact>
</mgrwt>
</event>
<event>
12    1  0.1338445E-007  0.1268998E+04  0.7818608E-02  0.9054518E-01
          1   -1    0    0  501    0  0.00000000000E+00  0.00000000000E+00  0.15142751881E+04  0.15142751881E+04  0.00000000000E+00 0. -1.
         -1   -1    0    0    0  501 -0.00000000000E+00 -0.00000000000E+00 -0.12431999615E+04  0.12431999615E+04  0.00000000000E+00 0.  1.
         23    2    1    2    0    0  0.11197731925E+04  0.43087281682E+03  0.64404678648E+03  0.13650935660E+04  0.95607498648E+02 0.  0.
    5000000    2    1    2    0    0 -0.11197731925E+04 -0.43087281682E+03 -0.37297155988E+03  0.13923815836E+04  0.60006274928E+03 0.  0.
         23    2    4    4    0    0 -0.32579115022E+03 -0.41877795075E+03 -0.10126735082E+03  0.54796931317E+03  0.92197864608E+02 0.  0.
         23    2    4    4    0    0 -0.79398204227E+03 -0.12094866067E+02 -0.27170420905E+03  0.84441227046E+03  0.93032983694E+02 0.  0.
          4    1    3    3  502    0  0.70662500852E+03  0.30571045784E+03  0.37460547832E+03  0.85621670802E+03  0.00000000000E+00 0.  1.
         -4    1    3    3    0  502  0.41314818396E+03  0.12516235898E+03  0.26944130816E+03  0.50887685795E+03  0.00000000000E+00 0. -1.
         13    1    5    5    0    0 -0.11212357332E+03 -0.81479440603E+02 -0.37919540822E+02  0.14369581243E+03  0.00000000000E+00 0. -1.
        -13    1    5    5    0    0 -0.21366757690E+03 -0.33729851015E+03 -0.63347810003E+02  0.40427350073E+03  0.00000000000E+00 0.  1.
          1    1    6    6  503    0 -0.72134192108E+02 -0.25562084177E+02 -0.13842430599E+02  0.77771297427E+02  0.00000000000E+00 0. -1.
         -1    1    6    6    0  503 -0.72184785016E+03  0.13467218110E+02 -0.25786177845E+03  0.76664097303E+03  0.00000000000E+00 0.  1.
<mgrwt>
<rscale>  0 0.12689981E+04</rscale>
<asrwt>0</asrwt>
<pdfrwt beam="1">  1        1 0.23296541E+00 0.12689981E+04</pdfrwt>
<pdfrwt beam="2">  1       -1 0.19126153E+00 0.12689981E+04</pdfrwt>
<totfact> 0.10758353E+00</totfact>
</mgrwt>
</event>
<event>
12    1  0.1338445E-007  0.7555613E+03  0.7818608E-02  0.9626666E-01
          2   -1    0    0  501    0  0.00000000000E+00  0.00000000000E+00  0.50806124282E+03  0.50806124282E+03  0.00000000000E+00 0. -1.
         -2   -1    0    0    0  501 -0.00000000000E+00 -0.00000000000E+00 -0.14494072425E+04  0.14494072425E+04  0.00000000000E+00 0.  1.
         23    2    1    2    0    0  0.34841965489E+03  0.54666139957E+03  0.15986897311E+02  0.65490536866E+03  0.91708883524E+02 0.  0.
    5000000    2    1    2    0    0 -0.34841965489E+03 -0.54666139957E+03 -0.95733289698E+03  0.13025631166E+04  0.59995787810E+03 0.  0.
         23    2    4    4    0    0 -0.29993308487E+03 -0.65394976767E+03 -0.87190162263E+03  0.11340280521E+04  0.90537447214E+02 0.  0.
         23    2    4    4    0    0 -0.48486570024E+02  0.10728836810E+03 -0.85431274344E+02  0.16853506455E+03  0.85110657057E+02 0.  0.
          1    1    3    3  502    0  0.43765859147E+02  0.12682866343E+03  0.23056100810E+02  0.13613428693E+03  0.00000000000E+00 0. -1.
         -1    1    3    3    0  502  0.30465379574E+03  0.41983273615E+03 -0.70692034992E+01  0.51877108173E+03  0.00000000000E+00 0.  1.
         11    1    5    5    0    0 -0.20948070485E+03 -0.42811339201E+03 -0.63959958506E+03  0.79765335287E+03  0.00000000000E+00 0. -1.
        -11    1    5    5    0    0 -0.90452380013E+02 -0.22583637566E+03 -0.23230203757E+03  0.33637469923E+03  0.00000000000E+00 0.  1.
          3    1    6    6  503    0 -0.53647397978E+02  0.31169688476E+02 -0.13118211917E+02  0.63416719195E+02  0.00000000000E+00 0. -1.
         -3    1    6    6    0  503  0.51608279542E+01  0.76118679620E+02 -0.72313062427E+02  0.10511834535E+03  0.00000000000E+00 0.  1.
<mgrwt>
<rscale>  0 0.75556127E+03</rscale>
<asrwt>0</asrwt>
<pdfrwt beam="1">  1        2 0.78163269E-01 0.75556127E+03</pdfrwt>
<pdfrwt beam="2">  1       -2 0.22298573E+00 0.75556127E+03</pdfrwt>
<totfact> 0.58500053E+00</totfact>
</mgrwt>
</event>
<event>
12    1  0.1338445E-007  0.1121128E+04  0.7818608E-02  0.9184841E-01
          2   -1    0    0  501    0  0.00000000000E+00  0.00000000000E+00  0.92534093984E+03  0.92534093984E+03  0.00000000000E+00 0. -1.
         -2   -1    0    0    0  501 -0.00000000000E+00 -0.00000000000E+00 -0.16811089188E+04  0.16811089188E+04  0.00000000000E+00 0.  1.
         23    2    1    2    0    0  0.68584827460E+03  0.86753639721E+03  0.52706766118E+02  0.11109280551E+04  0.91519856396E+02 0.  0.
    5000000    2    1    2    0    0 -0.68584827460E+03 -0.86753639721E+03 -0.80847474508E+03  0.14955218036E+04  0.59995566105E+03 0.  0.
         23    2    4    4    0    0 -0.19600523069E+03 -0.39202139714E+03 -0.19246401638E+02  0.44794150310E+03  0.90456287493E+02 0.  0.
         23    2    4    4    0    0 -0.48984304391E+03 -0.47551500007E+03 -0.78922834345E+03  0.10475803005E+04  0.92099863528E+02 0.  0.
          3    1    3    3  502    0  0.80108563412E+02  0.13629442973E+03 -0.15997955665E+02  0.15890087506E+03  0.00000000000E+00 0. -1.
         -3    1    3    3    0  502  0.60573971119E+03  0.73124196748E+03  0.68704721783E+02  0.95202718003E+03  0.00000000000E+00 0.  1.
         11    1    5    5    0    0 -0.18519125700E+03 -0.29492711454E+03 -0.30589774614E+02  0.34959053029E+03  0.00000000000E+00 0. -1.
        -11    1    5    5    0    0 -0.10813973688E+02 -0.97094282601E+02  0.11343372977E+02  0.98350972802E+02  0.00000000000E+00 0.  1.
          2    1    6    6  503    0 -0.16566060354E+03 -0.10398730474E+03 -0.21291707981E+03  0.28912017914E+03  0.00000000000E+00 0. -1.
         -2    1    6    6    0  503 -0.32418244037E+03 -0.37152769533E+03 -0.57631126363E+03  0.75846012132E+03  0.00000000000E+00 0.  1.
<mgrwt>
<rscale>  0 0.11211276E+04</rscale>
<asrwt>0</asrwt>
<pdfrwt beam="1">  1        2 0.14236015E+00 0.11211276E+04</pdfrwt>
<pdfrwt beam="2">  1       -2 0.25863214E+00 0.11211276E+04</pdfrwt>
<totfact> 0.15777598E+00</totfact>
</mgrwt>
</event>
<event>
12    1  0.1338445E-007  0.3866810E+03  0.7818608E-02  0.1048492E+00
         -1   -1    0    0    0  501 -0.00000000000E+00  0.00000000000E+00  0.23684555687E+03  0.23684555687E+03  0.00000000000E+00 0.  1.
          1   -1    0    0  501    0  0.00000000000E+00 -0.00000000000E+00 -0.71729477802E+03  0.71729477802E+03  0.00000000000E+00 0. -1.
         23    2    1    2    0    0 -0.16001935499E+03  0.46295564626E+02 -0.52432482961E+02  0.19859972992E+03  0.94568568672E+02 0.  0.
    5000000    2    1    2    0    0  0.16001935499E+03 -0.46295564626E+02 -0.42801673819E+03  0.75554060497E+03  0.59991149706E+03 0.  0.
         23    2    4    4    0    0  0.36731639260E+03  0.40813891619E+02 -0.26607004567E+03  0.46407034262E+03  0.89335925986E+02 0.  0.
         23    2    4    4    0    0 -0.20729703761E+03 -0.87109456244E+02 -0.16194669251E+03  0.29147026235E+03  0.90377339246E+02 0.  0.
          2    1    3    3  502    0 -0.16586845049E+02  0.18439515483E+02 -0.46102135538E+02  0.52350225034E+02  0.00000000000E+00 0. -1.
         -2    1    3    3    0  502 -0.14343250994E+03  0.27856049142E+02 -0.63303474228E+01  0.14624950489E+03  0.00000000000E+00 0.  1.
         11    1    5    5    0    0  0.14191528630E+03  0.28167700445E+02 -0.54307739726E+02  0.15454028092E+03  0.00000000000E+00 0. -1.
        -11    1    5    5    0    0  0.22540110630E+03  0.12646191174E+02 -0.21176230595E+03  0.30953006169E+03  0.00000000000E+00 0.  1.
          3    1    6    6  503    0 -0.13947296550E+03 -0.86620810090E+02 -0.73170183100E+02  0.17974912667E+03  0.00000000000E+00 0. -1.
         -3    1    6    6    0  503 -0.67824072111E+02 -0.48864615468E+00 -0.88776509414E+02  0.11172113568E+03  0.00000000000E+00 0.  1.
<mgrwt>
<rscale>  0 0.38668099E+03</rscale>
<asrwt>0</asrwt>
<pdfrwt beam="1">  1        1 0.11035304E+00 0.38668099E+03</pdfrwt>
<pdfrwt beam="2">  1       -1 0.36437779E-01 0.38668099E+03</pdfrwt>
<totfact> 0.19734189E+02</totfact>
</mgrwt>
</event>
<event>
12    1  0.1338445E-007  0.2436583E+04  0.7818608E-02  0.8425933E-01
          2   -1    0    0  501    0  0.00000000000E+00  0.00000000000E+00  0.34244739672E+04  0.34244739672E+04  0.00000000000E+00 0. -1.
         -2   -1    0    0    0  501 -0.00000000000E+00 -0.00000000000E+00 -0.19355616393E+04  0.19355616393E+04  0.00000000000E+00 0.  1.
         23    2    1    2    0    0 -0.23328309872E+04 -0.58914638849E+03  0.15775987847E+04  0.28787220477E+04  0.95020106797E+02 0.  0.
    5000000    2    1    2    0    0  0.23328309872E+04  0.58914638849E+03 -0.88686456701E+02  0.24813135588E+04  0.59988149474E+03 0.  0.
         23    2    4    4    0    0  0.71697459293E+03 -0.64938136330E+02 -0.12072417573E+03  0.73546307533E+03  0.89789086856E+02 0.  0.
         23    2    4    4    0    0  0.16158563943E+04  0.65408452482E+03  0.32037719028E+02  0.17458504835E+04  0.90272048711E+02 0.  0.
          1    1    3    3  502    0 -0.11559799145E+04 -0.33828940583E+03  0.80760880672E+03  0.14501590497E+04  0.00000000000E+00 0. -1.
         -1    1    3    3    0  502 -0.11768510727E+04 -0.25085698266E+03  0.76998997794E+03  0.14285629980E+04  0.00000000000E+00 0.  1.
         13    1    5    5    0    0  0.32307485221E+03 -0.24359133781E+02 -0.94017629071E+01  0.32412824726E+03  0.00000000000E+00 0. -1.
        -13    1    5    5    0    0  0.39389974072E+03 -0.40579002548E+02 -0.11132241282E+03  0.41133482807E+03  0.00000000000E+00 0.  1.
          2    1    6    6  503    0  0.15334124551E+04  0.59884484936E+03  0.25493442315E+02  0.16463957078E+04  0.00000000000E+00 0. -1.
         -2    1    6    6    0  503  0.82443939133E+02  0.55239675460E+02  0.65442767128E+01  0.99454775664E+02  0.00000000000E+00 0.  1.
<mgrwt>
<rscale>  0 0.24365832E+04</rscale>
<asrwt>0</asrwt>
<pdfrwt beam="1">  1        2 0.52684215E+00 0.24365832E+04</pdfrwt>
<pdfrwt beam="2">  1       -2 0.29777871E+00 0.24365832E+04</pdfrwt>
<totfact> 0.25450060E-02</totfact>
</mgrwt>
</event>
<event>
12    1  0.1338445E-007  0.6056148E+03  0.7818608E-02  0.9893825E-01
          2   -1    0    0  501    0  0.00000000000E+00  0.00000000000E+00  0.29910433296E+04  0.29910433296E+04  0.00000000000E+00 0. -1.
         -2   -1    0    0    0  501 -0.00000000000E+00 -0.00000000000E+00 -0.18044022165E+03  0.18044022165E+03  0.00000000000E+00 0.  1.
         23    2    1    2    0    0  0.27150616782E+03 -0.52685751674E+03  0.88255377049E+03  0.10670126524E+04  0.91216228786E+02 0.  0.
    5000000    2    1    2    0    0 -0.27150616782E+03  0.52685751674E+03  0.19280493374E+04  0.21044708988E+04  0.60010755236E+03 0.  0.
         23    2    4    4    0    0 -0.20275711776E+03  0.29675875774E+03  0.17596455607E+04  0.17982807810E+04  0.91022299242E+02 0.  0.
         23    2    4    4    0    0 -0.68749050065E+02  0.23009875900E+03  0.16840377672E+03  0.30619011783E+03  0.87867431181E+02 0.  0.
          2    1    3    3  502    0  0.21429247148E+03 -0.38580468786E+03  0.58512188232E+03  0.73289435642E+03  0.00000000000E+00 0. -1.
         -2    1    3    3    0  502  0.57213696346E+02 -0.14105282888E+03  0.29743188817E+03  0.33411829595E+03  0.00000000000E+00 0.  1.
         13    1    5    5    0    0 -0.11609371889E+03  0.95299049789E+02  0.78884239509E+03  0.80301431167E+03  0.00000000000E+00 0.  1.
        -13    1    5    5    0    0 -0.86663398866E+02  0.20145970796E+03  0.97080316561E+03  0.99526646934E+03  0.00000000000E+00 0. -1.
          1    1    6    6  503    0 -0.51802224785E+02  0.69442010453E+02  0.24986951370E+02  0.90166573891E+02  0.00000000000E+00 0. -1.
         -1    1    6    6    0  503 -0.16946825281E+02  0.16065674855E+03  0.14341682535E+03  0.21602354394E+03  0.00000000000E+00 0.  1.
<mgrwt>
<rscale>  0 0.60561481E+03</rscale>
<asrwt>0</asrwt>
<pdfrwt beam="1">  1        2 0.46016048E+00 0.60561481E+03</pdfrwt>
<pdfrwt beam="2">  1       -2 0.27760036E-01 0.60561481E+03</pdfrwt>
<totfact> 0.22687385E+01</totfact>
</mgrwt>
</event>
<event>
12    1  0.1338445E-007  0.7170878E+03  0.7818608E-02  0.9688448E-01
          3   -1    0    0  501    0  0.00000000000E+00  0.00000000000E+00  0.40351149163E+03  0.40351149163E+03  0.00000000000E+00 0. -1.
         -3   -1    0    0    0  501 -0.00000000000E+00 -0.00000000000E+00 -0.19372009869E+04  0.19372009869E+04  0.00000000000E+00 0.  1.
         23    2    1    2    0    0 -0.65794958225E+03  0.13067530326E+03 -0.15554769851E+03  0.69471494376E+03  0.91978687273E+02 0.  0.
    5000000    2    1    2    0    0  0.65794958225E+03 -0.13067530326E+03 -0.13781417967E+04  0.16459975347E+04  0.60004948530E+03 0.  0.
         23    2    4    4    0    0  0.19508842595E+03  0.11407916543E+03 -0.10983717479E+03  0.27072885319E+03  0.10077875303E+03 0.  0.
         23    2    4    4    0    0  0.46286115630E+03 -0.24475446868E+03 -0.12683046220E+04  0.13752686816E+04  0.92855438379E+02 0.  0.
          3    1    3    3  502    0 -0.39012952290E+03  0.12195264020E+03 -0.82719777618E+02  0.41703243603E+03  0.00000000000E+00 0. -1.
         -3    1    3    3    0  502 -0.26782005935E+03  0.87226630564E+01 -0.72827920893E+02  0.27768250773E+03  0.00000000000E+00 0.  1.
         13    1    5    5    0    0  0.13140858425E+03  0.80285917632E+02 -0.12344552052E+03  0.19736474134E+03  0.00000000000E+00 0.  1.
        -13    1    5    5    0    0  0.63679841697E+02  0.33793247794E+02  0.13608345737E+02  0.73364111858E+02  0.00000000000E+00 0. -1.
          1    1    6    6  503    0  0.34680277858E+03 -0.22567925916E+03 -0.10085536303E+04  0.10901301393E+04  0.00000000000E+00 0. -1.
         -1    1    6    6    0  503  0.11605837772E+03 -0.19075209525E+02 -0.25975099161E+03  0.28513854230E+03  0.00000000000E+00 0.  1.
<mgrwt>
<rscale>  0 0.71708782E+03</rscale>
<asrwt>0</asrwt>
<pdfrwt beam="1">  1        3 0.62078691E-01 0.71708782E+03</pdfrwt>
<pdfrwt beam="2">  1       -3 0.29803092E+00 0.71708782E+03</pdfrwt>
<totfact> 0.26184153E-01</totfact>
</mgrwt>
</event>
<event>
12    1  0.1338445E-007  0.7773279E+03  0.7818608E-02  0.9593426E-01
          2   -1    0    0  501    0  0.00000000000E+00  0.00000000000E+00  0.14565709100E+04  0.14565709100E+04  0.00000000000E+00 0.  1.
         -2   -1    0    0    0  501 -0.00000000000E+00 -0.00000000000E+00 -0.49182236448E+03  0.49182236448E+03  0.00000000000E+00 0. -1.
         23    2    1    2    0    0  0.73259011992E+03  0.77805696135E+02  0.41343877392E+03  0.84996187746E+03  0.93603222103E+02 0.  0.
    5000000    2    1    2    0    0 -0.73259011992E+03 -0.77805696135E+02  0.55130977161E+03  0.10984313970E+04  0.59988920607E+03 0.  0.
         23    2    4    4    0    0 -0.15778780977E+03  0.12208460472E+03 -0.63588603321E+02  0.22841676373E+03  0.91263705058E+02 0.  0.
         23    2    4    4    0    0 -0.57480231016E+03 -0.19989030085E+03  0.61489837493E+03  0.87001463331E+03  0.92041417499E+02 0.  0.
          2    1    3    3  502    0  0.24855998190E+03  0.21180744809E+02  0.90632474724E+02  0.26541464547E+03  0.00000000000E+00 0. -1.
         -2    1    3    3    0  502  0.48403013802E+03  0.56624951326E+02  0.32280629920E+03  0.58454723199E+03  0.00000000000E+00 0.  1.
         11    1    5    5    0    0 -0.16604409151E+02  0.31450976432E+02 -0.48256554513E+02  0.59946354144E+02  0.00000000000E+00 0.  1.
        -11    1    5    5    0    0 -0.14118340061E+03  0.90633628288E+02 -0.15332048808E+02  0.16847040959E+03  0.00000000000E+00 0. -1.
          4    1    6    6  503    0 -0.20250261483E+03 -0.27881894096E+02  0.22775138923E+03  0.30603170478E+03  0.00000000000E+00 0. -1.
         -4    1    6    6    0  503 -0.37229969533E+03 -0.17200840676E+03  0.38714698570E+03  0.56398292853E+03  0.00000000000E+00 0.  1.
<mgrwt>
<rscale>  0 0.77732791E+03</rscale>
<asrwt>0</asrwt>
<pdfrwt beam="1">  1        2 0.22408783E+00 0.77732791E+03</pdfrwt>
<pdfrwt beam="2">  1       -2 0.75664980E-01 0.77732791E+03</pdfrwt>
<totfact> 0.21452427E+01</totfact>
</mgrwt>
</event>
<event>
12    1  0.1338445E-007  0.1039413E+04  0.7818608E-02  0.9266343E-01
          2   -1    0    0  501    0  0.00000000000E+00  0.00000000000E+00  0.20441798400E+04  0.20441798400E+04  0.00000000000E+00 0. -1.
         -2   -1    0    0    0  501 -0.00000000000E+00 -0.00000000000E+00 -0.89592413283E+03  0.89592413283E+03  0.00000000000E+00 0.  1.
         23    2    1    2    0    0 -0.85172326764E+02  0.10240160363E+04 -0.29184120772E+03  0.10720894017E+04  0.91330317302E+02 0.  0.
    5000000    2    1    2    0    0  0.85172326764E+02 -0.10240160363E+04  0.14400969149E+04  0.18680145711E+04  0.59978008121E+03 0.  0.
         23    2    4    4    0    0 -0.26906158111E+00 -0.31462464546E+03  0.92584119977E+02  0.34020397889E+03  0.90433334856E+02 0.  0.
         23    2    4    4    0    0  0.85441388345E+02 -0.70939139085E+03  0.13475127949E+04  0.15278105923E+04  0.88758644999E+02 0.  0.
          2    1    3    3  502    0  0.16814220881E+02  0.64674276259E+02 -0.20959168514E+02  0.70034040140E+02  0.00000000000E+00 0. -1.
         -2    1    3    3    0  502 -0.10198654764E+03  0.95934176005E+03 -0.27088203920E+03  0.10020553616E+04  0.00000000000E+00 0.  1.
         11    1    5    5    0    0 -0.28428224832E+02 -0.30290286851E+02  0.90127299821E+01  0.42507584574E+02  0.00000000000E+00 0.  1.
        -11    1    5    5    0    0  0.28159163251E+02 -0.28433435861E+03  0.83571389995E+02  0.29769639431E+03  0.00000000000E+00 0. -1.
          3    1    6    6  503    0  0.36964041977E+00 -0.37320897457E+03  0.70441245766E+03  0.79717123997E+03  0.00000000000E+00 0. -1.
         -3    1    6    6    0  503  0.85071747925E+02 -0.33618241628E+03  0.64310033727E+03  0.73063935228E+03  0.00000000000E+00 0.  1.
<mgrwt>
<rscale>  0 0.10394133E+04</rscale>
<asrwt>0</asrwt>
<pdfrwt beam="1">  1        2 0.31448921E+00 0.10394133E+04</pdfrwt>
<pdfrwt beam="2">  1       -2 0.13783448E+00 0.10394133E+04</pdfrwt>
<totfact> 0.23456408E+00</totfact>
</mgrwt>
</event>
<event>
12    1  0.1338445E-007  0.3279536E+03  0.7818608E-02  0.1072046E+00
          4   -1    0    0  501    0  0.00000000000E+00  0.00000000000E+00  0.27291423749E+03  0.27291423749E+03  0.00000000000E+00 0. -1.
         -4   -1    0    0    0  501 -0.00000000000E+00 -0.00000000000E+00 -0.82547605892E+03  0.82547605892E+03  0.00000000000E+00 0.  1.
         23    2    1    2    0    0 -0.12657449694E+03  0.24437696896E+03 -0.15138371717E+03  0.32604158539E+03  0.87435000716E+02 0.  0.
    5000000    2    1    2    0    0  0.12657449694E+03 -0.24437696896E+03 -0.40117810426E+03  0.77234871101E+03  0.59986452957E+03 0.  0.
         23    2    4    4    0    0  0.67667990994E+02  0.25589907387E+02  0.12326866131E+03  0.17177461895E+03  0.95276211570E+02 0.  0.
         23    2    4    4    0    0  0.58906505945E+02 -0.26996687634E+03 -0.52444676557E+03  0.60057409206E+03  0.96398855676E+02 0.  0.
          3    1    3    3  502    0 -0.98176961362E+02  0.17345621627E+03 -0.15031290946E+03  0.24963923060E+03  0.00000000000E+00 0. -1.
         -3    1    3    3    0  502 -0.28397535577E+02  0.70920752691E+02 -0.10708077099E+01  0.76402354795E+02  0.00000000000E+00 0.  1.
         11    1    5    5    0    0 -0.85003827102E+01  0.94797614748E+01  0.83287569885E+02  0.84255217531E+02  0.00000000000E+00 0.  1.
        -11    1    5    5    0    0  0.76168373704E+02  0.16110145912E+02  0.39981091420E+02  0.87519401421E+02  0.00000000000E+00 0. -1.
          1    1    6    6  503    0  0.80662004059E+02 -0.18340556988E+03 -0.32081623560E+03  0.37824201113E+03  0.00000000000E+00 0. -1.
         -1    1    6    6    0  503 -0.21755498113E+02 -0.86561306464E+02 -0.20363052997E+03  0.22233208093E+03  0.00000000000E+00 0.  1.
<mgrwt>
<rscale>  0 0.32795361E+03</rscale>
<asrwt>0</asrwt>
<pdfrwt beam="1">  1        4 0.41986806E-01 0.32795361E+03</pdfrwt>
<pdfrwt beam="2">  1       -4 0.12699632E+00 0.32795361E+03</pdfrwt>
<totfact> 0.48678025E+00</totfact>
</mgrwt>
</event>
<event>
12    1  0.1338445E-007  0.7557233E+03  0.7818608E-02  0.9626414E-01
          1   -1    0    0  501    0  0.00000000000E+00  0.00000000000E+00  0.16782652618E+04  0.16782652618E+04  0.00000000000E+00 0. -1.
         -1   -1    0    0    0  501 -0.00000000000E+00 -0.00000000000E+00 -0.41769801396E+03  0.41769801396E+03  0.00000000000E+00 0.  1.
         23    2    1    2    0    0  0.13428869226E+03  0.69869773751E+03  0.73536001585E+03  0.10273327512E+04  0.91903468761E+02 0.  0.
    5000000    2    1    2    0    0 -0.13428869226E+03 -0.69869773751E+03  0.52520723200E+03  0.10686305245E+04  0.59993047946E+03 0.  0.
         23    2    4    4    0    0 -0.21673964867E+03 -0.23173708238E+03  0.48231351173E+03  0.58435285322E+03  0.90353654109E+02 0.  0.
         23    2    4    4    0    0  0.82450956409E+02 -0.46696065512E+03  0.42893720266E+02  0.48427767132E+03  0.88513151906E+02 0.  0.
          3    1    3    3  502    0  0.63897780738E+02  0.27869326028E+03  0.23363825438E+03  0.36924205288E+03  0.00000000000E+00 0.  1.
         -3    1    3    3    0  502  0.70390911520E+02  0.42000447723E+03  0.50172176147E+03  0.65809069835E+03  0.00000000000E+00 0. -1.
         13    1    5    5    0    0 -0.19466749784E+03 -0.22575945453E+03  0.39962613272E+03  0.49856174340E+03  0.00000000000E+00 0.  1.
        -13    1    5    5    0    0 -0.22072150829E+02 -0.59776278510E+01  0.82687379011E+02  0.85791109823E+02  0.00000000000E+00 0. -1.
          3    1    6    6  503    0  0.39454152226E+02 -0.78461774220E+02  0.31302794810E+02  0.93234892098E+02  0.00000000000E+00 0. -1.
         -3    1    6    6    0  503  0.42996804183E+02 -0.38849888090E+03  0.11590925456E+02  0.39104277923E+03  0.00000000000E+00 0.  1.
<mgrwt>
<rscale>  0 0.75572331E+03</rscale>
<asrwt>0</asrwt>
<pdfrwt beam="1">  1        1 0.25819465E+00 0.75572331E+03</pdfrwt>
<pdfrwt beam="2">  1       -1 0.64261234E-01 0.75572331E+03</pdfrwt>
<totfact> 0.12581142E+01</totfact>
</mgrwt>
</event>
<event>
12    1  0.1338445E-007  0.5617928E+03  0.7818608E-02  0.9988006E-01
          2   -1    0    0  501    0  0.00000000000E+00  0.00000000000E+00  0.13622407583E+04  0.13622407583E+04  0.00000000000E+00 0.  1.
         -2   -1    0    0    0  501 -0.00000000000E+00 -0.00000000000E+00 -0.31014684943E+03  0.31014684943E+03  0.00000000000E+00 0. -1.
         23    2    1    2    0    0  0.33243021449E+03 -0.28734624204E+03  0.73987207506E+03  0.86576416818E+03  0.95179814648E+02 0.  0.
    5000000    2    1    2    0    0 -0.33243021449E+03  0.28734624204E+03  0.31222183379E+03  0.80662343954E+03  0.60006765401E+03 0.  0.
         23    2    4    4    0    0 -0.46167409300E+03  0.15918964392E+03  0.88558443285E+02  0.50536796798E+03  0.95235887690E+02 0.  0.
         23    2    4    4    0    0  0.12924387851E+03  0.12815659813E+03  0.22366339050E+03  0.30125547156E+03  0.87186312658E+02 0.  0.
          4    1    3    3  502    0  0.10473195009E+03 -0.98740408109E+02  0.16243974205E+03  0.21703713820E+03  0.00000000000E+00 0. -1.
         -4    1    3    3    0  502  0.22769826441E+03 -0.18860583394E+03  0.57743233302E+03  0.64872702997E+03  0.00000000000E+00 0.  1.
         11    1    5    5    0    0 -0.26373130802E+03  0.10530576945E+03  0.96892876399E+02  0.30005289102E+03  0.00000000000E+00 0. -1.
        -11    1    5    5    0    0 -0.19794278498E+03  0.53883874465E+02 -0.83344331149E+01  0.20531507696E+03  0.00000000000E+00 0.  1.
          2    1    6    6  503    0  0.52659296380E+02  0.10044599001E+03  0.90215766456E+02  0.14491819390E+03  0.00000000000E+00 0.  1.
         -2    1    6    6    0  503  0.76584582128E+02  0.27710608115E+02  0.13344762405E+03  0.15633727766E+03  0.00000000000E+00 0. -1.
<mgrwt>
<rscale>  0 0.56179279E+03</rscale>
<asrwt>0</asrwt>
<pdfrwt beam="1">  1        2 0.20957550E+00 0.56179279E+03</pdfrwt>
<pdfrwt beam="2">  1       -2 0.47714901E-01 0.56179279E+03</pdfrwt>
<totfact> 0.65847639E+01</totfact>
</mgrwt>
</event>
<event>
12    1  0.1338445E-007  0.8269985E+03  0.7818608E-02  0.9521740E-01
          1   -1    0    0  501    0  0.00000000000E+00  0.00000000000E+00  0.10747343174E+04  0.10747343174E+04  0.00000000000E+00 0. -1.
         -1   -1    0    0    0  501 -0.00000000000E+00 -0.00000000000E+00 -0.65200251530E+03  0.65200251530E+03  0.00000000000E+00 0.  1.
         23    2    1    2    0    0  0.43874633169E+03 -0.57891728704E+03  0.17519066432E+03  0.75266063603E+03  0.90347636134E+02 0.  0.
    5000000    2    1    2    0    0 -0.43874633169E+03  0.57891728704E+03  0.24754113779E+03  0.97407619667E+03  0.59992020571E+03 0.  0.
         23    2    4    4    0    0 -0.31815387036E+00 -0.95562348456E+02  0.24687246362E+02  0.13430050724E+03  0.91076355048E+02 0.  0.
         23    2    4    4    0    0 -0.43842817782E+03  0.67447963550E+03  0.22285389142E+03  0.83977568943E+03  0.91745876328E+02 0.  0.
          4    1    3    3  502    0  0.16545577777E+03 -0.29237458657E+03  0.85632256644E+02  0.34668630871E+03  0.00000000000E+00 0. -1.
         -4    1    3    3    0  502  0.27329055392E+03 -0.28654270047E+03  0.89558407673E+02  0.40597432732E+03  0.00000000000E+00 0.  1.
         11    1    5    5    0    0  0.30814117965E+02 -0.41221558225E+02 -0.22216933232E+02  0.56056389919E+02  0.00000000000E+00 0.  1.
        -11    1    5    5    0    0 -0.31132271836E+02 -0.54340790230E+02  0.46904179594E+02  0.78244117325E+02  0.00000000000E+00 0. -1.
          1    1    6    6  503    0 -0.42770463382E+03  0.62484331510E+03  0.19523756242E+03  0.78197066953E+03  0.00000000000E+00 0. -1.
         -1    1    6    6    0  503 -0.10723544001E+02  0.49636320398E+02  0.27616328999E+02  0.57805019903E+02  0.00000000000E+00 0.  1.
<mgrwt>
<rscale>  0 0.82699846E+03</rscale>
<asrwt>0</asrwt>
<pdfrwt beam="1">  1        1 0.16534374E+00 0.82699846E+03</pdfrwt>
<pdfrwt beam="2">  1       -1 0.10030808E+00 0.82699846E+03</pdfrwt>
<totfact> 0.12815755E+01</totfact>
</mgrwt>
</event>
<event>
12    1  0.1338445E-007  0.2728166E+03  0.7818608E-02  0.1099678E+00
          3   -1    0    0  501    0  0.00000000000E+00  0.00000000000E+00  0.26740467756E+03  0.26740467756E+03  0.00000000000E+00 0. -1.
         -3   -1    0    0    0  501 -0.00000000000E+00 -0.00000000000E+00 -0.52856980058E+03  0.52856980058E+03  0.00000000000E+00 0.  1.
         23    2    1    2    0    0  0.11730782397E+02 -0.49700570350E+02 -0.15073117415E+03  0.18366928061E+03  0.91688384386E+02 0.  0.
    5000000    2    1    2    0    0 -0.11730782397E+02  0.49700570350E+02 -0.11043394887E+03  0.61230519753E+03  0.60009519238E+03 0.  0.
         23    2    4    4    0    0  0.20605716125E+03  0.83442778973E+02 -0.24130126403E+03  0.34092243372E+03  0.92625885820E+02 0.  0.
         23    2    4    4    0    0 -0.21778794365E+03 -0.33742208623E+02  0.13086731516E+03  0.27138276381E+03  0.89175250350E+02 0.  0.
          2    1    3    3  502    0 -0.75336538442E+01 -0.63414094677E+02 -0.52613446227E+02  0.82742238716E+02  0.00000000000E+00 0. -1.
         -2    1    3    3    0  502  0.19264436242E+02  0.13713524326E+02 -0.98117727924E+02  0.10092704190E+03  0.00000000000E+00 0.  1.
         13    1    5    5    0    0  0.12355750623E+03  0.41651277948E+02 -0.74427579674E+02  0.15013577494E+03  0.00000000000E+00 0.  1.
        -13    1    5    5    0    0  0.82499655018E+02  0.41791501026E+02 -0.16687368436E+03  0.19078665878E+03  0.00000000000E+00 0. -1.
          3    1    6    6  503    0 -0.18974050326E+03 -0.57752862709E+02  0.95019348756E+02  0.21992164142E+03  0.00000000000E+00 0. -1.
         -3    1    6    6    0  503 -0.28047440389E+02  0.24010654086E+02  0.35847966407E+02  0.51461122389E+02  0.00000000000E+00 0.  1.
<mgrwt>
<rscale>  0 0.27281663E+03</rscale>
<asrwt>0</asrwt>
<pdfrwt beam="1">  1        3 0.41139182E-01 0.27281663E+03</pdfrwt>
<pdfrwt beam="2">  1       -3 0.81318430E-01 0.27281663E+03</pdfrwt>
<totfact> 0.21002138E+01</totfact>
</mgrwt>
</event>
<event>
12    1  0.1338445E-007  0.6281194E+03  0.7818608E-02  0.9848726E-01
         -2   -1    0    0    0  501 -0.00000000000E+00  0.00000000000E+00  0.59406670350E+03  0.59406670350E+03  0.00000000000E+00 0.  1.
          2   -1    0    0  501    0  0.00000000000E+00 -0.00000000000E+00 -0.12533016161E+04  0.12533016161E+04  0.00000000000E+00 0. -1.
         23    2    1    2    0    0 -0.55476410580E+03  0.25450240464E+03  0.18590066862E+03  0.64455277831E+03  0.91403163989E+02 0.  0.
    5000000    2    1    2    0    0  0.55476410580E+03 -0.25450240464E+03 -0.84513558119E+03  0.12028155413E+04  0.59998032354E+03 0.  0.
         23    2    4    4    0    0  0.10357854977E+03 -0.69189269220E+01  0.65379891957E+02  0.15294372435E+03  0.91328336370E+02 0.  0.
         23    2    4    4    0    0  0.45118555603E+03 -0.24758347772E+03 -0.91051547315E+03  0.10498718169E+04  0.91249222870E+02 0.  0.
          3    1    3    3  502    0 -0.24493376915E+03  0.16258346413E+03  0.89261972477E+02  0.30723546965E+03  0.00000000000E+00 0. -1.
         -3    1    3    3    0  502 -0.30983033665E+03  0.91918940504E+02  0.96638696140E+02  0.33731730867E+03  0.00000000000E+00 0.  1.
         13    1    5    5    0    0  0.87762704990E+02 -0.32653042000E+02  0.15911656976E+02  0.94982600337E+02  0.00000000000E+00 0. -1.
        -13    1    5    5    0    0  0.15815844780E+02  0.25734115078E+02  0.49468234981E+02  0.57961124015E+02  0.00000000000E+00 0.  1.
          1    1    6    6  503    0  0.29109850116E+03 -0.17297558982E+03 -0.51040281894E+03  0.61251116695E+03  0.00000000000E+00 0. -1.
         -1    1    6    6    0  503  0.16008705487E+03 -0.74607887899E+02 -0.40011265420E+03  0.43736064995E+03  0.00000000000E+00 0.  1.
<mgrwt>
<rscale>  0 0.62811940E+03</rscale>
<asrwt>0</asrwt>
<pdfrwt beam="1">  1        2 0.19281563E+00 0.62811940E+03</pdfrwt>
<pdfrwt beam="2">  1       -2 0.91394878E-01 0.62811940E+03</pdfrwt>
<totfact> 0.18601237E+01</totfact>
</mgrwt>
</event>
<event>
12    1  0.1338445E-007  0.9295744E+03  0.7818608E-02  0.9389349E-01
         -2   -1    0    0    0  501 -0.00000000000E+00  0.00000000000E+00  0.36460039621E+03  0.36460039621E+03  0.00000000000E+00 0.  1.
          2   -1    0    0  501    0  0.00000000000E+00 -0.00000000000E+00 -0.28418014163E+04  0.28418014163E+04  0.00000000000E+00 0. -1.
         23    2    1    2    0    0  0.32652466125E+03 -0.81786820385E+03 -0.15898272694E+04  0.18196963861E+04  0.90650084188E+02 0.  0.
    5000000    2    1    2    0    0 -0.32652466125E+03  0.81786820385E+03 -0.88737375064E+03  0.13867054264E+04  0.59999417741E+03 0.  0.
         23    2    4    4    0    0 -0.35211972525E+03  0.84132799736E+03 -0.89599449516E+03  0.12818018509E+04  0.91590116500E+02 0.  0.
         23    2    4    4    0    0  0.25595063994E+02 -0.23459793511E+02  0.86207445152E+01  0.10490357552E+03  0.98615281313E+02 0.  0.
          2    1    3    3  502    0  0.12914440987E+03 -0.29205808430E+03 -0.66475816793E+03  0.73748194896E+03  0.00000000000E+00 0. -1.
         -2    1    3    3    0  502  0.19738025138E+03 -0.52581011955E+03 -0.92506910146E+03  0.10822144371E+04  0.00000000000E+00 0.  1.
         11    1    5    5    0    0 -0.21035908776E+03  0.39830109082E+03 -0.41034626984E+03  0.60932648549E+03  0.00000000000E+00 0.  1.
        -11    1    5    5    0    0 -0.14176063749E+03  0.44302690655E+03 -0.48564822532E+03  0.67247536536E+03  0.00000000000E+00 0. -1.
          4    1    6    6  503    0 -0.11958771512E+02 -0.21952292143E+02 -0.37711265795E+02  0.45244390971E+02  0.00000000000E+00 0.  1.
         -4    1    6    6    0  503  0.37553835506E+02 -0.15075013679E+01  0.46332010311E+02  0.59659184549E+02  0.00000000000E+00 0. -1.
<mgrwt>
<rscale>  0 0.92957441E+03</rscale>
<asrwt>0</asrwt>
<pdfrwt beam="1">  1        2 0.43720022E+00 0.92957441E+03</pdfrwt>
<pdfrwt beam="2">  1       -2 0.56092369E-01 0.92957441E+03</pdfrwt>
<totfact> 0.66989185E+00</totfact>
</mgrwt>
</event>
<event>
12    1  0.1338445E-007  0.8280245E+03  0.7818608E-02  0.9520316E-01
          2   -1    0    0  501    0  0.00000000000E+00  0.00000000000E+00  0.23724015693E+04  0.23724015693E+04  0.00000000000E+00 0. -1.
         -2   -1    0    0    0  501 -0.00000000000E+00 -0.00000000000E+00 -0.41292485241E+03  0.41292485241E+03  0.00000000000E+00 0.  1.
         23    2    1    2    0    0 -0.35519938902E+03 -0.65270528471E+03  0.18639903535E+03  0.77143590997E+03  0.90432119176E+02 0.  0.
    5000000    2    1    2    0    0  0.35519938902E+03  0.65270528471E+03  0.17730776815E+04  0.20138905117E+04  0.59979974480E+03 0.  0.
         23    2    4    4    0    0  0.46336113498E+03  0.60235968295E+03  0.12177297966E+04  0.14383131370E+04  0.91313160661E+02 0.  0.
         23    2    4    4    0    0 -0.10816174597E+03  0.50345601757E+02  0.55534788489E+03  0.57557737476E+03  0.92975255702E+02 0.  0.
          1    1    3    3  502    0 -0.24221623746E+03 -0.38304243135E+03  0.14684948248E+03  0.47639792235E+03  0.00000000000E+00 0. -1.
         -1    1    3    3    0  502 -0.11298315155E+03 -0.26966285335E+03  0.39549552863E+02  0.29503798763E+03  0.00000000000E+00 0.  1.
         11    1    5    5    0    0  0.17997090943E+03  0.25918837983E+03  0.58595109646E+03  0.66551245813E+03  0.00000000000E+00 0. -1.
        -11    1    5    5    0    0  0.28339022555E+03  0.34317130312E+03  0.63177870016E+03  0.77280067883E+03  0.00000000000E+00 0.  1.
          3    1    6    6  503    0 -0.25002527539E+02 -0.26649151765E+02  0.17145139060E+03  0.17530226185E+03  0.00000000000E+00 0. -1.
         -3    1    6    6    0  503 -0.83159218429E+02  0.76994753522E+02  0.38389649430E+03  0.40027511291E+03  0.00000000000E+00 0.  1.
<mgrwt>
<rscale>  0 0.82802446E+03</rscale>
<asrwt>0</asrwt>
<pdfrwt beam="1">  1        2 0.36498485E+00 0.82802446E+03</pdfrwt>
<pdfrwt beam="2">  1       -2 0.63526902E-01 0.82802446E+03</pdfrwt>
<totfact> 0.97622531E+00</totfact>
</mgrwt>
</event>
<event>
12    1  0.1338445E-007  0.6729338E+03  0.7818608E-02  0.9764672E-01
          1   -1    0    0  501    0  0.00000000000E+00  0.00000000000E+00  0.13890345051E+04  0.13890345051E+04  0.00000000000E+00 0. -1.
         -1   -1    0    0    0  501 -0.00000000000E+00 -0.00000000000E+00 -0.48129857544E+03  0.48129857544E+03  0.00000000000E+00 0.  1.
         23    2    1    2    0    0  0.33770375023E+03 -0.57121066249E+03  0.66279647152E+03  0.94280377761E+03  0.96199566277E+02 0.  0.
    5000000    2    1    2    0    0 -0.33770375023E+03  0.57121066249E+03  0.24493945811E+03  0.92752930290E+03  0.59999152139E+03 0.  0.
         23    2    4    4    0    0 -0.71435323035E+02  0.22038218912E+03 -0.18127551189E+03  0.30817141844E+03  0.91855850513E+02 0.  0.
         23    2    4    4    0    0 -0.26626842719E+03  0.35082847337E+03  0.42621497000E+03  0.61935788446E+03  0.89249623799E+02 0.  0.
          1    1    3    3  502    0  0.13298185219E+03 -0.30420953544E+03  0.36602760972E+03  0.49416983472E+03  0.00000000000E+00 0. -1.
         -1    1    3    3    0  502  0.20472189803E+03 -0.26700112705E+03  0.29676886180E+03  0.44863394289E+03  0.00000000000E+00 0.  1.
         13    1    5    5    0    0 -0.70326630514E+02  0.20517902940E+03 -0.19189001856E+03  0.28959635406E+03  0.00000000000E+00 0.  1.
        -13    1    5    5    0    0 -0.11086925210E+01  0.15203159722E+02  0.10614506672E+02  0.18575064374E+02  0.00000000000E+00 0. -1.
          3    1    6    6  503    0 -0.25489630015E+02  0.74581880003E+02  0.45831559878E+02  0.91174063988E+02  0.00000000000E+00 0. -1.
         -3    1    6    6    0  503 -0.24077879718E+03  0.27624659337E+03  0.38038341012E+03  0.52818382048E+03  0.00000000000E+00 0.  1.
<mgrwt>
<rscale>  0 0.67293384E+03</rscale>
<asrwt>0</asrwt>
<pdfrwt beam="1">  1        1 0.21369762E+00 0.67293384E+03</pdfrwt>
<pdfrwt beam="2">  1       -1 0.74045935E-01 0.67293384E+03</pdfrwt>
<totfact> 0.15030595E+01</totfact>
</mgrwt>
</event>
<event>
12    1  0.1338445E-007  0.1437397E+04  0.7818608E-02  0.8927185E-01
         -1   -1    0    0    0  501 -0.00000000000E+00  0.00000000000E+00  0.10232132795E+04  0.10232132795E+04  0.00000000000E+00 0.  1.
          1   -1    0    0  501    0  0.00000000000E+00 -0.00000000000E+00 -0.21475440590E+04  0.21475440590E+04  0.00000000000E+00 0. -1.
         23    2    1    2    0    0 -0.46188854903E+03  0.13080679207E+04 -0.86519626714E+03  0.16372993019E+04  0.88327268783E+02 0.  0.
    5000000    2    1    2    0    0  0.46188854903E+03 -0.13080679207E+04 -0.25913451238E+03  0.15334580367E+04  0.59996678070E+03 0.  0.
         23    2    4    4    0    0  0.20071042273E+03 -0.74300093639E+02  0.35221923025E+02  0.23524440823E+03  0.91072334093E+02 0.  0.
         23    2    4    4    0    0  0.26117812630E+03 -0.12337678270E+04 -0.29435643541E+03  0.12982136284E+04  0.91191278913E+02 0.  0.
          4    1    3    3  502    0 -0.38713013945E+03  0.10760338752E+04 -0.67323899395E+03  0.13270152178E+04  0.00000000000E+00 0. -1.
         -4    1    3    3    0  502 -0.74758409578E+02  0.23203404549E+03 -0.19195727319E+03  0.31028408402E+03  0.00000000000E+00 0.  1.
         11    1    5    5    0    0  0.71525982890E+02 -0.65079265267E+02  0.42276170547E+02  0.10553933671E+03  0.00000000000E+00 0.  1.
        -11    1    5    5    0    0  0.12918443984E+03 -0.92208283722E+01 -0.70542475226E+01  0.12970507153E+03  0.00000000000E+00 0. -1.
          3    1    6    6  503    0  0.11398497949E+03 -0.58292038312E+03 -0.18443393137E+03  0.62193618937E+03  0.00000000000E+00 0. -1.
         -3    1    6    6    0  503  0.14719314682E+03 -0.65084744391E+03 -0.10992250403E+03  0.67627743908E+03  0.00000000000E+00 0.  1.
<mgrwt>
<rscale>  0 0.14373973E+04</rscale>
<asrwt>0</asrwt>
<pdfrwt beam="1">  1        1 0.33039139E+00 0.14373973E+04</pdfrwt>
<pdfrwt beam="2">  1       -1 0.15741743E+00 0.14373973E+04</pdfrwt>
<totfact> 0.69103949E-01</totfact>
</mgrwt>
</event>
<event>
12    1  0.1338445E-007  0.8923466E+03  0.7818608E-02  0.9435199E-01
          2   -1    0    0  501    0  0.00000000000E+00  0.00000000000E+00  0.66411718204E+03  0.66411718204E+03  0.00000000000E+00 0.  1.
         -2   -1    0    0    0  501 -0.00000000000E+00 -0.00000000000E+00 -0.14269415865E+04  0.14269415865E+04  0.00000000000E+00 0. -1.
         23    2    1    2    0    0 -0.74669194746E+03  0.45274931517E+03 -0.24341193496E+03  0.91108986523E+03  0.91129389674E+02 0.  0.
    5000000    2    1    2    0    0  0.74669194746E+03 -0.45274931517E+03 -0.51941246950E+03  0.11799689033E+04  0.60000541040E+03 0.  0.
         23    2    4    4    0    0  0.45782232894E+03 -0.16040458371E+03  0.21127610969E+02  0.49439467617E+03  0.92998949061E+02 0.  0.
         23    2    4    4    0    0  0.28886961851E+03 -0.29234473146E+03 -0.54054008046E+03  0.68557422713E+03  0.94431688575E+02 0.  0.
          1    1    3    3  502    0 -0.54152704404E+03  0.37198336877E+03 -0.16881260115E+03  0.67832209191E+03  0.00000000000E+00 0. -1.
         -1    1    3    3    0  502 -0.20516490342E+03  0.80765946406E+02 -0.74599333809E+02  0.23276777332E+03  0.00000000000E+00 0.  1.
         11    1    5    5    0    0  0.33574732313E+03 -0.15544787774E+03  0.33984719237E+02  0.37154443722E+03  0.00000000000E+00 0. -1.
        -11    1    5    5    0    0  0.12207500581E+03 -0.49567059646E+01 -0.12857108268E+02  0.12285023895E+03  0.00000000000E+00 0.  1.
          3    1    6    6  503    0  0.16786972276E+03 -0.20930382758E+03 -0.28894385665E+03  0.39430557738E+03  0.00000000000E+00 0. -1.
         -3    1    6    6    0  503  0.12099989575E+03 -0.83040903883E+02 -0.25159622382E+03  0.29126864975E+03  0.00000000000E+00 0.  1.
<mgrwt>
<rscale>  0 0.89234661E+03</rscale>
<asrwt>0</asrwt>
<pdfrwt beam="1">  1        2 0.10217187E+00 0.89234661E+03</pdfrwt>
<pdfrwt beam="2">  1       -2 0.21952947E+00 0.89234661E+03</pdfrwt>
<totfact> 0.43848281E+00</totfact>
</mgrwt>
</event>
<event>
12    1  0.1338445E-007  0.6163769E+03  0.7818608E-02  0.9872000E-01
         -2   -1    0    0    0  501 -0.00000000000E+00  0.00000000000E+00  0.26758348232E+03  0.26758348232E+03  0.00000000000E+00 0.  1.
          2   -1    0    0  501    0  0.00000000000E+00 -0.00000000000E+00 -0.15082656066E+04  0.15082656066E+04  0.00000000000E+00 0. -1.
         23    2    1    2    0    0 -0.20084449474E+02  0.48401079819E+03 -0.40895271638E+03  0.64160273382E+03  0.98701093845E+02 0.  0.
    5000000    2    1    2    0    0  0.20084449474E+02 -0.48401079819E+03 -0.83172940788E+03  0.11342463551E+04  0.60005928727E+03 0.  0.
         23    2    4    4    0    0 -0.14380676578E+03  0.66283178716E+02 -0.13388519621E+03  0.22592925779E+03  0.89693578896E+02 0.  0.
         23    2    4    4    0    0  0.16389121525E+03 -0.55029397691E+03 -0.69784421167E+03  0.90831709731E+03  0.91485594733E+02 0.  0.
          3    1    3    3  502    0 -0.39974337545E+02  0.11770215088E+03 -0.72928048837E+02  0.14411885474E+03  0.00000000000E+00 0. -1.
         -3    1    3    3    0  502  0.19889888071E+02  0.36630864731E+03 -0.33602466755E+03  0.49748387908E+03  0.00000000000E+00 0.  1.
         13    1    5    5    0    0 -0.11460661387E+02 -0.35183526387E+01  0.11994689521E+02  0.16958718743E+02  0.00000000000E+00 0. -1.
        -13    1    5    5    0    0 -0.13234610439E+03  0.69801531355E+02 -0.14587988573E+03  0.20897053904E+03  0.00000000000E+00 0.  1.
          4    1    6    6  503    0  0.75560797519E+02 -0.12872746412E+03 -0.20835675780E+03  0.25630593567E+03  0.00000000000E+00 0.  1.
         -4    1    6    6    0  503  0.88330417736E+02 -0.42156651279E+03 -0.48948745387E+03  0.65201116164E+03  0.00000000000E+00 0. -1.
<mgrwt>
<rscale>  0 0.61637686E+03</rscale>
<asrwt>0</asrwt>
<pdfrwt beam="1">  1        2 0.23204087E+00 0.61637686E+03</pdfrwt>
<pdfrwt beam="2">  1       -2 0.41166689E-01 0.61637686E+03</pdfrwt>
<totfact> 0.72643977E+01</totfact>
</mgrwt>
</event>
<event>
12    1  0.1338445E-007  0.8360824E+03  0.7818608E-02  0.9509209E-01
          2   -1    0    0  501    0  0.00000000000E+00  0.00000000000E+00  0.11641250139E+04  0.11641250139E+04  0.00000000000E+00 0. -1.
         -2   -1    0    0    0  501 -0.00000000000E+00 -0.00000000000E+00 -0.81958939651E+03  0.81958939651E+03  0.00000000000E+00 0.  1.
         23    2    1    2    0    0 -0.79826439163E+03 -0.20809548854E+03 -0.16096097519E+03  0.84526780879E+03  0.89663045587E+02 0.  0.
    5000000    2    1    2    0    0  0.79826439163E+03  0.20809548854E+03  0.50549659259E+03  0.11384466016E+04  0.60000340696E+03 0.  0.
         23    2    4    4    0    0  0.49821483312E+03  0.77009808310E+02  0.59565842303E+03  0.78593432222E+03  0.93462673806E+02 0.  0.
         23    2    4    4    0    0  0.30004955851E+03  0.13108568023E+03 -0.90161830442E+02  0.35251227942E+03  0.94459294672E+02 0.  0.
          3    1    3    3  502    0 -0.20231977087E+03 -0.57886267502E+02 -0.81069005688E+02  0.22551339946E+03  0.00000000000E+00 0. -1.
         -3    1    3    3    0  502 -0.59594462076E+03 -0.15020922104E+03 -0.79891969497E+02  0.61975440933E+03  0.00000000000E+00 0.  1.
         11    1    5    5    0    0  0.66680864971E+02 -0.19855908425E+02  0.97471384036E+02  0.11975502310E+03  0.00000000000E+00 0.  1.
        -11    1    5    5    0    0  0.43153396815E+03  0.96865716736E+02  0.49818703899E+03  0.66617929911E+03  0.00000000000E+00 0. -1.
          1    1    6    6  503    0  0.10857573232E+03  0.86198551662E+02 -0.64783323162E+01  0.13878345992E+03  0.00000000000E+00 0. -1.
         -1    1    6    6    0  503  0.19147382619E+03  0.44887128572E+02 -0.83683498126E+02  0.21372881950E+03  0.00000000000E+00 0.  1.
<mgrwt>
<rscale>  0 0.83608240E+03</rscale>
<asrwt>0</asrwt>
<pdfrwt beam="1">  1        2 0.17909616E+00 0.83608240E+03</pdfrwt>
<pdfrwt beam="2">  1       -2 0.12609068E+00 0.83608240E+03</pdfrwt>
<totfact> 0.94230464E+00</totfact>
</mgrwt>
</event>
<event>
12    1  0.1338445E-007  0.8739041E+03  0.7818608E-02  0.9458804E-01
          2   -1    0    0  501    0  0.00000000000E+00  0.00000000000E+00  0.28148429371E+04  0.28148429371E+04  0.00000000000E+00 0. -1.
         -2   -1    0    0    0  501 -0.00000000000E+00 -0.00000000000E+00 -0.33790953693E+03  0.33790953693E+03  0.00000000000E+00 0.  1.
         23    2    1    2    0    0  0.66455429001E+03 -0.53138726477E+03  0.75901330154E+03  0.11438879649E+04  0.91507675507E+02 0.  0.
    5000000    2    1    2    0    0 -0.66455429001E+03  0.53138726477E+03  0.17179200986E+04  0.20088645092E+04  0.60023522177E+03 0.  0.
         23    2    4    4    0    0 -0.47889601361E+03  0.21758049617E+03  0.48938428741E+03  0.72421523749E+03  0.91148589038E+02 0.  0.
         23    2    4    4    0    0 -0.18565827641E+03  0.31380676860E+03  0.12285358112E+04  0.12846492717E+04  0.89887864622E+02 0.  0.
          3    1    3    3  502    0  0.47165069943E+03 -0.36391408073E+03  0.58397362085E+03  0.83421401947E+03  0.00000000000E+00 0. -1.
         -3    1    3    3    0  502  0.19290359058E+03 -0.16747318404E+03  0.17503968069E+03  0.30967394538E+03  0.00000000000E+00 0.  1.
         11    1    5    5    0    0 -0.12760195840E+03  0.34896481924E+02  0.79612929525E+02  0.15439638204E+03  0.00000000000E+00 0. -1.
        -11    1    5    5    0    0 -0.35129405520E+03  0.18268401425E+03  0.40977135788E+03  0.56981885545E+03  0.00000000000E+00 0.  1.
          2    1    6    6  503    0  0.23594842118E+00  0.24488694486E+02  0.36155837276E+02  0.43669169885E+02  0.00000000000E+00 0. -1.
         -2    1    6    6    0  503 -0.18589422483E+03  0.28931807411E+03  0.11923799739E+04  0.12409801018E+04  0.00000000000E+00 0.  1.
<mgrwt>
<rscale>  0 0.87390414E+03</rscale>
<asrwt>0</asrwt>
<pdfrwt beam="1">  1        2 0.43305275E+00 0.87390414E+03</pdfrwt>
<pdfrwt beam="2">  1       -2 0.51986084E-01 0.87390414E+03</pdfrwt>
<totfact> 0.82054965E+00</totfact>
</mgrwt>
</event>
<event>
12    1  0.1338445E-007  0.3758862E+03  0.7818608E-02  0.1052465E+00
         -2   -1    0    0    0  501 -0.00000000000E+00  0.00000000000E+00  0.79905627230E+03  0.79905627230E+03  0.00000000000E+00 0. -1.
          2   -1    0    0  501    0  0.00000000000E+00 -0.00000000000E+00 -0.30815090050E+03  0.30815090050E+03  0.00000000000E+00 0.  1.
         23    2    1    2    0    0 -0.29170626168E+03 -0.91514300791E+02  0.15184540774E+03  0.35325757562E+03  0.90920165708E+02 0.  0.
    5000000    2    1    2    0    0  0.29170626168E+03  0.91514300791E+02  0.33905996407E+03  0.75394959719E+03  0.60000910453E+03 0.  0.
         23    2    4    4    0    0 -0.92093032612E+01  0.10306353099E+03 -0.12887451217E+03  0.18997525538E+03  0.93675263998E+02 0.  0.
         23    2    4    4    0    0  0.30091556494E+03 -0.11549230195E+02  0.46793447623E+03  0.56397434180E+03  0.91765038127E+02 0.  0.
          2    1    3    3  502    0 -0.53134155835E+02  0.65457496365E+01  0.57607503505E+02  0.78642926030E+02  0.00000000000E+00 0. -1.
         -2    1    3    3    0  502 -0.23857210584E+03 -0.98060050428E+02  0.94237904231E+02  0.27461464959E+03  0.00000000000E+00 0.  1.
         11    1    5    5    0    0 -0.48745506872E+02  0.36402886075E+02 -0.44287683580E+02  0.75250870239E+02  0.00000000000E+00 0. -1.
        -11    1    5    5    0    0  0.39536203611E+02  0.66660644912E+02 -0.84586828589E+02  0.11472438514E+03  0.00000000000E+00 0.  1.
          4    1    6    6  503    0  0.14202184198E+03  0.56513440190E+01  0.14173399325E+03  0.20072534999E+03  0.00000000000E+00 0. -1.
         -4    1    6    6    0  503  0.15889372296E+03 -0.17200574215E+02  0.32620048299E+03  0.36324899181E+03  0.00000000000E+00 0.  1.
<mgrwt>
<rscale>  0 0.37588619E+03</rscale>
<asrwt>0</asrwt>
<pdfrwt beam="1">  1        2 0.47407831E-01 0.37588619E+03</pdfrwt>
<pdfrwt beam="2">  1       -2 0.12293173E+00 0.37588619E+03</pdfrwt>
<totfact> 0.55405560E+01</totfact>
</mgrwt>
</event>
<event>
12    1  0.1338445E-007  0.6930460E+03  0.7818608E-02  0.9729199E-01
         -2   -1    0    0    0  501 -0.00000000000E+00  0.00000000000E+00  0.82628139638E+03  0.82628139638E+03  0.00000000000E+00 0.  1.
          2   -1    0    0  501    0  0.00000000000E+00 -0.00000000000E+00 -0.72369067221E+03  0.72369067221E+03  0.00000000000E+00 0. -1.
         23    2    1    2    0    0  0.60487598494E+03  0.16445407647E+03 -0.13991569425E+03  0.64897086355E+03  0.93095004194E+02 0.  0.
    5000000    2    1    2    0    0 -0.60487598494E+03 -0.16445407647E+03  0.24250641842E+03  0.90100120505E+03  0.60006142026E+03 0.  0.
         23    2    4    4    0    0 -0.28278025331E+03  0.12828008416E+03 -0.10045825040E+03  0.33954353800E+03  0.93688326244E+02 0.  0.
         23    2    4    4    0    0 -0.32209573164E+03 -0.29273416063E+03  0.34296466882E+03  0.56145766704E+03  0.90393576532E+02 0.  0.
          1    1    3    3  502    0  0.20005872564E+03  0.79332842988E+02 -0.10262113578E+02  0.21545882358E+03  0.00000000000E+00 0. -1.
         -1    1    3    3    0  502  0.40481725930E+03  0.85121233485E+02 -0.12965358067E+03  0.43351203997E+03  0.00000000000E+00 0.  1.
         13    1    5    5    0    0 -0.19061877937E+03  0.43333116564E+02 -0.85333740258E+02  0.21329586322E+03  0.00000000000E+00 0. -1.
        -13    1    5    5    0    0 -0.92161473938E+02  0.84946967595E+02 -0.15124510146E+02  0.12624767479E+03  0.00000000000E+00 0.  1.
          2    1    6    6  503    0 -0.25573597881E+03 -0.24885099824E+03  0.23466782620E+03  0.42707926528E+03  0.00000000000E+00 0. -1.
         -2    1    6    6    0  503 -0.66359752830E+02 -0.43883162397E+02  0.10829684262E+03  0.13437840176E+03  0.00000000000E+00 0.  1.
<mgrwt>
<rscale>  0 0.69304596E+03</rscale>
<asrwt>0</asrwt>
<pdfrwt beam="1">  1        2 0.11133703E+00 0.69304596E+03</pdfrwt>
<pdfrwt beam="2">  1       -2 0.12712022E+00 0.69304596E+03</pdfrwt>
<totfact> 0.18410206E+01</totfact>
</mgrwt>
</event>
<event>
12    1  0.1338445E-007  0.5633761E+03  0.7818608E-02  0.9984444E-01
         -2   -1    0    0    0  501 -0.00000000000E+00  0.00000000000E+00  0.31618310718E+03  0.31618310718E+03  0.00000000000E+00 0. -1.
          2   -1    0    0  501    0  0.00000000000E+00 -0.00000000000E+00 -0.16371970100E+04  0.16371970100E+04  0.00000000000E+00 0.  1.
         23    2    1    2    0    0 -0.24341865115E+03  0.40342872448E+03 -0.10311427243E+04  0.11371271525E+04  0.88291945884E+02 0.  0.
    5000000    2    1    2    0    0  0.24341865115E+03 -0.40342872448E+03 -0.28987117856E+03  0.81625296468E+03  0.60019682333E+03 0.  0.
         23    2    4    4    0    0  0.11479827489E+03 -0.46922452949E+03 -0.38134496043E+03  0.62238199223E+03  0.92655611904E+02 0.  0.
         23    2    4    4    0    0  0.12862037626E+03  0.65795805004E+02  0.91473781878E+02  0.19387097245E+03  0.91357605282E+02 0.  0.
          3    1    3    3  502    0 -0.33857425558E+02  0.88350844580E+02 -0.28878115356E+03  0.30388608335E+03  0.00000000000E+00 0. -1.
         -3    1    3    3    0  502 -0.20956122559E+03  0.31507787990E+03 -0.74236157074E+03  0.83324106919E+03  0.00000000000E+00 0.  1.
         13    1    5    5    0    0  0.53620507416E+02 -0.24354105404E+03 -0.25472343858E+03  0.35647080383E+03  0.00000000000E+00 0. -1.
        -13    1    5    5    0    0  0.61177767474E+02 -0.22568347544E+03 -0.12662152185E+03  0.26591118840E+03  0.00000000000E+00 0.  1.
          1    1    6    6  503    0  0.12861560970E+03  0.26605210692E+02  0.64717163722E+02  0.14641763410E+03  0.00000000000E+00 0. -1.
         -1    1    6    6    0  503  0.47665528174E-02  0.39190594312E+02  0.26756618156E+02  0.47453338348E+02  0.00000000000E+00 0.  1.
<mgrwt>
<rscale>  0 0.56337609E+03</rscale>
<asrwt>0</asrwt>
<pdfrwt beam="1">  1        2 0.25187646E+00 0.56337609E+03</pdfrwt>
<pdfrwt beam="2">  1       -2 0.48643555E-01 0.56337609E+03</pdfrwt>
<totfact> 0.44644857E+01</totfact>
</mgrwt>
</event>
<event>
12    1  0.1338445E-007  0.1479303E+04  0.7818608E-02  0.8898334E-01
          1   -1    0    0  501    0  0.00000000000E+00  0.00000000000E+00  0.30179122543E+04  0.30179122543E+04  0.00000000000E+00 0. -1.
         -1   -1    0    0    0  501 -0.00000000000E+00 -0.00000000000E+00 -0.10029603297E+04  0.10029603297E+04  0.00000000000E+00 0.  1.
         23    2    1    2    0    0 -0.55834827504E+03  0.13102201201E+04  0.20225145736E+04  0.24754139274E+04  0.93163039097E+02 0.  0.
    5000000    2    1    2    0    0  0.55834827504E+03 -0.13102201201E+04 -0.75626489947E+01  0.15454586567E+04  0.59996308755E+03 0.  0.
         23    2    4    4    0    0  0.64535670172E+03 -0.86845652633E+03 -0.31804299143E+01  0.10857892510E+04  0.90698246578E+02 0.  0.
         23    2    4    4    0    0 -0.87008426674E+02 -0.44176359378E+03 -0.43822190804E+01  0.45966940564E+03  0.92472804308E+02 0.  0.
          1    1    3    3  502    0 -0.22848186488E+03  0.45488206112E+03  0.66847599772E+03  0.84022723810E+03  0.00000000000E+00 0. -1.
         -1    1    3    3    0  502 -0.32986641016E+03  0.85533805899E+03  0.13540385759E+04  0.16351866893E+04  0.00000000000E+00 0.  1.
         11    1    5    5    0    0  0.42229169566E+03 -0.54065054764E+03  0.38467230590E+02  0.68710480912E+03  0.00000000000E+00 0.  1.
        -11    1    5    5    0    0  0.22306500606E+03 -0.32780597868E+03 -0.41647660504E+02  0.39868444190E+03  0.00000000000E+00 0. -1.
          1    1    6    6  503    0 -0.64301032324E+02 -0.34027255274E+03  0.35878063631E+02  0.34814834246E+03  0.00000000000E+00 0. -1.
         -1    1    6    6    0  503 -0.22707394350E+02 -0.10149104104E+03 -0.40260282711E+02  0.11152106318E+03  0.00000000000E+00 0.  1.
<mgrwt>
<rscale>  0 0.14793034E+04</rscale>
<asrwt>0</asrwt>
<pdfrwt beam="1">  1        1 0.46429419E+00 0.14793034E+04</pdfrwt>
<pdfrwt beam="2">  1       -1 0.15430159E+00 0.14793034E+04</pdfrwt>
<totfact> 0.17880283E-01</totfact>
</mgrwt>
</event>
<event>
12    1  0.1338445E-007  0.6280000E+03  0.7818608E-02  0.9848959E-01
          2   -1    0    0  501    0  0.00000000000E+00  0.00000000000E+00  0.15991663811E+04  0.15991663811E+04  0.00000000000E+00 0. -1.
         -2   -1    0    0    0  501 -0.00000000000E+00 -0.00000000000E+00 -0.43206903049E+03  0.43206903049E+03  0.00000000000E+00 0.  1.
         23    2    1    2    0    0 -0.47532557677E+03 -0.15165924003E+03  0.11430573977E+04  0.12505200528E+04  0.91023397729E+02 0.  0.
    5000000    2    1    2    0    0  0.47532557677E+03  0.15165924003E+03  0.24039952864E+02  0.78071535878E+03  0.60000301922E+03 0.  0.
         23    2    4    4    0    0  0.46847525905E+03 -0.11913944991E+03 -0.13437285925E+02  0.49187706405E+03  0.89995603314E+02 0.  0.
         23    2    4    4    0    0  0.68503177182E+01  0.27079868994E+03  0.37477238789E+02  0.28883829473E+03  0.92973973486E+02 0.  0.
          1    1    3    3  502    0 -0.41157207822E+03 -0.11446399307E+03  0.10346340345E+04  0.11193574794E+04  0.00000000000E+00 0. -1.
         -1    1    3    3    0  502 -0.63753498549E+02 -0.37195246963E+02  0.10842336320E+03  0.13116257340E+03  0.00000000000E+00 0.  1.
         11    1    5    5    0    0  0.35721754374E+03 -0.10004598259E+03  0.27059481526E+02  0.37194863587E+03  0.00000000000E+00 0. -1.
        -11    1    5    5    0    0  0.11125771531E+03 -0.19093467326E+02 -0.40496767451E+02  0.11992842818E+03  0.00000000000E+00 0.  1.
          3    1    6    6  503    0 -0.26658945866E+01  0.13110788768E+03  0.64659507858E+02  0.14620956591E+03  0.00000000000E+00 0. -1.
         -3    1    6    6    0  503  0.95162123048E+01  0.13969080226E+03 -0.27182269069E+02  0.14262872882E+03  0.00000000000E+00 0.  1.
<mgrwt>
<rscale>  0 0.62799999E+03</rscale>
<asrwt>0</asrwt>
<pdfrwt beam="1">  1        2 0.24602559E+00 0.62799999E+03</pdfrwt>
<pdfrwt beam="2">  1       -2 0.66472159E-01 0.62799999E+03</pdfrwt>
<totfact> 0.24206850E+01</totfact>
</mgrwt>
</event>
<event>
12    1  0.1338445E-007  0.7440777E+03  0.7818608E-02  0.9644688E-01
         -1   -1    0    0    0  501 -0.00000000000E+00  0.00000000000E+00  0.62115195335E+03  0.62115195335E+03  0.00000000000E+00 0.  1.
          1   -1    0    0  501    0  0.00000000000E+00 -0.00000000000E+00 -0.10298246080E+04  0.10298246080E+04  0.00000000000E+00 0. -1.
         23    2    1    2    0    0  0.24067128892E+03  0.62698293087E+03 -0.30833412122E+03  0.74483464450E+03  0.93158211791E+02 0.  0.
    5000000    2    1    2    0    0 -0.24067128892E+03 -0.62698293087E+03 -0.10033853342E+03  0.90614191683E+03  0.59999590601E+03 0.  0.
         23    2    4    4    0    0 -0.34626143434E+03 -0.55301768081E+03 -0.23424918054E+03  0.69915436242E+03  0.90656537006E+02 0.  0.
         23    2    4    4    0    0  0.10559014542E+03 -0.73965250062E+02  0.13391064713E+03  0.20698755441E+03  0.91058493505E+02 0.  0.
          3    1    3    3  502    0  0.11991188057E+03  0.42324647753E+03 -0.17845607851E+03  0.47472414284E+03  0.00000000000E+00 0. -1.
         -3    1    3    3    0  502  0.12075940835E+03  0.20373645334E+03 -0.12987804271E+03  0.27011050166E+03  0.00000000000E+00 0.  1.
         13    1    5    5    0    0 -0.13482258148E+03 -0.13776260231E+03 -0.68374750125E+02  0.20452571850E+03  0.00000000000E+00 0. -1.
        -13    1    5    5    0    0 -0.21143885286E+03 -0.41525507850E+03 -0.16587443042E+03  0.49462864392E+03  0.00000000000E+00 0.  1.
          1    1    6    6  503    0  0.98856824314E+02 -0.23308361481E+02  0.11254289729E+03  0.15159767531E+03  0.00000000000E+00 0. -1.
         -1    1    6    6    0  503  0.67333211086E+01 -0.50656888582E+02  0.21367749839E+02  0.55389879104E+02  0.00000000000E+00 0.  1.
<mgrwt>
<rscale>  0 0.74407770E+03</rscale>
<asrwt>0</asrwt>
<pdfrwt beam="1">  1        1 0.15843455E+00 0.74407770E+03</pdfrwt>
<pdfrwt beam="2">  1       -1 0.95561840E-01 0.74407770E+03</pdfrwt>
<totfact> 0.15632176E+01</totfact>
</mgrwt>
</event>
<event>
12    1  0.1338445E-007  0.6500566E+03  0.7818608E-02  0.9806673E-01
          2   -1    0    0  501    0  0.00000000000E+00  0.00000000000E+00  0.10459517021E+04  0.10459517021E+04  0.00000000000E+00 0. -1.
         -2   -1    0    0    0  501 -0.00000000000E+00 -0.00000000000E+00 -0.61677921637E+03  0.61677921637E+03  0.00000000000E+00 0.  1.
         23    2    1    2    0    0  0.54737242036E+03 -0.72267139529E+02  0.60949298597E+03  0.82769254201E+03  0.93563551297E+02 0.  0.
    5000000    2    1    2    0    0 -0.54737242036E+03  0.72267139529E+02 -0.18032050023E+03  0.83503837647E+03  0.59994541531E+03 0.  0.
         23    2    4    4    0    0 -0.27164347241E+03 -0.20185870787E+03 -0.24839039163E+03  0.42957634198E+03  0.91109455531E+02 0.  0.
         23    2    4    4    0    0 -0.27572894795E+03  0.27412584740E+03  0.68069891394E+02  0.40546203449E+03  0.92706625158E+02 0.  0.
          3    1    3    3  502    0  0.28340561421E+03 -0.19044788667E+02  0.24902322848E+03  0.37774861279E+03  0.00000000000E+00 0. -1.
         -3    1    3    3    0  502  0.26396680614E+03 -0.53222350862E+02  0.36046975749E+03  0.44994392922E+03  0.00000000000E+00 0.  1.
         13    1    5    5    0    0 -0.20894881591E+03 -0.19224628432E+03 -0.17940329398E+03  0.33586274487E+03  0.00000000000E+00 0.  1.
        -13    1    5    5    0    0 -0.62694656503E+02 -0.96124235552E+01 -0.68987097643E+02  0.93713597102E+02  0.00000000000E+00 0. -1.
          2    1    6    6  503    0 -0.25187644536E+03  0.20019354769E+03  0.60794803231E+02  0.32743733502E+03  0.00000000000E+00 0.  1.
         -2    1    6    6    0  503 -0.23852502592E+02  0.73932299708E+02  0.72750881634E+01  0.78024699473E+02  0.00000000000E+00 0. -1.
<mgrwt>
<rscale>  0 0.65005661E+03</rscale>
<asrwt>0</asrwt>
<pdfrwt beam="1">  1        2 0.16091565E+00 0.65005661E+03</pdfrwt>
<pdfrwt beam="2">  1       -2 0.94889110E-01 0.65005661E+03</pdfrwt>
<totfact> 0.22630292E+01</totfact>
</mgrwt>
</event>
<event>
12    1  0.1338445E-007  0.5379460E+03  0.7818608E-02  0.1004323E+00
         -2   -1    0    0    0  501 -0.00000000000E+00  0.00000000000E+00  0.22114185677E+03  0.22114185677E+03  0.00000000000E+00 0.  1.
          2   -1    0    0  501    0  0.00000000000E+00 -0.00000000000E+00 -0.31401451100E+04  0.31401451100E+04  0.00000000000E+00 0. -1.
         23    2    1    2    0    0 -0.62447324378E+01  0.38483114944E+03 -0.43564951117E+02  0.39880443114E+03  0.94937132196E+02 0.  0.
    5000000    2    1    2    0    0  0.62447324378E+01 -0.38483114944E+03 -0.28754383021E+04  0.29624825356E+04  0.60001944503E+03 0.  0.
         23    2    4    4    0    0 -0.27856229208E+03 -0.23745051791E+03 -0.14175389629E+04  0.14668887487E+04  0.91466882858E+02 0.  0.
         23    2    4    4    0    0  0.28480702452E+03 -0.14738063153E+03 -0.14578993392E+04  0.14955937869E+04  0.92163987029E+02 0.  0.
          3    1    3    3  502    0 -0.18649259574E+02  0.10998296047E+03  0.26994668134E+02  0.11477263865E+03  0.00000000000E+00 0. -1.
         -3    1    3    3    0  502  0.12404527136E+02  0.27484818897E+03 -0.70559619251E+02  0.28403179248E+03  0.00000000000E+00 0.  1.
         13    1    5    5    0    0 -0.48812589013E+02 -0.22143726909E+02 -0.11569180581E+03  0.12750532310E+03  0.00000000000E+00 0.  1.
        -13    1    5    5    0    0 -0.22974970307E+03 -0.21530679100E+03 -0.13018471571E+04  0.13393834256E+04  0.00000000000E+00 0. -1.
          4    1    6    6  503    0  0.15457283091E+03 -0.76451819719E+02 -0.98519913736E+03  0.10001774748E+04  0.00000000000E+00 0. -1.
         -4    1    6    6    0  503  0.13023419362E+03 -0.70928811809E+02 -0.47270020181E+03  0.49541631213E+03  0.00000000000E+00 0.  1.
<mgrwt>
<rscale>  0 0.53794600E+03</rscale>
<asrwt>0</asrwt>
<pdfrwt beam="1">  1        2 0.48309922E+00 0.53794600E+03</pdfrwt>
<pdfrwt beam="2">  1       -2 0.34021826E-01 0.53794600E+03</pdfrwt>
<totfact> 0.12792616E+01</totfact>
</mgrwt>
</event>
<event>
12    1  0.1338445E-007  0.5622159E+03  0.7818608E-02  0.9987053E-01
         -3   -1    0    0    0  501 -0.00000000000E+00  0.00000000000E+00  0.91995131006E+03  0.91995131006E+03  0.00000000000E+00 0.  1.
          3   -1    0    0  501    0  0.00000000000E+00 -0.00000000000E+00 -0.55279965742E+03  0.55279965742E+03  0.00000000000E+00 0. -1.
         23    2    1    2    0    0 -0.42667426393E+03  0.21459817051E+03 -0.19224480395E+03  0.52333828306E+03  0.93923328218E+02 0.  0.
    5000000    2    1    2    0    0  0.42667426393E+03 -0.21459817051E+03  0.55939645659E+03  0.94941268442E+03  0.60029721590E+03 0.  0.
         23    2    4    4    0    0 -0.28807856301E+02  0.47521180087E+02 -0.64768227442E+02  0.12830824376E+03  0.95811935527E+02 0.  0.
         23    2    4    4    0    0  0.45548212023E+03 -0.26211935060E+03  0.62416468403E+03  0.82110444066E+03  0.91980616863E+02 0.  0.
          2    1    3    3  502    0 -0.17953340172E+03  0.39436012426E+02 -0.74655414700E+02  0.19839574681E+03  0.00000000000E+00 0. -1.
         -2    1    3    3    0  502 -0.24714086221E+03  0.17516215808E+03 -0.11758938925E+03  0.32494253625E+03  0.00000000000E+00 0.  1.
         11    1    5    5    0    0  0.29974079445E+02 -0.84315380069E+00 -0.36191635542E+02  0.46999902448E+02  0.00000000000E+00 0.  1.
        -11    1    5    5    0    0 -0.58781935746E+02  0.48364333888E+02 -0.28576591900E+02  0.81308341313E+02  0.00000000000E+00 0. -1.
          3    1    6    6  503    0  0.34456030359E+03 -0.15653099471E+03  0.47492229810E+03  0.60726842858E+03  0.00000000000E+00 0. -1.
         -3    1    6    6    0  503  0.11092181663E+03 -0.10558835589E+03  0.14924238593E+03  0.21383601208E+03  0.00000000000E+00 0.  1.
<mgrwt>
<rscale>  0 0.56221592E+03</rscale>
<asrwt>0</asrwt>
<pdfrwt beam="1">  1        3 0.85046101E-01 0.56221592E+03</pdfrwt>
<pdfrwt beam="2">  1       -3 0.14153097E+00 0.56221592E+03</pdfrwt>
<totfact> 0.12441514E+00</totfact>
</mgrwt>
</event>
<event>
12    1  0.1338445E-007  0.4954121E+03  0.7818608E-02  0.1014983E+00
          2   -1    0    0  501    0  0.00000000000E+00  0.00000000000E+00  0.10958235706E+04  0.10958235706E+04  0.00000000000E+00 0. -1.
         -2   -1    0    0    0  501 -0.00000000000E+00 -0.00000000000E+00 -0.24489649862E+03  0.24489649862E+03  0.00000000000E+00 0.  1.
         23    2    1    2    0    0  0.33153705255E+03 -0.11425500921E+02  0.35827965893E+03  0.49656331345E+03  0.90351817791E+02 0.  0.
    5000000    2    1    2    0    0 -0.33153705255E+03  0.11425500921E+02  0.49264741310E+03  0.84415675581E+03  0.59987648351E+03 0.  0.
         23    2    4    4    0    0 -0.48024706853E+03 -0.43478547774E+02  0.42504398018E+03  0.64904585695E+03  0.89836008304E+02 0.  0.
         23    2    4    4    0    0  0.14871001598E+03  0.54904048695E+02  0.67603432918E+02  0.19511089887E+03  0.91481775776E+02 0.  0.
          3    1    3    3  502    0  0.16485161342E+03  0.21432145592E+02  0.12507749573E+03  0.20803790820E+03  0.00000000000E+00 0. -1.
         -3    1    3    3    0  502  0.16668543914E+03 -0.32857646513E+02  0.23320216320E+03  0.28852540526E+03  0.00000000000E+00 0.  1.
         13    1    5    5    0    0 -0.17522114258E+03 -0.41063513219E+01  0.10101302312E+03  0.20229419609E+03  0.00000000000E+00 0. -1.
        -13    1    5    5    0    0 -0.30502592595E+03 -0.39372196452E+02  0.32403095706E+03  0.44675166086E+03  0.00000000000E+00 0.  1.
          2    1    6    6  503    0  0.98395553955E+02  0.68326666856E+02  0.76707199841E+02  0.14224701385E+03  0.00000000000E+00 0. -1.
         -2    1    6    6    0  503  0.50314462020E+02 -0.13422618161E+02 -0.91037669229E+01  0.52863885015E+02  0.00000000000E+00 0.  1.
<mgrwt>
<rscale>  0 0.49541213E+03</rscale>
<asrwt>0</asrwt>
<pdfrwt beam="1">  1        2 0.16858824E+00 0.49541213E+03</pdfrwt>
<pdfrwt beam="2">  1       -2 0.37676385E-01 0.49541213E+03</pdfrwt>
<totfact> 0.15062015E+02</totfact>
</mgrwt>
</event>
<event>
12    1  0.1338445E-007  0.6803786E+03  0.7818608E-02  0.9751389E-01
         -1   -1    0    0    0  501 -0.00000000000E+00  0.00000000000E+00  0.76197713186E+03  0.76197713186E+03  0.00000000000E+00 0.  1.
          1   -1    0    0  501    0  0.00000000000E+00 -0.00000000000E+00 -0.14482803553E+04  0.14482803553E+04  0.00000000000E+00 0. -1.
         23    2    1    2    0    0  0.57445746408E+03 -0.35544690801E+02 -0.11275014614E+04  0.12690803962E+04  0.89669969760E+02 0.  0.
    5000000    2    1    2    0    0 -0.57445746408E+03  0.35544690801E+02  0.44119823796E+03  0.94117709097E+03  0.59991135037E+03 0.  0.
         23    2    4    4    0    0 -0.63999723080E+03  0.11856232261E+03  0.45824647424E+03  0.80101208050E+03  0.89314288763E+02 0.  0.
         23    2    4    4    0    0  0.65539766722E+02 -0.83017631813E+02 -0.17048236284E+02  0.14016501046E+03  0.90378092390E+02 0.  0.
          2    1    3    3  502    0  0.11391194352E+03  0.25372675729E+02 -0.26098864323E+03  0.28589294403E+03  0.00000000000E+00 0. -1.
         -2    1    3    3    0  502  0.46054552057E+03 -0.60917366530E+02 -0.86651281817E+03  0.98318745217E+03  0.00000000000E+00 0.  1.
         11    1    5    5    0    0 -0.49149910656E+03  0.52767079988E+02  0.35419320759E+03  0.60811887390E+03  0.00000000000E+00 0.  1.
        -11    1    5    5    0    0 -0.14849812424E+03  0.65795242625E+02  0.10405326665E+03  0.19289320660E+03  0.00000000000E+00 0. -1.
          1    1    6    6  503    0  0.39966924589E+02 -0.88043133018E+02 -0.40760337497E+02  0.10493023132E+03  0.00000000000E+00 0. -1.
         -1    1    6    6    0  503  0.25572842133E+02  0.50255012051E+01  0.23712101212E+02  0.35234779140E+02  0.00000000000E+00 0.  1.
<mgrwt>
<rscale>  0 0.68037860E+03</rscale>
<asrwt>0</asrwt>
<pdfrwt beam="1">  1        1 0.22281236E+00 0.68037860E+03</pdfrwt>
<pdfrwt beam="2">  1       -1 0.11722725E+00 0.68037860E+03</pdfrwt>
<totfact> 0.49100425E+00</totfact>
</mgrwt>
</event>
<event>
12    1  0.1338445E-007  0.9533391E+03  0.7818608E-02  0.9361256E-01
          2   -1    0    0  501    0  0.00000000000E+00  0.00000000000E+00  0.12054314340E+04  0.12054314340E+04  0.00000000000E+00 0. -1.
         -2   -1    0    0    0  501 -0.00000000000E+00 -0.00000000000E+00 -0.15449660648E+04  0.15449660648E+04  0.00000000000E+00 0.  1.
         23    2    1    2    0    0  0.62223911128E+02  0.87080100855E+03 -0.11283661737E+04  0.14295704156E+04  0.91077657235E+02 0.  0.
    5000000    2    1    2    0    0 -0.62223911128E+02 -0.87080100855E+03  0.78883154291E+03  0.13208270832E+04  0.60013562559E+03 0.  0.
         23    2    4    4    0    0  0.23015118465E+03 -0.48338356391E+03  0.27741301952E+03  0.60987414350E+03  0.91428933400E+02 0.  0.
         23    2    4    4    0    0 -0.29237509578E+03 -0.38741744464E+03  0.51141852339E+03  0.71095293973E+03  0.91267208800E+02 0.  0.
          3    1    3    3  502    0 -0.43255983953E+01  0.46206203791E+03 -0.55248048885E+03  0.72024629693E+03  0.00000000000E+00 0. -1.
         -3    1    3    3    0  502  0.66549509523E+02  0.40873897064E+03 -0.57588568485E+03  0.70932411869E+03  0.00000000000E+00 0.  1.
         13    1    5    5    0    0  0.79201041503E+02 -0.26401678411E+03  0.16137122400E+03  0.31940309830E+03  0.00000000000E+00 0. -1.
        -13    1    5    5    0    0  0.15095014315E+03 -0.21936677979E+03  0.11604179552E+03  0.29047104520E+03  0.00000000000E+00 0.  1.
          2    1    6    6  503    0 -0.21172413058E+03 -0.31856329433E+03  0.44042264606E+03  0.58333676990E+03  0.00000000000E+00 0. -1.
         -2    1    6    6    0  503 -0.80650965198E+02 -0.68854150316E+02  0.70995877330E+02  0.12761616983E+03  0.00000000000E+00 0.  1.
<mgrwt>
<rscale>  0 0.95333909E+03</rscale>
<asrwt>0</asrwt>
<pdfrwt beam="1">  1        2 0.18545099E+00 0.95333909E+03</pdfrwt>
<pdfrwt beam="2">  1       -2 0.23768709E+00 0.95333909E+03</pdfrwt>
<totfact> 0.14419813E+00</totfact>
</mgrwt>
</event>
<event>
12    1  0.1338445E-007  0.9560124E+03  0.7818608E-02  0.9358150E-01
         -2   -1    0    0    0  501 -0.00000000000E+00  0.00000000000E+00  0.19429404220E+04  0.19429404220E+04  0.00000000000E+00 0.  1.
          2   -1    0    0  501    0  0.00000000000E+00 -0.00000000000E+00 -0.14261487127E+04  0.14261487127E+04  0.00000000000E+00 0. -1.
         23    2    1    2    0    0  0.42304902453E+03 -0.75959585419E+03 -0.11202208502E+04  0.14208608180E+04  0.89411251178E+02 0.  0.
    5000000    2    1    2    0    0 -0.42304902453E+03  0.75959585419E+03  0.16370125595E+04  0.19482283167E+04  0.59985591206E+03 0.  0.
         23    2    4    4    0    0  0.12473604998E+03  0.19648700842E+03  0.26303697983E+03  0.36289717848E+03  0.91321863457E+02 0.  0.
         23    2    4    4    0    0 -0.54778507451E+03  0.56310884577E+03  0.13739755797E+04  0.15853311383E+04  0.91136514603E+02 0.  0.
          3    1    3    3  502    0  0.15168324368E+03 -0.19021871458E+03 -0.30830658693E+03  0.39273899391E+03  0.00000000000E+00 0. -1.
         -3    1    3    3    0  502  0.27136578085E+03 -0.56937713961E+03 -0.81191426331E+03  0.10281218241E+04  0.00000000000E+00 0.  1.
         13    1    5    5    0    0  0.27767658684E+02  0.12501687237E+03  0.11574050552E+03  0.17261554352E+03  0.00000000000E+00 0. -1.
        -13    1    5    5    0    0  0.96968391296E+02  0.71470136045E+02  0.14729647431E+03  0.19028163496E+03  0.00000000000E+00 0.  1.
          1    1    6    6  503    0 -0.39747052765E+03  0.35618940082E+03  0.88398833586E+03  0.10326127481E+04  0.00000000000E+00 0. -1.
         -1    1    6    6    0  503 -0.15031454686E+03  0.20691944495E+03  0.48998724384E+03  0.55271839016E+03  0.00000000000E+00 0.  1.
<mgrwt>
<rscale>  0 0.95601238E+03</rscale>
<asrwt>0</asrwt>
<pdfrwt beam="1">  1        2 0.21940749E+00 0.95601238E+03</pdfrwt>
<pdfrwt beam="2">  1       -2 0.29891391E+00 0.95601238E+03</pdfrwt>
<totfact> 0.45666310E-01</totfact>
</mgrwt>
</event>
<event>
12    1  0.1338445E-007  0.8709526E+03  0.7818608E-02  0.9462639E-01
         -1   -1    0    0    0  501 -0.00000000000E+00  0.00000000000E+00  0.67586764109E+03  0.67586764109E+03  0.00000000000E+00 0.  1.
          1   -1    0    0  501    0  0.00000000000E+00 -0.00000000000E+00 -0.12210265409E+04  0.12210265409E+04  0.00000000000E+00 0. -1.
         23    2    1    2    0    0 -0.31522300235E+03 -0.72249390370E+03 -0.65761557955E+02  0.79636216238E+03  0.92223256668E+02 0.  0.
    5000000    2    1    2    0    0  0.31522300235E+03  0.72249390370E+03 -0.47939734181E+03  0.11005320196E+04  0.59998827712E+03 0.  0.
         23    2    4    4    0    0  0.42433638129E+03  0.66635487427E+03 -0.50901740378E+03  0.94407913853E+03  0.89980661847E+02 0.  0.
         23    2    4    4    0    0 -0.10911337894E+03  0.56139029424E+02  0.29620061969E+02  0.15645288104E+03  0.92427462511E+02 0.  0.
          3    1    3    3  502    0 -0.14921197634E+03 -0.23224240599E+03 -0.23451455406E+02  0.27703920261E+03  0.00000000000E+00 0. -1.
         -3    1    3    3    0  502 -0.16601102601E+03 -0.49025149771E+03 -0.42310102550E+02  0.51932295977E+03  0.00000000000E+00 0.  1.
         11    1    5    5    0    0  0.97535285545E+02  0.91518776370E+02 -0.79685529965E+02  0.15568751408E+03  0.00000000000E+00 0. -1.
        -11    1    5    5    0    0  0.32680109575E+03  0.57483609790E+03 -0.42933187381E+03  0.78839162445E+03  0.00000000000E+00 0.  1.
          2    1    6    6  503    0 -0.95883706752E+01 -0.23777049752E+02  0.89252057397E+01  0.27146717013E+02  0.00000000000E+00 0. -1.
         -2    1    6    6    0  503 -0.99525008266E+02  0.79916079176E+02  0.20694856229E+02  0.12930616403E+03  0.00000000000E+00 0.  1.
<mgrwt>
<rscale>  0 0.87095263E+03</rscale>
<asrwt>0</asrwt>
<pdfrwt beam="1">  1        1 0.18785024E+00 0.87095263E+03</pdfrwt>
<pdfrwt beam="2">  1       -1 0.10397964E+00 0.87095263E+03</pdfrwt>
<totfact> 0.91501241E+00</totfact>
</mgrwt>
</event>
<event>
12    1  0.1338445E-007  0.1112852E+04  0.7818608E-02  0.9192756E-01
         -1   -1    0    0    0  501 -0.00000000000E+00  0.00000000000E+00  0.40955579603E+03  0.40955579603E+03  0.00000000000E+00 0.  1.
          1   -1    0    0  501    0  0.00000000000E+00 -0.00000000000E+00 -0.30878395410E+04  0.30878395410E+04  0.00000000000E+00 0. -1.
         23    2    1    2    0    0  0.91867102065E+03  0.46601157016E+03 -0.14933005211E+04  0.18165173064E+04  0.93088400305E+02 0.  0.
    5000000    2    1    2    0    0 -0.91867102065E+03 -0.46601157016E+03 -0.11849832238E+04  0.16808780306E+04  0.60003540347E+03 0.  0.
         23    2    4    4    0    0  0.35920928404E+02  0.42729513457E+02 -0.10212345507E+03  0.14755064298E+03  0.90696569665E+02 0.  0.
         23    2    4    4    0    0 -0.95459194905E+03 -0.50874108362E+03 -0.10828597687E+04  0.15333273876E+04  0.91892979067E+02 0.  0.
          3    1    3    3  502    0  0.36417388432E+03  0.13446669580E+03 -0.55246958933E+03  0.67522333893E+03  0.00000000000E+00 0. -1.
         -3    1    3    3    0  502  0.55449713633E+03  0.33154487436E+03 -0.94083093179E+03  0.11412939674E+04  0.00000000000E+00 0.  1.
         11    1    5    5    0    0  0.57630149540E+02 -0.42517399667E+00 -0.47985153351E+02  0.74993265371E+02  0.00000000000E+00 0. -1.
        -11    1    5    5    0    0 -0.21709221136E+02  0.43154687454E+02 -0.54138301723E+02  0.72557377606E+02  0.00000000000E+00 0.  1.
          1    1    6    6  503    0 -0.31322170668E+03 -0.21601994501E+03 -0.37019758298E+03  0.53086599497E+03  0.00000000000E+00 0. -1.
         -1    1    6    6    0  503 -0.64137024237E+03 -0.29272113862E+03 -0.71266218576E+03  0.10024613927E+04  0.00000000000E+00 0.  1.
<mgrwt>
<rscale>  0 0.11128516E+04</rscale>
<asrwt>0</asrwt>
<pdfrwt beam="1">  1        1 0.47505222E+00 0.11128516E+04</pdfrwt>
<pdfrwt beam="2">  1       -1 0.63008586E-01 0.11128516E+04</pdfrwt>
<totfact> 0.13330612E+00</totfact>
</mgrwt>
</event>
<event>
12    1  0.1338445E-007  0.5388530E+03  0.7818608E-02  0.1004107E+00
         -2   -1    0    0    0  501 -0.00000000000E+00  0.00000000000E+00  0.12036541782E+03  0.12036541782E+03  0.00000000000E+00 0.  1.
          2   -1    0    0  501    0  0.00000000000E+00 -0.00000000000E+00 -0.36923995326E+04  0.36923995326E+04  0.00000000000E+00 0. -1.
         23    2    1    2    0    0  0.11686054867E+03  0.40419174488E+03 -0.52525044249E+03  0.67909597572E+03  0.90862326891E+02 0.  0.
    5000000    2    1    2    0    0 -0.11686054867E+03 -0.40419174488E+03 -0.30467836723E+04  0.31336689747E+04  0.59996928488E+03 0.  0.
         23    2    4    4    0    0 -0.14244167111E+03 -0.50583699203E+03 -0.17516653029E+04  0.18310827499E+04  0.91498696819E+02 0.  0.
         23    2    4    4    0    0  0.25581122434E+02  0.10164524716E+03 -0.12951183694E+04  0.13025862248E+04  0.91723127605E+02 0.  0.
          3    1    3    3  502    0  0.23799705584E+02  0.10059962202E+03 -0.19650383564E+03  0.22203708554E+03  0.00000000000E+00 0. -1.
         -3    1    3    3    0  502  0.93060843091E+02  0.30359212286E+03 -0.32874660685E+03  0.45705889018E+03  0.00000000000E+00 0.  1.
         13    1    5    5    0    0 -0.34582471073E+02 -0.28639923763E+03 -0.91160866367E+03  0.95616464393E+03  0.00000000000E+00 0.  1.
        -13    1    5    5    0    0 -0.10785920003E+03 -0.21943775440E+03 -0.84005663919E+03  0.87491810596E+03  0.00000000000E+00 0. -1.
          3    1    6    6  503    0 -0.22536546819E+02  0.33888720195E+02 -0.75655154348E+03  0.75764541788E+03  0.00000000000E+00 0. -1.
         -3    1    6    6    0  503  0.48117669252E+02  0.67756526962E+02 -0.53856682597E+03  0.54494080694E+03  0.00000000000E+00 0.  1.
<mgrwt>
<rscale>  0 0.53885304E+03</rscale>
<asrwt>0</asrwt>
<pdfrwt beam="1">  1        2 0.56806143E+00 0.53885304E+03</pdfrwt>
<pdfrwt beam="2">  1       -2 0.18517758E-01 0.53885304E+03</pdfrwt>
<totfact> 0.16418639E+01</totfact>
</mgrwt>
</event>
<event>
12    1  0.1338445E-007  0.1143828E+04  0.7818608E-02  0.9163496E-01
         -1   -1    0    0    0  501 -0.00000000000E+00  0.00000000000E+00  0.36115115281E+04  0.36115115281E+04  0.00000000000E+00 0.  1.
          1   -1    0    0  501    0  0.00000000000E+00 -0.00000000000E+00 -0.51569746950E+03  0.51569746950E+03  0.00000000000E+00 0. -1.
         23    2    1    2    0    0  0.97832283695E+03 -0.52264967944E+03  0.24915505058E+04  0.27288226065E+04  0.91491170050E+02 0.  0.
    5000000    2    1    2    0    0 -0.97832283695E+03  0.52264967944E+03  0.60426355276E+03  0.13983863910E+04  0.60005982762E+03 0.  0.
         23    2    4    4    0    0 -0.94734275352E+03  0.40055677715E+03  0.66726540142E+03  0.12294058334E+04  0.91058019489E+02 0.  0.
         23    2    4    4    0    0 -0.30980083433E+02  0.12209290228E+03 -0.63001848653E+02  0.16898055763E+03  0.93374266084E+02 0.  0.
          2    1    3    3  502    0  0.84342047700E+03 -0.45321454138E+03  0.22218195686E+04  0.24193477875E+04  0.00000000000E+00 0. -1.
         -2    1    3    3    0  502  0.13490235995E+03 -0.69435138057E+02  0.26973093724E+03  0.30947481904E+03  0.00000000000E+00 0.  1.
         11    1    5    5    0    0 -0.41347527104E+03  0.20845153153E+03  0.26063903521E+03  0.53136291500E+03  0.00000000000E+00 0. -1.
        -11    1    5    5    0    0 -0.53386748248E+03  0.19210524562E+03  0.40662636621E+03  0.69804291841E+03  0.00000000000E+00 0.  1.
          2    1    6    6  503    0 -0.44200055923E+02  0.26517270344E+02 -0.49664081143E+02  0.71577451239E+02  0.00000000000E+00 0. -1.
         -2    1    6    6    0  503  0.13219972490E+02  0.95575631937E+02 -0.13337767510E+02  0.97403106392E+02  0.00000000000E+00 0.  1.
<mgrwt>
<rscale>  0 0.11438285E+04</rscale>
<asrwt>0</asrwt>
<pdfrwt beam="1">  1        1 0.79338075E-01 0.11438285E+04</pdfrwt>
<pdfrwt beam="2">  1       -1 0.55561714E+00 0.11438285E+04</pdfrwt>
<totfact> 0.29178746E-02</totfact>
</mgrwt>
</event>
<event>
12    1  0.1338445E-007  0.4262852E+03  0.7818608E-02  0.1035040E+00
         -1   -1    0    0    0  501 -0.00000000000E+00  0.00000000000E+00  0.27285489877E+03  0.27285489877E+03  0.00000000000E+00 0.  1.
          1   -1    0    0  501    0  0.00000000000E+00 -0.00000000000E+00 -0.84476868992E+03  0.84476868992E+03  0.00000000000E+00 0. -1.
         23    2    1    2    0    0  0.79116967060E+02  0.23945607369E+03 -0.30885858338E+02  0.27128957564E+03  0.95107265244E+02 0.  0.
    5000000    2    1    2    0    0 -0.79116967060E+02 -0.23945607369E+03 -0.54102793281E+03  0.84633401305E+03  0.59997610942E+03 0.  0.
         23    2    4    4    0    0 -0.51881091519E+02  0.16125059095E+03 -0.33960785904E+03  0.38777603764E+03  0.79645192647E+02 0.  0.
         23    2    4    4    0    0 -0.27235875541E+02 -0.40070666463E+03 -0.20142007377E+03  0.45855797541E+03  0.91639220309E+02 0.  0.
          1    1    3    3  502    0  0.60166291090E+02  0.48938389014E+02 -0.13571765749E+01  0.77567972972E+02  0.00000000000E+00 0. -1.
         -1    1    3    3    0  502  0.18950675971E+02  0.19051768467E+03 -0.29528681763E+02  0.19372160266E+03  0.00000000000E+00 0.  1.
         13    1    5    5    0    0 -0.60362303587E+02  0.90897030326E+02 -0.15101990076E+03  0.18631395075E+03  0.00000000000E+00 0.  1.
        -13    1    5    5    0    0  0.84812120681E+01  0.70353560620E+02 -0.18858795828E+03  0.20146208690E+03  0.00000000000E+00 0. -1.
          3    1    6    6  503    0 -0.22040479153E+02 -0.84405746516E+02 -0.84062690967E+02  0.12114721944E+03  0.00000000000E+00 0. -1.
         -3    1    6    6    0  503 -0.51953963887E+01 -0.31630091812E+03 -0.11735738280E+03  0.33741075597E+03  0.00000000000E+00 0.  1.
<mgrwt>
<rscale>  0 0.42628525E+03</rscale>
<asrwt>0</asrwt>
<pdfrwt beam="1">  1        1 0.12996441E+00 0.42628525E+03</pdfrwt>
<pdfrwt beam="2">  1       -1 0.41977677E-01 0.42628525E+03</pdfrwt>
<totfact> 0.11833749E+02</totfact>
</mgrwt>
</event>
<event>
12    1  0.1338445E-007  0.1817276E+04  0.7818608E-02  0.8697166E-01
          2   -1    0    0  501    0  0.00000000000E+00  0.00000000000E+00  0.31394632458E+04  0.31394632458E+04  0.00000000000E+00 0. -1.
         -2   -1    0    0    0  501 -0.00000000000E+00 -0.00000000000E+00 -0.17030634408E+04  0.17030634408E+04  0.00000000000E+00 0.  1.
         23    2    1    2    0    0  0.96692345037E+01 -0.18104887279E+04  0.21442880423E+04  0.28079089858E+04  0.91753670469E+02 0.  0.
    5000000    2    1    2    0    0 -0.96692345037E+01  0.18104887279E+04 -0.70788823736E+03  0.20346177008E+04  0.60050021164E+03 0.  0.
         23    2    4    4    0    0 -0.72282821401E+02  0.10401461132E+04 -0.69450974582E+03  0.12562564794E+04  0.93315657372E+02 0.  0.
         23    2    4    4    0    0  0.62613586897E+02  0.77034261470E+03 -0.13378491536E+02  0.77836122148E+03  0.91208561968E+02 0.  0.
          3    1    3    3  502    0  0.44602274364E+02 -0.11876431710E+04  0.14383480076E+04  0.18658324297E+04  0.00000000000E+00 0. -1.
         -3    1    3    3    0  502 -0.34933039860E+02 -0.62284555687E+03  0.70594003470E+03  0.94207655612E+03  0.00000000000E+00 0.  1.
         13    1    5    5    0    0 -0.96396064993E+01  0.66909675275E+03 -0.47496145103E+03  0.82059232663E+03  0.00000000000E+00 0.  1.
        -13    1    5    5    0    0 -0.62643214901E+02  0.37104936042E+03 -0.21954829479E+03  0.43566415274E+03  0.00000000000E+00 0. -1.
          3    1    6    6  503    0  0.54708903815E+02  0.23139600796E+03 -0.26121792816E+02  0.23920602985E+03  0.00000000000E+00 0. -1.
         -3    1    6    6    0  503  0.79046830823E+01  0.53894660674E+03  0.12743301281E+02  0.53915519163E+03  0.00000000000E+00 0.  1.
<mgrwt>
<rscale>  0 0.18172756E+04</rscale>
<asrwt>0</asrwt>
<pdfrwt beam="1">  1        2 0.48299434E+00 0.18172756E+04</pdfrwt>
<pdfrwt beam="2">  1       -2 0.26200976E+00 0.18172756E+04</pdfrwt>
<totfact> 0.69651657E-02</totfact>
</mgrwt>
</event>
<event>
12    1  0.1338445E-007  0.7607223E+03  0.7818608E-02  0.9618677E-01
          2   -1    0    0  501    0  0.00000000000E+00  0.00000000000E+00  0.29149391851E+04  0.29149391851E+04  0.00000000000E+00 0. -1.
         -2   -1    0    0    0  501 -0.00000000000E+00 -0.00000000000E+00 -0.25734457751E+03  0.25734457751E+03  0.00000000000E+00 0.  1.
         23    2    1    2    0    0  0.23134918724E+03 -0.60671763997E+03  0.18925720708E+04  0.20029560571E+04  0.91516022792E+02 0.  0.
    5000000    2    1    2    0    0 -0.23134918724E+03  0.60671763997E+03  0.76502253680E+03  0.11693277055E+04  0.60036577185E+03 0.  0.
         23    2    4    4    0    0 -0.35954320667E+03  0.14619067930E+03  0.35599112557E+03  0.53371812559E+03  0.86500427284E+02 0.  0.
         23    2    4    4    0    0  0.12819401943E+03  0.46052696067E+03  0.40903141123E+03  0.63560957994E+03  0.90410478451E+02 0.  0.
          2    1    3    3  502    0  0.11788103039E+03 -0.20645525397E+03  0.61505793099E+03  0.65940576863E+03  0.00000000000E+00 0. -1.
         -2    1    3    3    0  502  0.11346815685E+03 -0.40026238600E+03  0.12775141398E+04  0.13435502885E+04  0.00000000000E+00 0.  1.
         13    1    5    5    0    0 -0.94855930090E+02  0.35873748966E+02  0.14825783594E+03  0.17962449514E+03  0.00000000000E+00 0.  1.
        -13    1    5    5    0    0 -0.26468727658E+03  0.11031693033E+03  0.20773328963E+03  0.35409363044E+03  0.00000000000E+00 0. -1.
          1    1    6    6  503    0  0.35175863957E+02  0.73929399989E+02  0.32799303530E+02  0.88196892802E+02  0.00000000000E+00 0. -1.
         -1    1    6    6    0  503  0.93018155471E+02  0.38659756068E+03  0.37623210770E+03  0.54741268714E+03  0.00000000000E+00 0.  1.
<mgrwt>
<rscale>  0 0.76072228E+03</rscale>
<asrwt>0</asrwt>
<pdfrwt beam="1">  1        2 0.44845216E+00 0.76072228E+03</pdfrwt>
<pdfrwt beam="2">  1       -2 0.39591475E-01 0.76072228E+03</pdfrwt>
<totfact> 0.12551380E+01</totfact>
</mgrwt>
</event>
<event>
12    1  0.1338445E-007  0.1060491E+04  0.7818608E-02  0.9244579E-01
          1   -1    0    0  501    0  0.00000000000E+00  0.00000000000E+00  0.18114513467E+04  0.18114513467E+04  0.00000000000E+00 0. -1.
         -1   -1    0    0    0  501 -0.00000000000E+00 -0.00000000000E+00 -0.83033227298E+03  0.83033227298E+03  0.00000000000E+00 0.  1.
         23    2    1    2    0    0 -0.10285462448E+04  0.27141601409E+02 -0.93751026155E+02  0.10373163965E+04  0.92693081257E+02 0.  0.
    5000000    2    1    2    0    0  0.10285462448E+04 -0.27141601409E+02  0.10748700998E+04  0.16044672231E+04  0.60027101736E+03 0.  0.
         23    2    4    4    0    0  0.27855042472E+03 -0.15874100885E+03  0.64339456042E+03  0.72471319982E+03  0.91997905487E+02 0.  0.
         23    2    4    4    0    0  0.74999582011E+03  0.13159940744E+03  0.43147553941E+03  0.87975402330E+03  0.89352482794E+02 0.  0.
          1    1    3    3  502    0 -0.72284831900E+03  0.93120131164E+01 -0.24271873400E+02  0.72331565012E+03  0.00000000000E+00 0. -1.
         -1    1    3    3    0  502 -0.30569792582E+03  0.17829588292E+02 -0.69479152755E+02  0.31400074640E+03  0.00000000000E+00 0.  1.
         11    1    5    5    0    0  0.25622407690E+03 -0.16777501258E+03  0.61792234477E+03  0.68965734724E+03  0.00000000000E+00 0. -1.
        -11    1    5    5    0    0  0.22326347816E+02  0.90340037320E+01  0.25472215650E+02  0.35055852583E+02  0.00000000000E+00 0.  1.
          1    1    6    6  503    0  0.17756509972E+03  0.34954790447E+02  0.60522663030E+02  0.19082503702E+03  0.00000000000E+00 0. -1.
         -1    1    6    6    0  503  0.57243072039E+03  0.96644616993E+02  0.37095287638E+03  0.68892898628E+03  0.00000000000E+00 0.  1.
<mgrwt>
<rscale>  0 0.10604909E+04</rscale>
<asrwt>0</asrwt>
<pdfrwt beam="1">  1        1 0.27868482E+00 0.10604909E+04</pdfrwt>
<pdfrwt beam="2">  1       -1 0.12774343E+00 0.10604909E+04</pdfrwt>
<totfact> 0.21215322E+00</totfact>
</mgrwt>
</event>
<event>
12    1  0.1338445E-007  0.5400736E+03  0.7818608E-02  0.1003818E+00
          1   -1    0    0  501    0  0.00000000000E+00  0.00000000000E+00  0.16376328804E+04  0.16376328804E+04  0.00000000000E+00 0. -1.
         -1   -1    0    0    0  501 -0.00000000000E+00 -0.00000000000E+00 -0.25220779448E+03  0.25220779448E+03  0.00000000000E+00 0.  1.
         23    2    1    2    0    0 -0.38632539985E+03 -0.15911464142E+03  0.14810895423E+03  0.45268512657E+03  0.91775692921E+02 0.  0.
    5000000    2    1    2    0    0  0.38632539985E+03  0.15911464142E+03  0.12373161317E+04  0.14371555484E+04  0.59991672475E+03 0.  0.
         23    2    4    4    0    0 -0.74620083506E+02  0.14680530348E+03  0.12202489266E+03  0.22672526172E+03  0.96924279120E+02 0.  0.
         23    2    4    4    0    0  0.46094548335E+03  0.12309337941E+02  0.11152912391E+04  0.12104302866E+04  0.92976730490E+02 0.  0.
          4    1    3    3  502    0 -0.12230382687E+03 -0.84660279227E+02  0.84557351380E+02  0.17110094862E+03  0.00000000000E+00 0. -1.
         -4    1    3    3    0  502 -0.26402157297E+03 -0.74454362194E+02  0.63551602850E+02  0.28158417795E+03  0.00000000000E+00 0.  1.
         11    1    5    5    0    0 -0.78180753102E+02  0.48231119367E+02  0.67731783228E+02  0.11413179001E+03  0.00000000000E+00 0. -1.
        -11    1    5    5    0    0  0.35606695959E+01  0.98574184112E+02  0.54293109427E+02  0.11259347171E+03  0.00000000000E+00 0.  1.
          3    1    6    6  503    0  0.68696763105E+02 -0.23732995373E+02  0.12377771329E+03  0.14353892377E+03  0.00000000000E+00 0. -1.
         -3    1    6    6    0  503  0.39224872025E+03  0.36042333315E+02  0.99151352579E+03  0.10668913629E+04  0.00000000000E+00 0.  1.
<mgrwt>
<rscale>  0 0.54007359E+03</rscale>
<asrwt>0</asrwt>
<pdfrwt beam="1">  1        1 0.25194351E+00 0.54007359E+03</pdfrwt>
<pdfrwt beam="2">  1       -1 0.38801200E-01 0.54007359E+03</pdfrwt>
<totfact> 0.36006334E+01</totfact>
</mgrwt>
</event>
<event>
12    1  0.1338445E-007  0.1999778E+04  0.7818608E-02  0.8606724E-01
         -2   -1    0    0    0  501 -0.00000000000E+00  0.00000000000E+00  0.16171557280E+04  0.16171557280E+04  0.00000000000E+00 0.  1.
          2   -1    0    0  501    0  0.00000000000E+00 -0.00000000000E+00 -0.33048829935E+04  0.33048829935E+04  0.00000000000E+00 0. -1.
         23    2    1    2    0    0  0.12835979587E+04  0.15256554423E+04  0.32929427252E+03  0.20231630325E+04  0.97497128605E+02 0.  0.
    5000000    2    1    2    0    0 -0.12835979587E+04 -0.15256554423E+04 -0.20170215380E+04  0.28988756890E+04  0.59988009404E+03 0.  0.
         23    2    4    4    0    0 -0.21531825162E+03 -0.27528951971E+03 -0.10679498933E+03  0.37662987061E+03  0.91096764740E+02 0.  0.
         23    2    4    4    0    0 -0.10682797070E+04 -0.12503659226E+04 -0.19102265486E+04  0.25222458184E+04  0.90122295422E+02 0.  0.
          3    1    3    3  502    0  0.59447310100E+02  0.68728315312E+02 -0.53227914882E+01  0.91026897744E+02  0.00000000000E+00 0. -1.
         -3    1    3    3    0  502  0.12241506486E+04  0.14569271270E+04  0.33461706401E+03  0.19321361348E+04  0.00000000000E+00 0.  1.
         13    1    5    5    0    0 -0.32493800894E+02 -0.29633924554E+01 -0.15713416734E+02  0.36215193729E+02  0.00000000000E+00 0.  1.
        -13    1    5    5    0    0 -0.18282445073E+03 -0.27232612725E+03 -0.91081572594E+02  0.34041467688E+03  0.00000000000E+00 0. -1.
          3    1    6    6  503    0 -0.91545555814E+03 -0.10934184978E+04 -0.16126596852E+04  0.21527410784E+04  0.00000000000E+00 0. -1.
         -3    1    6    6    0  503 -0.15282414891E+03 -0.15694742480E+03 -0.29756686343E+03  0.36950473996E+03  0.00000000000E+00 0.  1.
<mgrwt>
<rscale>  0 0.19997780E+04</rscale>
<asrwt>0</asrwt>
<pdfrwt beam="1">  1        2 0.50844353E+00 0.19997780E+04</pdfrwt>
<pdfrwt beam="2">  1       -2 0.24879319E+00 0.19997780E+04</pdfrwt>
<totfact> 0.64184720E-02</totfact>
</mgrwt>
</event>
<event>
12    1  0.1338445E-007  0.8633701E+03  0.7818608E-02  0.9472566E-01
         -2   -1    0    0    0  501 -0.00000000000E+00  0.00000000000E+00  0.12926542830E+04  0.12926542830E+04  0.00000000000E+00 0.  1.
          2   -1    0    0  501    0  0.00000000000E+00 -0.00000000000E+00 -0.61239161864E+03  0.61239161864E+03  0.00000000000E+00 0. -1.
         23    2    1    2    0    0 -0.59228932905E+03  0.49975021225E+03  0.15816856059E+03  0.79458045219E+03  0.76051807877E+02 0.  0.
    5000000    2    1    2    0    0  0.59228932905E+03 -0.49975021225E+03  0.52209410379E+03  0.11104654495E+04  0.59999528107E+03 0.  0.
         23    2    4    4    0    0  0.62247949272E+03 -0.23459112196E+03  0.24516544729E+03  0.71454495960E+03  0.89189065374E+02 0.  0.
         23    2    4    4    0    0 -0.30190163664E+02 -0.26515909029E+03  0.27692865650E+03  0.39592048988E+03  0.94035973793E+02 0.  0.
          2    1    3    3  502    0 -0.11413276725E+03  0.13030655606E+03  0.16992796097E+02  0.17405413593E+03  0.00000000000E+00 0. -1.
         -2    1    3    3    0  502 -0.47815656180E+03  0.36944365619E+03  0.14117576449E+03  0.62052631626E+03  0.00000000000E+00 0.  1.
         13    1    5    5    0    0  0.36724215234E+03 -0.10147295728E+03  0.11026524834E+03  0.39663835481E+03  0.00000000000E+00 0. -1.
        -13    1    5    5    0    0  0.25523734038E+03 -0.13311816468E+03  0.13490019895E+03  0.31790660479E+03  0.00000000000E+00 0.  1.
          1    1    6    6  503    0 -0.46320890544E+02 -0.66273947069E+02  0.56795359966E+02  0.98810798371E+02  0.00000000000E+00 0. -1.
         -1    1    6    6    0  503  0.16130726880E+02 -0.19888514322E+03  0.22013329653E+03  0.29710969150E+03  0.00000000000E+00 0.  1.
<mgrwt>
<rscale>  0 0.86337014E+03</rscale>
<asrwt>0</asrwt>
<pdfrwt beam="1">  1        2 0.94214096E-01 0.86337014E+03</pdfrwt>
<pdfrwt beam="2">  1       -2 0.19886989E+00 0.86337014E+03</pdfrwt>
<totfact> 0.65931531E+00</totfact>
</mgrwt>
</event>
<event>
12    1  0.1338445E-007  0.5898516E+03  0.7818608E-02  0.9926687E-01
          1   -1    0    0  501    0  0.00000000000E+00  0.00000000000E+00  0.10185169194E+04  0.10185169194E+04  0.00000000000E+00 0. -1.
         -1   -1    0    0    0  501 -0.00000000000E+00 -0.00000000000E+00 -0.39096286190E+03  0.39096286190E+03  0.00000000000E+00 0.  1.
         23    2    1    2    0    0  0.44685064497E+03 -0.40947181180E+02  0.44455699102E+03  0.63820578845E+03  0.91233434630E+02 0.  0.
    5000000    2    1    2    0    0 -0.44685064497E+03  0.40947181180E+02  0.18299706644E+03  0.77127399281E+03  0.60001956226E+03 0.  0.
         23    2    4    4    0    0 -0.56638716139E+03  0.17445442984E+01  0.71104422913E+02  0.57744439890E+03  0.87113344781E+02 0.  0.
         23    2    4    4    0    0  0.11953651642E+03  0.39202636882E+02  0.11189264353E+03  0.19382959391E+03  0.96042294344E+02 0.  0.
          3    1    3    3  502    0  0.29888027179E+03 -0.38025538997E+02  0.35334223635E+03  0.46435556901E+03  0.00000000000E+00 0. -1.
         -3    1    3    3    0  502  0.14797037317E+03 -0.29216421836E+01  0.91214754673E+02  0.17385021944E+03  0.00000000000E+00 0.  1.
         11    1    5    5    0    0 -0.33843430083E+03 -0.41197236554E+02  0.35716698073E+02  0.34279829462E+03  0.00000000000E+00 0. -1.
        -11    1    5    5    0    0 -0.22795286056E+03  0.42941780853E+02  0.35387724840E+02  0.23464610427E+03  0.00000000000E+00 0.  1.
          2    1    6    6  503    0  0.90842354095E+02 -0.18836634426E+02  0.75094527753E+02  0.11935803363E+03  0.00000000000E+00 0. -1.
         -2    1    6    6    0  503  0.28694162326E+02  0.58039271308E+02  0.36798115774E+02  0.74471560277E+02  0.00000000000E+00 0.  1.
<mgrwt>
<rscale>  0 0.58985162E+03</rscale>
<asrwt>0</asrwt>
<pdfrwt beam="1">  1        1 0.15669491E+00 0.58985162E+03</pdfrwt>
<pdfrwt beam="2">  1       -1 0.60148133E-01 0.58985162E+03</pdfrwt>
<totfact> 0.42846045E+01</totfact>
</mgrwt>
</event>
<event>
12    1  0.1338445E-007  0.6550422E+03  0.7818608E-02  0.9797364E-01
         -2   -1    0    0    0  501 -0.00000000000E+00  0.00000000000E+00  0.53007809720E+03  0.53007809720E+03  0.00000000000E+00 0.  1.
          2   -1    0    0  501    0  0.00000000000E+00 -0.00000000000E+00 -0.85059816739E+03  0.85059816739E+03  0.00000000000E+00 0. -1.
         23    2    1    2    0    0  0.17618401671E+03  0.49496953303E+03 -0.38450508834E+02  0.53468478297E+03  0.91508082358E+02 0.  0.
    5000000    2    1    2    0    0 -0.17618401671E+03 -0.49496953303E+03 -0.28206956135E+03  0.84599148163E+03  0.60008557988E+03 0.  0.
         23    2    4    4    0    0 -0.56909578962E+02 -0.60246096646E+03 -0.25124259761E+03  0.66214984840E+03  0.95507395455E+02 0.  0.
         23    2    4    4    0    0 -0.11927443775E+03  0.10749143343E+03 -0.30826963740E+02  0.18384163323E+03  0.84063337160E+02 0.  0.
          4    1    3    3  502    0  0.13325318160E+03  0.40066556067E+03  0.51361287506E+01  0.42227441520E+03  0.00000000000E+00 0. -1.
         -4    1    3    3    0  502  0.42930835106E+02  0.94303972356E+02 -0.43586637584E+02  0.11241036776E+03  0.00000000000E+00 0.  1.
         11    1    5    5    0    0 -0.27716613075E+02 -0.45598687680E+03 -0.14656201223E+03  0.47976313519E+03  0.00000000000E+00 0. -1.
        -11    1    5    5    0    0 -0.29192965888E+02 -0.14647408966E+03 -0.10468058538E+03  0.18238671320E+03  0.00000000000E+00 0.  1.
          1    1    6    6  503    0 -0.12654888187E+03  0.80257186358E+02 -0.12837690070E+02  0.15040160156E+03  0.00000000000E+00 0. -1.
         -1    1    6    6    0  503  0.72744441252E+01  0.27234247076E+02 -0.17989273670E+02  0.33440031673E+02  0.00000000000E+00 0.  1.
<mgrwt>
<rscale>  0 0.65504220E+03</rscale>
<asrwt>0</asrwt>
<pdfrwt beam="1">  1        2 0.13086126E+00 0.65504220E+03</pdfrwt>
<pdfrwt beam="2">  1       -2 0.81550477E-01 0.65504220E+03</pdfrwt>
<totfact> 0.42936781E+01</totfact>
</mgrwt>
</event>
<event>
12    1  0.1338445E-007  0.7357413E+03  0.7818608E-02  0.9657989E-01
         -2   -1    0    0    0  501 -0.00000000000E+00  0.00000000000E+00  0.61815857770E+03  0.61815857770E+03  0.00000000000E+00 0.  1.
          2   -1    0    0  501    0  0.00000000000E+00 -0.00000000000E+00 -0.10251170145E+04  0.10251170145E+04  0.00000000000E+00 0. -1.
         23    2    1    2    0    0 -0.40790852218E+03  0.54012425255E+03 -0.11262254560E+03  0.69205086448E+03  0.90149823030E+02 0.  0.
    5000000    2    1    2    0    0  0.40790852218E+03 -0.54012425255E+03 -0.29433589124E+03  0.95122472775E+03  0.60005940968E+03 0.  0.
         23    2    4    4    0    0  0.97385382362E+02  0.50138849764E+02  0.98244817042E+02  0.17230843800E+03  0.89667925011E+02 0.  0.
         23    2    4    4    0    0  0.31052313982E+03 -0.59026310232E+03 -0.39258070828E+03  0.77891628975E+03  0.88067153967E+02 0.  0.
          2    1    3    3  502    0 -0.20704469584E+03  0.34649985557E+03 -0.74564858878E+02  0.41047481551E+03  0.00000000000E+00 0. -1.
         -2    1    3    3    0  502 -0.20086382634E+03  0.19362439698E+03 -0.38057686718E+02  0.28157604898E+03  0.00000000000E+00 0.  1.
         11    1    5    5    0    0  0.34676620500E+02 -0.41823782760E+01  0.80097776430E+02  0.87382000929E+02  0.00000000000E+00 0. -1.
        -11    1    5    5    0    0  0.62708761862E+02  0.54321228040E+02  0.18147040613E+02  0.84926437068E+02  0.00000000000E+00 0.  1.
          1    1    6    6  503    0  0.25103632421E+03 -0.40617135716E+03 -0.30472593269E+03  0.56643825922E+03  0.00000000000E+00 0. -1.
         -1    1    6    6    0  503  0.59486815606E+02 -0.18409174516E+03 -0.87854775591E+02  0.21247803054E+03  0.00000000000E+00 0.  1.
<mgrwt>
<rscale>  0 0.73574128E+03</rscale>
<asrwt>0</asrwt>
<pdfrwt beam="1">  1        2 0.15771031E+00 0.73574128E+03</pdfrwt>
<pdfrwt beam="2">  1       -2 0.95101320E-01 0.73574128E+03</pdfrwt>
<totfact> 0.22976816E+01</totfact>
</mgrwt>
</event>
<event>
12    1  0.1338445E-007  0.1003969E+04  0.7818608E-02  0.9304202E-01
         -2   -1    0    0    0  501 -0.00000000000E+00  0.00000000000E+00  0.72896819491E+03  0.72896819491E+03  0.00000000000E+00 0.  1.
          2   -1    0    0  501    0  0.00000000000E+00 -0.00000000000E+00 -0.16552567166E+04  0.16552567166E+04  0.00000000000E+00 0. -1.
         23    2    1    2    0    0 -0.96994197513E+03  0.82597132102E+02 -0.73767084206E+03  0.12252625318E+04  0.97469376385E+02 0.  0.
    5000000    2    1    2    0    0  0.96994197513E+03 -0.82597132102E+02 -0.18861767966E+03  0.11589623797E+04  0.60000620593E+03 0.  0.
         23    2    4    4    0    0  0.56506620595E+03 -0.20053137418E+03  0.13290051167E+03  0.62093305357E+03  0.91556877807E+02 0.  0.
         23    2    4    4    0    0  0.40487576919E+03  0.11793424208E+03 -0.32151819133E+03  0.53802932615E+03  0.90932582205E+02 0.  0.
          1    1    3    3  502    0 -0.11571844576E+03 -0.78299687805E+01 -0.12257529436E+03  0.16875061448E+03  0.00000000000E+00 0. -1.
         -1    1    3    3    0  502 -0.85422352937E+03  0.90427100882E+02 -0.61509554771E+03  0.10565119174E+04  0.00000000000E+00 0.  1.
         11    1    5    5    0    0  0.42970963512E+03 -0.10960065704E+03  0.95345781417E+02  0.45360058705E+03  0.00000000000E+00 0. -1.
        -11    1    5    5    0    0  0.13535657082E+03 -0.90930717137E+02  0.37554730258E+02  0.16733246651E+03  0.00000000000E+00 0.  1.
          3    1    6    6  503    0  0.19403663121E+03  0.89491714771E+02 -0.12039964748E+03  0.24526527756E+03  0.00000000000E+00 0. -1.
         -3    1    6    6    0  503  0.21083913798E+03  0.28442527309E+02 -0.20111854385E+03  0.29276404859E+03  0.00000000000E+00 0.  1.
<mgrwt>
<rscale>  0 0.10039693E+04</rscale>
<asrwt>0</asrwt>
<pdfrwt beam="1">  1        2 0.25465488E+00 0.10039693E+04</pdfrwt>
<pdfrwt beam="2">  1       -2 0.11214895E+00 0.10039693E+04</pdfrwt>
<totfact> 0.64805763E+00</totfact>
</mgrwt>
</event>
<event>
12    1  0.1338445E-007  0.7313856E+03  0.7818608E-02  0.9665015E-01
         -2   -1    0    0    0  501 -0.00000000000E+00  0.00000000000E+00  0.10988940005E+04  0.10988940005E+04  0.00000000000E+00 0.  1.
          2   -1    0    0  501    0  0.00000000000E+00 -0.00000000000E+00 -0.63346348649E+03  0.63346348649E+03  0.00000000000E+00 0. -1.
         23    2    1    2    0    0 -0.32775430958E+03 -0.52553526735E+03  0.59095559947E+03  0.86084266916E+03  0.90616642096E+02 0.  0.
    5000000    2    1    2    0    0  0.32775430958E+03  0.52553526735E+03 -0.12552508546E+03  0.87151481784E+03  0.60014275465E+03 0.  0.
         23    2    4    4    0    0  0.20406116697E+02 -0.11582434972E+03 -0.48521911340E+02  0.15031804698E+03  0.80059039341E+02 0.  0.
         23    2    4    4    0    0  0.30734819288E+03  0.64135961707E+03 -0.77003174119E+02  0.72119677086E+03  0.91598162636E+02 0.  0.
          4    1    3    3  502    0 -0.22672260012E+03 -0.42444515982E+03  0.42701190298E+03  0.64334749272E+03  0.00000000000E+00 0. -1.
         -4    1    3    3    0  502 -0.10103170946E+03 -0.10109010753E+03  0.16394369648E+03  0.21749517644E+03  0.00000000000E+00 0.  1.
         11    1    5    5    0    0 -0.10944341190E+02 -0.65431137497E+02  0.98575398736E+01  0.67068498199E+02  0.00000000000E+00 0.  1.
        -11    1    5    5    0    0  0.31350457888E+02 -0.50393212225E+02 -0.58379451214E+02  0.83249548781E+02  0.00000000000E+00 0. -1.
          3    1    6    6  503    0  0.17246348279E+03  0.41572090497E+03 -0.85744662065E+02  0.45816991477E+03  0.00000000000E+00 0. -1.
         -3    1    6    6    0  503  0.13488471009E+03  0.22563871210E+03  0.87414879466E+01  0.26302685609E+03  0.00000000000E+00 0.  1.
<mgrwt>
<rscale>  0 0.73138557E+03</rscale>
<asrwt>0</asrwt>
<pdfrwt beam="1">  1        2 0.97455921E-01 0.73138557E+03</pdfrwt>
<pdfrwt beam="2">  1       -2 0.16906061E+00 0.73138557E+03</pdfrwt>
<totfact> 0.10231827E+01</totfact>
</mgrwt>
</event>
<event>
12    1  0.1338445E-007  0.1686102E+04  0.7818608E-02  0.8769331E-01
         -1   -1    0    0    0  501 -0.00000000000E+00  0.00000000000E+00  0.21081955337E+04  0.21081955337E+04  0.00000000000E+00 0.  1.
          1   -1    0    0  501    0  0.00000000000E+00 -0.00000000000E+00 -0.13648100379E+04  0.13648100379E+04  0.00000000000E+00 0. -1.
         23    2    1    2    0    0 -0.47622749934E+03  0.15712233111E+04  0.38122068505E+03  0.16879132200E+04  0.90479296439E+02 0.  0.
    5000000    2    1    2    0    0  0.47622749934E+03 -0.15712233111E+04  0.36216481074E+03  0.17850923516E+04  0.59988001233E+03 0.  0.
         23    2    4    4    0    0  0.40365481531E+02 -0.10185677795E+04  0.32407741135E+03  0.10740538093E+04  0.97240543278E+02 0.  0.
         23    2    4    4    0    0  0.43586201781E+03 -0.55265553159E+03  0.38087399394E+02  0.71103854228E+03  0.93388026271E+02 0.  0.
          2    1    3    3  502    0 -0.24446641257E+03  0.74324550614E+03  0.22403415245E+03  0.81386055977E+03  0.00000000000E+00 0. -1.
         -2    1    3    3    0  502 -0.23176108676E+03  0.82797780492E+03  0.15718653260E+03  0.87405266021E+03  0.00000000000E+00 0.  1.
         13    1    5    5    0    0 -0.14987767141E+02 -0.73046599368E+03  0.23258037377E+03  0.76674561059E+03  0.00000000000E+00 0. -1.
        -13    1    5    5    0    0  0.55353248672E+02 -0.28810178579E+03  0.91497037576E+02  0.30730819872E+03  0.00000000000E+00 0.  1.
          1    1    6    6  503    0  0.22564022107E+03 -0.24180979863E+03  0.55585082576E+02  0.33537320925E+03  0.00000000000E+00 0. -1.
         -1    1    6    6    0  503  0.21022179674E+03 -0.31084573296E+03 -0.17497683183E+02  0.37566533303E+03  0.00000000000E+00 0.  1.
<mgrwt>
<rscale>  0 0.16861018E+04</rscale>
<asrwt>0</asrwt>
<pdfrwt beam="1">  1        1 0.20997078E+00 0.16861018E+04</pdfrwt>
<pdfrwt beam="2">  1       -1 0.32433777E+00 0.16861018E+04</pdfrwt>
<totfact> 0.17306758E-01</totfact>
</mgrwt>
</event>
<event>
12    1  0.1338445E-007  0.8346137E+03  0.7818608E-02  0.9511224E-01
         -1   -1    0    0    0  501 -0.00000000000E+00  0.00000000000E+00  0.17882916978E+04  0.17882916978E+04  0.00000000000E+00 0.  1.
          1   -1    0    0  501    0  0.00000000000E+00 -0.00000000000E+00 -0.42357888293E+03  0.42357888293E+03  0.00000000000E+00 0. -1.
         23    2    1    2    0    0  0.74890605161E+03  0.10925764827E+02  0.79218636811E+03  0.10943817698E+04  0.95564479354E+02 0.  0.
    5000000    2    1    2    0    0 -0.74890605161E+03 -0.10925764827E+02  0.57252644677E+03  0.11174888110E+04  0.60001255314E+03 0.  0.
         23    2    4    4    0    0 -0.80720452755E+03 -0.37795082395E+02  0.38604503244E+03  0.90024274971E+03  0.91644005690E+02 0.  0.
         23    2    4    4    0    0  0.58298475936E+02  0.26869317568E+02  0.18648141433E+03  0.21724606127E+03  0.91103571408E+02 0.  0.
          4    1    3    3  502    0  0.40571925139E+03  0.21817284516E+02  0.49393237234E+03  0.63957274278E+03  0.00000000000E+00 0. -1.
         -4    1    3    3    0  502  0.34318680022E+03 -0.10891519689E+02  0.29825399576E+03  0.45480902700E+03  0.00000000000E+00 0.  1.
         13    1    5    5    0    0 -0.39263387879E+03 -0.22014200708E+02  0.23846889189E+03  0.45990586015E+03  0.00000000000E+00 0. -1.
        -13    1    5    5    0    0 -0.41457064876E+03 -0.15780881687E+02  0.14757614055E+03  0.44033688956E+03  0.00000000000E+00 0.  1.
          4    1    6    6  503    0  0.70105429387E+02 -0.11726710372E+02  0.11781806915E+03  0.13759863511E+03  0.00000000000E+00 0. -1.
         -4    1    6    6    0  503 -0.11806953451E+02  0.38596027941E+02  0.68663345176E+02  0.79647426156E+02  0.00000000000E+00 0.  1.
<mgrwt>
<rscale>  0 0.83461374E+03</rscale>
<asrwt>0</asrwt>
<pdfrwt beam="1">  1        1 0.65165983E-01 0.83461374E+03</pdfrwt>
<pdfrwt beam="2">  1       -1 0.27512180E+00 0.83461374E+03</pdfrwt>
<totfact> 0.27478158E+00</totfact>
</mgrwt>
</event>
<event>
12    1  0.1338445E-007  0.5187958E+03  0.7818608E-02  0.1008986E+00
          2   -1    0    0  501    0  0.00000000000E+00  0.00000000000E+00  0.14229869759E+04  0.14229869759E+04  0.00000000000E+00 0. -1.
         -2   -1    0    0    0  501 -0.00000000000E+00 -0.00000000000E+00 -0.21420416731E+03  0.21420416731E+03  0.00000000000E+00 0.  1.
         23    2    1    2    0    0  0.30934246994E+03  0.18359145670E+03  0.61922570193E+03  0.72226253928E+03  0.93936782158E+02 0.  0.
    5000000    2    1    2    0    0 -0.30934246994E+03 -0.18359145670E+03  0.58955710663E+03  0.91492860389E+03  0.60009847654E+03 0.  0.
         23    2    4    4    0    0  0.10930010864E+03  0.10864851603E+03  0.18999567452E+03  0.26075340346E+03  0.90238391449E+02 0.  0.
         23    2    4    4    0    0 -0.41864257858E+03 -0.29223997274E+03  0.39956143211E+03  0.65417520043E+03  0.87350126308E+02 0.  0.
          4    1    3    3  502    0  0.11777119935E+03  0.96337294091E+02  0.18368751636E+03  0.23852050917E+03  0.00000000000E+00 0. -1.
         -4    1    3    3    0  502  0.19157127058E+03  0.87254162612E+02  0.43553818557E+03  0.48374203011E+03  0.00000000000E+00 0.  1.
         13    1    5    5    0    0  0.56365422054E+02  0.32948917743E+02  0.14281242359E+03  0.15702891554E+03  0.00000000000E+00 0. -1.
        -13    1    5    5    0    0  0.52934686588E+02  0.75699598290E+02  0.47183250937E+02  0.10372448792E+03  0.00000000000E+00 0.  1.
          2    1    6    6  503    0 -0.36065753139E+02 -0.59153560917E+02  0.42294321362E+02  0.81170757900E+02  0.00000000000E+00 0. -1.
         -2    1    6    6    0  503 -0.38257682544E+03 -0.23308641182E+03  0.35726711075E+03  0.57300444253E+03  0.00000000000E+00 0.  1.
<mgrwt>
<rscale>  0 0.51879585E+03</rscale>
<asrwt>0</asrwt>
<pdfrwt beam="1">  1        2 0.21892107E+00 0.51879585E+03</pdfrwt>
<pdfrwt beam="2">  1       -2 0.32954488E-01 0.51879585E+03</pdfrwt>
<totfact> 0.12543405E+02</totfact>
</mgrwt>
</event>
<event>
12    1  0.1338445E-007  0.1965163E+04  0.7818608E-02  0.8623084E-01
         -2   -1    0    0    0  501 -0.00000000000E+00  0.00000000000E+00  0.16804364945E+04  0.16804364945E+04  0.00000000000E+00 0.  1.
          2   -1    0    0  501    0  0.00000000000E+00 -0.00000000000E+00 -0.23695569812E+04  0.23695569812E+04  0.00000000000E+00 0. -1.
         23    2    1    2    0    0 -0.18233006780E+04  0.68632769766E+03 -0.40287543088E+03  0.19914795182E+04  0.90614500123E+02 0.  0.
    5000000    2    1    2    0    0  0.18233006780E+04 -0.68632769766E+03 -0.28624505581E+03  0.20585139574E+04  0.60006033870E+03 0.  0.
         23    2    4    4    0    0  0.62175907470E+03 -0.40066682232E+03 -0.33912286272E+03  0.81893159948E+03  0.92338502904E+02 0.  0.
         23    2    4    4    0    0  0.12015416033E+04 -0.28566087534E+03  0.52877806915E+02  0.12395823580E+04  0.91999997739E+02 0.  0.
          3    1    3    3  502    0 -0.60833833375E+03  0.19157136559E+03 -0.10723522077E+03  0.64674145452E+03  0.00000000000E+00 0. -1.
         -3    1    3    3    0  502 -0.12149623442E+04  0.49475633207E+03 -0.29564021011E+03  0.13447380637E+04  0.00000000000E+00 0.  1.
         13    1    5    5    0    0  0.64797868022E+02 -0.77334213703E+02 -0.56498399204E+02  0.11563482789E+03  0.00000000000E+00 0. -1.
        -13    1    5    5    0    0  0.55696120668E+03 -0.32333260862E+03 -0.28262446352E+03  0.70329677158E+03  0.00000000000E+00 0.  1.
          3    1    6    6  503    0  0.89443610209E+03 -0.19308427472E+03  0.74710444843E+02  0.91808448873E+03  0.00000000000E+00 0. -1.
         -3    1    6    6    0  503  0.30710550119E+03 -0.92576600617E+02 -0.21832637928E+02  0.32149786924E+03  0.00000000000E+00 0.  1.
<mgrwt>
<rscale>  0 0.19651627E+04</rscale>
<asrwt>0</asrwt>
<pdfrwt beam="1">  1        2 0.36454723E+00 0.19651627E+04</pdfrwt>
<pdfrwt beam="2">  1       -2 0.25852869E+00 0.19651627E+04</pdfrwt>
<totfact> 0.21051781E-01</totfact>
</mgrwt>
</event>
<event>
12    1  0.1338445E-007  0.1120759E+04  0.7818608E-02  0.9185192E-01
          1   -1    0    0  501    0  0.00000000000E+00  0.00000000000E+00  0.23903540150E+04  0.23903540150E+04  0.00000000000E+00 0. -1.
         -1   -1    0    0    0  501 -0.00000000000E+00 -0.00000000000E+00 -0.67959813795E+03  0.67959813795E+03  0.00000000000E+00 0.  1.
         23    2    1    2    0    0 -0.66137416882E+03 -0.87127284883E+03  0.14096499360E+04  0.17865602770E+04  0.90291266866E+02 0.  0.
    5000000    2    1    2    0    0  0.66137416882E+03  0.87127284883E+03  0.30110594102E+03  0.12833918760E+04  0.59991478666E+03 0.  0.
         23    2    4    4    0    0  0.62034863320E+03  0.65043819090E+03  0.92597815415E+01  0.90360982375E+03  0.92318487407E+02 0.  0.
         23    2    4    4    0    0  0.41025535620E+02  0.22083465793E+03  0.29184615948E+03  0.37978205221E+03  0.92785697508E+02 0.  0.
          1    1    3    3  502    0 -0.30488208393E+03 -0.33522299369E+03  0.61352014404E+03  0.76271522061E+03  0.00000000000E+00 0. -1.
         -1    1    3    3    0  502 -0.35649208489E+03 -0.53604985514E+03  0.79612979196E+03  0.10238450564E+04  0.00000000000E+00 0.  1.
         11    1    5    5    0    0  0.57774995348E+03  0.63118266370E+03 -0.13158192488E+01  0.85568001910E+03  0.00000000000E+00 0. -1.
        -11    1    5    5    0    0  0.42598679716E+02  0.19255527206E+02  0.10575600790E+02  0.47929804648E+02  0.00000000000E+00 0.  1.
          4    1    6    6  503    0  0.19479474354E+02  0.21975791982E+03  0.25603241838E+03  0.33797276888E+03  0.00000000000E+00 0. -1.
         -4    1    6    6    0  503  0.21546061266E+02  0.10767381139E+01  0.35813741094E+02  0.41809283325E+02  0.00000000000E+00 0.  1.
<mgrwt>
<rscale>  0 0.11207590E+04</rscale>
<asrwt>0</asrwt>
<pdfrwt beam="1">  1        1 0.36774677E+00 0.11207590E+04</pdfrwt>
<pdfrwt beam="2">  1       -1 0.10455356E+00 0.11207590E+04</pdfrwt>
<totfact> 0.13859582E+00</totfact>
</mgrwt>
</event>
<event>
12    1  0.1338445E-007  0.2045533E+04  0.7818608E-02  0.8585624E-01
          2   -1    0    0  501    0  0.00000000000E+00  0.00000000000E+00  0.19443110244E+04  0.19443110244E+04  0.00000000000E+00 0.  1.
         -2   -1    0    0    0  501 -0.00000000000E+00 -0.00000000000E+00 -0.24956730811E+04  0.24956730811E+04  0.00000000000E+00 0. -1.
         23    2    1    2    0    0  0.11650505523E+04 -0.16609796780E+04 -0.10204743776E+04  0.22729027158E+04  0.92317494301E+02 0.  0.
    5000000    2    1    2    0    0 -0.11650505523E+04  0.16609796780E+04  0.46911232090E+03  0.21670813897E+04  0.59998258309E+03 0.  0.
         23    2    4    4    0    0 -0.63205788261E+03  0.11819787177E+04  0.52644553912E+03  0.14425587975E+04  0.85206352417E+02 0.  0.
         23    2    4    4    0    0 -0.53299266973E+03  0.47900096027E+03 -0.57333218218E+02  0.72452259226E+03  0.90126482491E+02 0.  0.
          4    1    3    3  502    0  0.18582299203E+03 -0.22500120155E+03 -0.17268249987E+03  0.33907959365E+03  0.00000000000E+00 0. -1.
         -4    1    3    3    0  502  0.97922756031E+03 -0.14359784764E+04 -0.84779187778E+03  0.19338231221E+04  0.00000000000E+00 0.  1.
         13    1    5    5    0    0 -0.21003596510E+03  0.47212756384E+03  0.18350076535E+03  0.54835396785E+03  0.00000000000E+00 0. -1.
        -13    1    5    5    0    0 -0.42202191751E+03  0.70985115386E+03  0.34294477377E+03  0.89420482964E+03  0.00000000000E+00 0.  1.
          2    1    6    6  503    0 -0.38331586774E+03  0.31110702143E+03 -0.55348443443E+01  0.49370969987E+03  0.00000000000E+00 0. -1.
         -2    1    6    6    0  503 -0.14967680199E+03  0.16789393884E+03 -0.51798373874E+02  0.23081289238E+03  0.00000000000E+00 0.  1.
<mgrwt>
<rscale>  0 0.20455327E+04</rscale>
<asrwt>0</asrwt>
<pdfrwt beam="1">  1        2 0.29912477E+00 0.20455327E+04</pdfrwt>
<pdfrwt beam="2">  1       -2 0.38394970E+00 0.20455327E+04</pdfrwt>
<totfact> 0.59867435E-02</totfact>
</mgrwt>
</event>
<event>
12    1  0.1338445E-007  0.1031109E+04  0.7818608E-02  0.9275069E-01
          1   -1    0    0  501    0  0.00000000000E+00  0.00000000000E+00  0.13571017283E+04  0.13571017283E+04  0.00000000000E+00 0. -1.
         -1   -1    0    0    0  501 -0.00000000000E+00 -0.00000000000E+00 -0.96114405815E+03  0.96114405815E+03  0.00000000000E+00 0.  1.
         23    2    1    2    0    0 -0.21831624365E+03  0.99336523650E+03  0.49113715580E+03  0.11335829150E+04  0.96736983972E+02 0.  0.
    5000000    2    1    2    0    0  0.21831624365E+03 -0.99336523650E+03 -0.95179485694E+02  0.11846628714E+04  0.59994208804E+03 0.  0.
         23    2    4    4    0    0 -0.48376430789E+01 -0.22656428585E+03 -0.26827155710E+03  0.36260126803E+03  0.90306549111E+02 0.  0.
         23    2    4    4    0    0  0.22315388673E+03 -0.76680095065E+03  0.17309207141E+03  0.82206160335E+03  0.89683105679E+02 0.  0.
          1    1    3    3  502    0 -0.71280613777E+02  0.17306041229E+03  0.11095540803E+03  0.21758201850E+03  0.00000000000E+00 0. -1.
         -1    1    3    3    0  502 -0.14703562987E+03  0.82030482421E+03  0.38018174777E+03  0.91600089652E+03  0.00000000000E+00 0.  1.
         13    1    5    5    0    0  0.17303276987E+02 -0.21146405189E+03 -0.25766709739E+03  0.33377954058E+03  0.00000000000E+00 0. -1.
        -13    1    5    5    0    0 -0.22140920066E+02 -0.15100233968E+02 -0.10604459712E+02  0.28821727448E+02  0.00000000000E+00 0.  1.
          2    1    6    6  503    0  0.16245299945E+03 -0.66152933799E+03  0.16093059427E+03  0.69993621011E+03  0.00000000000E+00 0.  1.
         -2    1    6    6    0  503  0.60700887281E+02 -0.10527161266E+03  0.12161477136E+02  0.12212539325E+03  0.00000000000E+00 0. -1.
<mgrwt>
<rscale>  0 0.10311085E+04</rscale>
<asrwt>0</asrwt>
<pdfrwt beam="1">  1        1 0.20878488E+00 0.10311085E+04</pdfrwt>
<pdfrwt beam="2">  1       -1 0.14786832E+00 0.10311085E+04</pdfrwt>
<totfact> 0.29880687E+00</totfact>
</mgrwt>
</event>
<event>
12    1  0.1338445E-007  0.1499058E+04  0.7818608E-02  0.8885080E-01
         -2   -1    0    0    0  501 -0.00000000000E+00  0.00000000000E+00  0.72888397060E+03  0.72888397060E+03  0.00000000000E+00 0.  1.
          2   -1    0    0  501    0  0.00000000000E+00 -0.00000000000E+00 -0.42853317358E+04  0.42853317358E+04  0.00000000000E+00 0. -1.
         23    2    1    2    0    0  0.14694754136E+04  0.24696543478E+03 -0.52313104448E+03  0.15818147241E+04  0.90121110760E+02 0.  0.
    5000000    2    1    2    0    0 -0.14694754136E+04 -0.24696543478E+03 -0.30333167207E+04  0.34324009823E+04  0.60001354837E+03 0.  0.
         23    2    4    4    0    0 -0.85310419334E+03 -0.24558542844E+03 -0.11961757759E+04  0.14925364979E+04  0.93433095447E+02 0.  0.
         23    2    4    4    0    0 -0.61637122021E+03 -0.13800063398E+01 -0.18371409447E+04  0.19398644844E+04  0.89844205903E+02 0.  0.
          1    1    3    3  502    0  0.11489766840E+04  0.17075988557E+03 -0.43922344735E+03  0.12418629536E+04  0.00000000000E+00 0. -1.
         -1    1    3    3    0  502  0.32049872956E+03  0.76205549213E+02 -0.83907597122E+02  0.33995177045E+03  0.00000000000E+00 0.  1.
         11    1    5    5    0    0 -0.15150175994E+03 -0.28701470233E+02 -0.26542586674E+03  0.30696489766E+03  0.00000000000E+00 0. -1.
        -11    1    5    5    0    0 -0.70160243340E+03 -0.21688395821E+03 -0.93074990921E+03  0.11855716003E+04  0.00000000000E+00 0.  1.
          4    1    6    6  503    0 -0.39005579154E+03  0.24003778103E+02 -0.10468098772E+04  0.11173766692E+04  0.00000000000E+00 0. -1.
         -4    1    6    6    0  503 -0.22631542867E+03 -0.25383784443E+02 -0.79033106757E+03  0.82248781519E+03  0.00000000000E+00 0.  1.
<mgrwt>
<rscale>  0 0.14990576E+04</rscale>
<asrwt>0</asrwt>
<pdfrwt beam="1">  1        2 0.65928180E+00 0.14990576E+04</pdfrwt>
<pdfrwt beam="2">  1       -2 0.11213600E+00 0.14990576E+04</pdfrwt>
<totfact> 0.11932512E-01</totfact>
</mgrwt>
</event>
<event>
12    1  0.1338445E-007  0.1084492E+04  0.7818608E-02  0.9220441E-01
          1   -1    0    0  501    0  0.00000000000E+00  0.00000000000E+00  0.14810184973E+04  0.14810184973E+04  0.00000000000E+00 0. -1.
         -1   -1    0    0    0  501 -0.00000000000E+00 -0.00000000000E+00 -0.80177223367E+03  0.80177223367E+03  0.00000000000E+00 0.  1.
         23    2    1    2    0    0 -0.25836424905E+03  0.96768631483E+03  0.40025983007E+03  0.10823147602E+04  0.89601447827E+02 0.  0.
    5000000    2    1    2    0    0  0.25836424905E+03 -0.96768631483E+03  0.27898643353E+03  0.12004759708E+04  0.60011685293E+03 0.  0.
         23    2    4    4    0    0  0.19876966516E+03 -0.10221877872E+04  0.23966848353E+03  0.10724569928E+04  0.91355170816E+02 0.  0.
         23    2    4    4    0    0  0.59594583890E+02  0.54501472377E+02  0.39317949996E+02  0.12801897799E+03  0.91219694212E+02 0.  0.
          2    1    3    3  502    0 -0.18811612510E+03  0.61119202800E+03  0.21650311578E+03  0.67514218559E+03  0.00000000000E+00 0. -1.
         -2    1    3    3    0  502 -0.70248123948E+02  0.35649428683E+03  0.18375671429E+03  0.40717257460E+03  0.00000000000E+00 0.  1.
         11    1    5    5    0    0  0.25044440314E+02 -0.40079860408E+02  0.27057265238E+01  0.47338569444E+02  0.00000000000E+00 0. -1.
        -11    1    5    5    0    0  0.17372522485E+03 -0.98210792680E+03  0.23696275701E+03  0.10251184233E+04  0.00000000000E+00 0.  1.
          2    1    6    6  503    0  0.37714109127E+02 -0.20831362531E+02  0.96655662444E+01  0.44155666261E+02  0.00000000000E+00 0. -1.
         -2    1    6    6    0  503  0.21880474763E+02  0.75332834908E+02  0.29652383752E+02  0.83863311724E+02  0.00000000000E+00 0.  1.
<mgrwt>
<rscale>  0 0.10844916E+04</rscale>
<asrwt>0</asrwt>
<pdfrwt beam="1">  1        1 0.22784900E+00 0.10844916E+04</pdfrwt>
<pdfrwt beam="2">  1       -1 0.12334957E+00 0.10844916E+04</pdfrwt>
<totfact> 0.38812665E+00</totfact>
</mgrwt>
</event>
<event>
12    1  0.1338445E-007  0.7117806E+03  0.7818608E-02  0.9697295E-01
          1   -1    0    0  501    0  0.00000000000E+00  0.00000000000E+00  0.36402816117E+04  0.36402816117E+04  0.00000000000E+00 0. -1.
         -1   -1    0    0    0  501 -0.00000000000E+00 -0.00000000000E+00 -0.30593151293E+03  0.30593151293E+03  0.00000000000E+00 0.  1.
         23    2    1    2    0    0 -0.61880548610E+03  0.12584912939E+02  0.14469466951E+03  0.64218306329E+03  0.91563801419E+02 0.  0.
    5000000    2    1    2    0    0  0.61880548610E+03 -0.12584912939E+02  0.31896554292E+04  0.33040300613E+04  0.59969515527E+03 0.  0.
         23    2    4    4    0    0  0.37136823274E+03 -0.25356766321E+03  0.12474618447E+04  0.13292448312E+04  0.92302996362E+02 0.  0.
         23    2    4    4    0    0  0.24743725336E+03  0.24098275027E+03  0.19421935845E+04  0.19747852301E+04  0.91448920719E+02 0.  0.
          3    1    3    3  502    0 -0.24264953605E+03 -0.39522489484E+02  0.61709333539E+02  0.25347360093E+03  0.00000000000E+00 0. -1.
         -3    1    3    3    0  502 -0.37615595005E+03  0.52107402423E+02  0.82985335973E+02  0.38870946236E+03  0.00000000000E+00 0.  1.
         13    1    5    5    0    0  0.21918645262E+03 -0.12345908083E+03  0.57531065363E+03  0.62790699457E+03  0.00000000000E+00 0. -1.
        -13    1    5    5    0    0  0.15218178012E+03 -0.13010858238E+03  0.67215119107E+03  0.70133783662E+03  0.00000000000E+00 0.  1.
          3    1    6    6  503    0  0.10199826089E+03  0.11552494004E+03  0.62815234165E+03  0.64678050474E+03  0.00000000000E+00 0. -1.
         -3    1    6    6    0  503  0.14543899247E+03  0.12545781023E+03  0.13140412429E+04  0.13280047254E+04  0.00000000000E+00 0.  1.
<mgrwt>
<rscale>  0 0.71178058E+03</rscale>
<asrwt>0</asrwt>
<pdfrwt beam="1">  1        1 0.56004329E+00 0.71178058E+03</pdfrwt>
<pdfrwt beam="2">  1       -1 0.47066389E-01 0.71178058E+03</pdfrwt>
<totfact> 0.96039039E-01</totfact>
</mgrwt>
</event>
<event>
12    1  0.1338445E-007  0.8931112E+03  0.7818608E-02  0.9434234E-01
          2   -1    0    0  501    0  0.00000000000E+00  0.00000000000E+00  0.98062325461E+03  0.98062325461E+03  0.00000000000E+00 0.  1.
         -2   -1    0    0    0  501 -0.00000000000E+00 -0.00000000000E+00 -0.14187796822E+04  0.14187796822E+04  0.00000000000E+00 0. -1.
         23    2    1    2    0    0  0.49767028061E+03 -0.72012012438E+03  0.47288411557E+03  0.10006079383E+04  0.10652773196E+03 0.  0.
    5000000    2    1    2    0    0 -0.49767028061E+03  0.72012012438E+03 -0.91104054320E+03  0.13987949986E+04  0.60031981053E+03 0.  0.
         23    2    4    4    0    0 -0.66096139012E+02  0.17981776189E+03 -0.59818648333E+03  0.63473006471E+03  0.91389600732E+02 0.  0.
         23    2    4    4    0    0 -0.43157414160E+03  0.54030236249E+03 -0.31285405987E+03  0.76406493385E+03  0.87947016793E+02 0.  0.
          2    1    3    3  502    0  0.31485503616E+03 -0.40190632368E+03  0.32328948356E+03  0.60429998924E+03  0.00000000000E+00 0.  1.
         -2    1    3    3    0  502  0.18281524444E+03 -0.31821380070E+03  0.14959463201E+03  0.39630794905E+03  0.00000000000E+00 0. -1.
         13    1    5    5    0    0  0.16377687380E+02  0.82969691663E+02 -0.26015714449E+03  0.27355792478E+03  0.00000000000E+00 0. -1.
        -13    1    5    5    0    0 -0.82473826392E+02  0.96848070228E+02 -0.33802933884E+03  0.36117213994E+03  0.00000000000E+00 0.  1.
          1    1    6    6  503    0 -0.24068149774E+03  0.36819760651E+03 -0.18923013652E+03  0.47885812655E+03  0.00000000000E+00 0. -1.
         -1    1    6    6    0  503 -0.19089264385E+03  0.17210475597E+03 -0.12362392335E+03  0.28520680730E+03  0.00000000000E+00 0.  1.
<mgrwt>
<rscale>  0 0.89311119E+03</rscale>
<asrwt>0</asrwt>
<pdfrwt beam="1">  1        2 0.15086512E+00 0.89311119E+03</pdfrwt>
<pdfrwt beam="2">  1       -2 0.21827380E+00 0.89311119E+03</pdfrwt>
<totfact> 0.26450101E+00</totfact>
</mgrwt>
</event>
<event>
12    1  0.1338445E-007  0.4968492E+03  0.7818608E-02  0.1014605E+00
          1   -1    0    0  501    0  0.00000000000E+00  0.00000000000E+00  0.14041278123E+04  0.14041278123E+04  0.00000000000E+00 0. -1.
         -1   -1    0    0    0  501 -0.00000000000E+00 -0.00000000000E+00 -0.30212423696E+03  0.30212423696E+03  0.00000000000E+00 0.  1.
         23    2    1    2    0    0  0.15558999184E+03  0.38190015856E+03  0.47965985334E+02  0.42523893945E+03  0.92040443317E+02 0.  0.
    5000000    2    1    2    0    0 -0.15558999184E+03 -0.38190015856E+03  0.10540375900E+04  0.12810131098E+04  0.59995280620E+03 0.  0.
         23    2    4    4    0    0  0.47254214462E+02 -0.34072366739E+03  0.22191312470E+03  0.41890732021E+03  0.88951277153E+02 0.  0.
         23    2    4    4    0    0 -0.20284420630E+03 -0.41176491174E+02  0.83212446533E+03  0.86210578961E+03  0.89185151379E+02 0.  0.
          1    1    3    3  502    0  0.10326986472E+03  0.18663968402E+03  0.63328694862E+02  0.22250743854E+03  0.00000000000E+00 0. -1.
         -1    1    3    3    0  502  0.52320127121E+02  0.19526047454E+03 -0.15362709528E+02  0.20273150092E+03  0.00000000000E+00 0.  1.
         11    1    5    5    0    0 -0.23890566088E+02 -0.11472299999E+03  0.89750968543E+02  0.14760542750E+03  0.00000000000E+00 0. -1.
        -11    1    5    5    0    0  0.71144780550E+02 -0.22600066740E+03  0.13216215615E+03  0.27130189270E+03  0.00000000000E+00 0.  1.
          1    1    6    6  503    0 -0.29658870336E+02  0.24938337768E+02  0.11243030202E+03  0.11892073870E+03  0.00000000000E+00 0. -1.
         -1    1    6    6    0  503 -0.17318533596E+03 -0.66114828942E+02  0.71969416330E+03  0.74318505091E+03  0.00000000000E+00 0.  1.
<mgrwt>
<rscale>  0 0.49684919E+03</rscale>
<asrwt>0</asrwt>
<pdfrwt beam="1">  1        1 0.21601966E+00 0.49684919E+03</pdfrwt>
<pdfrwt beam="2">  1       -1 0.46480653E-01 0.49684919E+03</pdfrwt>
<totfact> 0.37533325E+01</totfact>
</mgrwt>
</event>
<event>
12    1  0.1338445E-007  0.1407172E+04  0.7818608E-02  0.8948644E-01
         -2   -1    0    0    0  501 -0.00000000000E+00  0.00000000000E+00  0.13008601476E+04  0.13008601476E+04  0.00000000000E+00 0.  1.
          2   -1    0    0  501    0  0.00000000000E+00 -0.00000000000E+00 -0.19503544317E+04  0.19503544317E+04  0.00000000000E+00 0. -1.
         23    2    1    2    0    0 -0.97307009041E+03  0.10017895007E+04 -0.96354064176E+03  0.16991249568E+04  0.90373922750E+02 0.  0.
    5000000    2    1    2    0    0  0.97307009041E+03 -0.10017895007E+04  0.31404635770E+03  0.15520896225E+04  0.59992455941E+03 0.  0.
         23    2    4    4    0    0  0.25175224042E+03 -0.41580461955E+03  0.36809657258E+03  0.61667649906E+03  0.92315467614E+02 0.  0.
         23    2    4    4    0    0  0.72131784999E+03 -0.58598488116E+03 -0.54050214874E+02  0.93541312346E+03  0.91643680359E+02 0.  0.
          2    1    3    3  502    0 -0.91435735395E+03  0.93609784665E+03 -0.92752543783E+03  0.16039426383E+04  0.00000000000E+00 0. -1.
         -2    1    3    3    0  502 -0.58712736465E+02  0.65691654050E+02 -0.36015203932E+02  0.95182318470E+02  0.00000000000E+00 0.  1.
         13    1    5    5    0    0  0.11263132749E+03 -0.16972686835E+03  0.99356549080E+02  0.22663792626E+03  0.00000000000E+00 0.  1.
        -13    1    5    5    0    0  0.13912091293E+03 -0.24607775119E+03  0.26874002350E+03  0.39003857280E+03  0.00000000000E+00 0. -1.
          3    1    6    6  503    0  0.41989752517E+03 -0.30250183743E+03  0.43218668949E+01  0.51753258045E+03  0.00000000000E+00 0. -1.
         -3    1    6    6    0  503  0.30142032482E+03 -0.28348304373E+03 -0.58372081769E+02  0.41788054301E+03  0.00000000000E+00 0.  1.
<mgrwt>
<rscale>  0 0.14071717E+04</rscale>
<asrwt>0</asrwt>
<pdfrwt beam="1">  1        2 0.30005453E+00 0.14071717E+04</pdfrwt>
<pdfrwt beam="2">  1       -2 0.20013233E+00 0.14071717E+04</pdfrwt>
<totfact> 0.89633437E-01</totfact>
</mgrwt>
</event>
<event>
12    1  0.1338445E-007  0.1270194E+04  0.7818608E-02  0.9053541E-01
          1   -1    0    0  501    0  0.00000000000E+00  0.00000000000E+00  0.18561565785E+04  0.18561565785E+04  0.00000000000E+00 0. -1.
         -1   -1    0    0    0  501 -0.00000000000E+00 -0.00000000000E+00 -0.90422858428E+03  0.90422858428E+03  0.00000000000E+00 0.  1.
         23    2    1    2    0    0 -0.10409303731E+04  0.64367324889E+03  0.48897908265E+03  0.13208973823E+04  0.88419785648E+02 0.  0.
    5000000    2    1    2    0    0  0.10409303731E+04 -0.64367324889E+03  0.46294891155E+03  0.14394877804E+04  0.59996006738E+03 0.  0.
         23    2    4    4    0    0  0.22671556225E+03 -0.39646565254E+03 -0.18855888899E+01  0.46571239967E+03  0.91101723102E+02 0.  0.
         23    2    4    4    0    0  0.81421481081E+03 -0.24720759635E+03  0.46483450044E+03  0.97377538077E+03  0.90055680345E+02 0.  0.
          1    1    3    3  502    0 -0.53615645520E+03  0.36019358988E+03  0.29743361775E+03  0.71110472057E+03  0.00000000000E+00 0. -1.
         -1    1    3    3    0  502 -0.50477391785E+03  0.28347965901E+03  0.19154546490E+03  0.60979266176E+03  0.00000000000E+00 0.  1.
         11    1    5    5    0    0  0.13005392163E+03 -0.16260076658E+03 -0.32784182155E+02  0.21077911287E+03  0.00000000000E+00 0. -1.
        -11    1    5    5    0    0  0.96661640617E+02 -0.23386488596E+03  0.30898593265E+02  0.25493328680E+03  0.00000000000E+00 0.  1.
          4    1    6    6  503    0  0.34234134068E+02  0.48659496387E+01  0.30528617805E+02  0.46126455601E+02  0.00000000000E+00 0.  1.
         -4    1    6    6    0  503  0.77998067674E+03 -0.25207354599E+03  0.43430588264E+03  0.92764892517E+03  0.00000000000E+00 0. -1.
<mgrwt>
<rscale>  0 0.12701941E+04</rscale>
<asrwt>0</asrwt>
<pdfrwt beam="1">  1        1 0.28556255E+00 0.12701941E+04</pdfrwt>
<pdfrwt beam="2">  1       -1 0.13911209E+00 0.12701941E+04</pdfrwt>
<totfact> 0.15497426E+00</totfact>
</mgrwt>
</event>
<event>
12    1  0.1338445E-007  0.3588402E+03  0.7818608E-02  0.1059044E+00
          2   -1    0    0  501    0  0.00000000000E+00  0.00000000000E+00  0.18511559134E+04  0.18511559134E+04  0.00000000000E+00 0. -1.
         -2   -1    0    0    0  501 -0.00000000000E+00 -0.00000000000E+00 -0.13217875400E+03  0.13217875400E+03  0.00000000000E+00 0.  1.
         23    2    1    2    0    0  0.27654537133E+03 -0.17683318335E+02  0.80144964626E+03  0.85264572246E+03  0.88843403798E+02 0.  0.
    5000000    2    1    2    0    0 -0.27654537133E+03  0.17683318335E+02  0.91752751316E+03  0.11306889450E+04  0.59984223817E+03 0.  0.
         23    2    4    4    0    0 -0.20916557328E+03  0.14613570621E+03  0.92064328019E+03  0.95937537161E+03  0.87813282711E+02 0.  0.
         23    2    4    4    0    0 -0.67379798053E+02 -0.12845238788E+03 -0.31157670298E+01  0.17131357335E+03  0.91096538197E+02 0.  0.
          4    1    3    3  502    0  0.20362959101E+03  0.21305019050E+01  0.46202516294E+03  0.50491266628E+03  0.00000000000E+00 0. -1.
         -4    1    3    3    0  502  0.72915780317E+02 -0.19813820240E+02  0.33942448331E+03  0.34773305619E+03  0.00000000000E+00 0.  1.
         13    1    5    5    0    0 -0.11385575297E+03  0.12592615089E+03  0.64712983242E+03  0.66902731481E+03  0.00000000000E+00 0.  1.
        -13    1    5    5    0    0 -0.95309820311E+02  0.20209555323E+02  0.27351344777E+03  0.29034805680E+03  0.00000000000E+00 0. -1.
          1    1    6    6  503    0 -0.57907453795E+02 -0.18306241307E+02 -0.12838580858E+01  0.60745699167E+02  0.00000000000E+00 0. -1.
         -1    1    6    6    0  503 -0.94723442585E+01 -0.11014614657E+03 -0.18319089440E+01  0.11056787418E+03  0.00000000000E+00 0.  1.
<mgrwt>
<rscale>  0 0.35884022E+03</rscale>
<asrwt>0</asrwt>
<pdfrwt beam="1">  1        2 0.28479320E+00 0.35884022E+03</pdfrwt>
<pdfrwt beam="2">  1       -2 0.20335194E-01 0.35884022E+03</pdfrwt>
<totfact> 0.17964608E+02</totfact>
</mgrwt>
</event>
<event>
12    1  0.1338445E-007  0.5100440E+03  0.7818608E-02  0.1011190E+00
         -2   -1    0    0    0  501 -0.00000000000E+00  0.00000000000E+00  0.30688412394E+03  0.30688412394E+03  0.00000000000E+00 0.  1.
          2   -1    0    0  501    0  0.00000000000E+00 -0.00000000000E+00 -0.11416641835E+04  0.11416641835E+04  0.00000000000E+00 0. -1.
         23    2    1    2    0    0  0.32666240995E+03  0.26009063465E+03 -0.16775940451E+03  0.45890862861E+03  0.89991351254E+02 0.  0.
    5000000    2    1    2    0    0 -0.32666240995E+03 -0.26009063465E+03 -0.66702065504E+03  0.98963967882E+03  0.60009555184E+03 0.  0.
         23    2    4    4    0    0 -0.16803020344E+03  0.97649329102E+02 -0.37254484124E+01  0.21424150397E+03  0.90088857880E+02 0.  0.
         23    2    4    4    0    0 -0.15863220651E+03 -0.35773996375E+03 -0.66329520663E+03  0.77539817485E+03  0.90220506658E+02 0.  0.
          3    1    3    3  502    0  0.82023498200E+02  0.11320533972E+03 -0.34575924453E+02  0.14400971408E+03  0.00000000000E+00 0. -1.
         -3    1    3    3    0  502  0.24463891175E+03  0.14688529493E+03 -0.13318348006E+03  0.31489891453E+03  0.00000000000E+00 0.  1.
         11    1    5    5    0    0 -0.68147621552E+02  0.55786809600E+02 -0.44307672898E+02  0.98587201635E+02  0.00000000000E+00 0.  1.
        -11    1    5    5    0    0 -0.99882581892E+02  0.41862519502E+02  0.40582224486E+02  0.11565430233E+03  0.00000000000E+00 0. -1.
          4    1    6    6  503    0 -0.13928317637E+03 -0.22638986510E+03 -0.48551072435E+03  0.55350956423E+03  0.00000000000E+00 0. -1.
         -4    1    6    6    0  503 -0.19349030138E+02 -0.13135009865E+03 -0.17778448228E+03  0.22188861062E+03  0.00000000000E+00 0.  1.
<mgrwt>
<rscale>  0 0.51004396E+03</rscale>
<asrwt>0</asrwt>
<pdfrwt beam="1">  1        2 0.17564064E+00 0.51004396E+03</pdfrwt>
<pdfrwt beam="2">  1       -2 0.47212942E-01 0.51004396E+03</pdfrwt>
<totfact> 0.90756712E+01</totfact>
</mgrwt>
</event>
<event>
12    1  0.1338445E-007  0.4547576E+03  0.7818608E-02  0.1026313E+00
         -1   -1    0    0    0  501 -0.00000000000E+00  0.00000000000E+00  0.33651366242E+03  0.33651366242E+03  0.00000000000E+00 0.  1.
          1   -1    0    0  501    0  0.00000000000E+00 -0.00000000000E+00 -0.98595140152E+03  0.98595140152E+03  0.00000000000E+00 0. -1.
         23    2    1    2    0    0  0.15069613637E+03 -0.34318596384E+03 -0.44031977281E+03  0.58487137325E+03  0.87790031467E+02 0.  0.
    5000000    2    1    2    0    0 -0.15069613637E+03  0.34318596384E+03 -0.20911796629E+03  0.73759369070E+03  0.59985681411E+03 0.  0.
         23    2    4    4    0    0 -0.37383476901E+02  0.36989632537E+03  0.99040144886E+02  0.39520574059E+03  0.90320602464E+02 0.  0.
         23    2    4    4    0    0 -0.11331265947E+03 -0.26710361527E+02 -0.30815811117E+03  0.34238795010E+03  0.93353546729E+02 0.  0.
          4    1    3    3  502    0  0.59889477450E+02 -0.51267918281E+02 -0.79686538847E+02  0.11209412753E+03  0.00000000000E+00 0.  1.
         -4    1    3    3    0  502  0.90806658917E+02 -0.29191804556E+03 -0.36063323397E+03  0.47277724572E+03  0.00000000000E+00 0. -1.
         13    1    5    5    0    0  0.18791564592E+02  0.17548669755E+02  0.45820947807E+01  0.26116552272E+02  0.00000000000E+00 0.  1.
        -13    1    5    5    0    0 -0.56175041494E+02  0.35234765562E+03  0.94458050106E+02  0.36908918832E+03  0.00000000000E+00 0. -1.
          1    1    6    6  503    0 -0.99106016252E+02 -0.53136042397E+02 -0.19285487517E+03  0.22324525602E+03  0.00000000000E+00 0. -1.
         -1    1    6    6    0  503 -0.14206643214E+02  0.26425680870E+02 -0.11530323600E+03  0.11914269408E+03  0.00000000000E+00 0.  1.
<mgrwt>
<rscale>  0 0.45475758E+03</rscale>
<asrwt>0</asrwt>
<pdfrwt beam="1">  1        1 0.15168483E+00 0.45475758E+03</pdfrwt>
<pdfrwt beam="2">  1       -1 0.51771333E-01 0.45475758E+03</pdfrwt>
<totfact> 0.61742432E+01</totfact>
</mgrwt>
</event>
<event>
12    1  0.1614741E-007  0.8905326E+03  0.7818608E-02  0.9437494E-01
         -2   -1    0    0    0  501 -0.00000000000E+00  0.00000000000E+00  0.38908294582E+03  0.38908294582E+03  0.00000000000E+00 0.  1.
          2   -1    0    0  501    0  0.00000000000E+00 -0.00000000000E+00 -0.29056783021E+04  0.29056783021E+04  0.00000000000E+00 0. -1.
         23    2    1    2    0    0 -0.86406232911E+03 -0.17827723368E+03 -0.51345849647E+03  0.10252055178E+04  0.94974972706E+02 0.  0.
    5000000    2    1    2    0    0  0.86406232911E+03  0.17827723368E+03 -0.20031368598E+04  0.22695557301E+04  0.59994954156E+03 0.  0.
         23    2    4    4    0    0  0.14569233459E+03  0.61515574402E+02 -0.54767403135E+02  0.18777682727E+03  0.85148377338E+02 0.  0.
         23    2    4    4    0    0  0.71836999453E+03  0.11676165927E+03 -0.19483694567E+04  0.20817789029E+04  0.89281165886E+02 0.  0.
          2    1    3    3  502    0 -0.34028568798E+03 -0.11391218908E+03 -0.18659239567E+03  0.40445896997E+03  0.00000000000E+00 0.  1.
         -2    1    3    3    0  502 -0.52377664113E+03 -0.64365044592E+02 -0.32686610081E+03  0.62074654781E+03  0.00000000000E+00 0. -1.
         11    1    5    5    0    0  0.49901172486E+02  0.40155080085E+02  0.16909629175E+02  0.66245701981E+02  0.00000000000E+00 0.  1.
        -11    1    5    5    0    0  0.95791162100E+02  0.21360494318E+02 -0.71677032310E+02  0.12153112529E+03  0.00000000000E+00 0. -1.
          1    1    6    6  503    0  0.24372209460E+03  0.78798986008E+02 -0.63184505708E+03  0.68179022855E+03  0.00000000000E+00 0. -1.
         -1    1    6    6    0  503  0.47464789992E+03  0.37962673266E+02 -0.13165243996E+04  0.13999886743E+04  0.00000000000E+00 0.  1.
<mgrwt>
<rscale>  0 0.89053257E+03</rscale>
<asrwt>0</asrwt>
<pdfrwt beam="1">  1        2 0.44702744E+00 0.89053257E+03</pdfrwt>
<pdfrwt beam="2">  1       -2 0.59858913E-01 0.89053257E+03</pdfrwt>
<totfact> 0.53798762E+00</totfact>
</mgrwt>
</event>
<event>
12    1  0.1338445E-007  0.1313924E+04  0.7818608E-02  0.9018596E-01
          2   -1    0    0  501    0  0.00000000000E+00  0.00000000000E+00  0.16615722998E+04  0.16615722998E+04  0.00000000000E+00 0.  1.
         -2   -1    0    0    0  501 -0.00000000000E+00 -0.00000000000E+00 -0.12203985651E+04  0.12203985651E+04  0.00000000000E+00 0. -1.
         23    2    1    2    0    0  0.26550685047E+03 -0.12381058918E+04  0.71085740686E+03  0.14550454292E+04  0.91863273518E+02 0.  0.
    5000000    2    1    2    0    0 -0.26550685047E+03  0.12381058918E+04 -0.26968367216E+03  0.14269254357E+04  0.59998902413E+03 0.  0.
         23    2    4    4    0    0 -0.40537923571E+03  0.82478990375E+03 -0.37870531225E+02  0.92436538689E+03  0.91686865302E+02 0.  0.
         23    2    4    4    0    0  0.13987238524E+03  0.41331598808E+03 -0.23181314094E+03  0.50256004884E+03  0.91841604003E+02 0.  0.
          1    1    3    3  502    0  0.81936656963E+02 -0.40231217861E+03  0.18207160072E+03  0.44913113074E+03  0.00000000000E+00 0. -1.
         -1    1    3    3    0  502  0.18357019351E+03 -0.83579371322E+03  0.52878580614E+03  0.10059142984E+04  0.00000000000E+00 0.  1.
         13    1    5    5    0    0 -0.32197533604E+03  0.66186117398E+03  0.64098371397E+01  0.73604987376E+03  0.00000000000E+00 0.  1.
        -13    1    5    5    0    0 -0.83403899671E+02  0.16292872977E+03 -0.44280368365E+02  0.18831551313E+03  0.00000000000E+00 0. -1.
          1    1    6    6  503    0  0.41645644509E+02  0.23736389617E+03 -0.95240522408E+02  0.25912687244E+03  0.00000000000E+00 0. -1.
         -1    1    6    6    0  503  0.98226740732E+02  0.17595209191E+03 -0.13657261853E+03  0.24343317640E+03  0.00000000000E+00 0.  1.
<mgrwt>
<rscale>  0 0.13139236E+04</rscale>
<asrwt>0</asrwt>
<pdfrwt beam="1">  1        2 0.25562651E+00 0.13139236E+04</pdfrwt>
<pdfrwt beam="2">  1       -2 0.18775362E+00 0.13139236E+04</pdfrwt>
<totfact> 0.15850733E+00</totfact>
</mgrwt>
</event>
<event>
12    1  0.1338445E-007  0.5587957E+03  0.7818608E-02  0.9994783E-01
          2   -1    0    0  501    0  0.00000000000E+00  0.00000000000E+00  0.17540726261E+04  0.17540726261E+04  0.00000000000E+00 0. -1.
         -2   -1    0    0    0  501 -0.00000000000E+00 -0.00000000000E+00 -0.25826426672E+03  0.25826426672E+03  0.00000000000E+00 0.  1.
         23    2    1    2    0    0 -0.15617354537E+03 -0.36971322560E+03  0.74597618310E+02  0.41825892263E+03  0.91091581620E+02 0.  0.
    5000000    2    1    2    0    0  0.15617354537E+03  0.36971322560E+03  0.14212107411E+04  0.15940779702E+04  0.60013878314E+03 0.  0.
         23    2    4    4    0    0  0.22396488004E+03 -0.80658557768E+02  0.56413608012E+03  0.61898741938E+03  0.90718454670E+02 0.  0.
         23    2    4    4    0    0 -0.67791334667E+02  0.45037178337E+03  0.85707466098E+03  0.97509055083E+03  0.93777393449E+02 0.  0.
          3    1    3    3  502    0 -0.15905984709E+02 -0.14380741696E+03  0.39965004787E+02  0.15010254871E+03  0.00000000000E+00 0. -1.
         -3    1    3    3    0  502 -0.14026756067E+03 -0.22590580865E+03  0.34632613523E+02  0.26815637392E+03  0.00000000000E+00 0.  1.
         13    1    5    5    0    0  0.63882097733E+02 -0.64090059972E+02  0.25293344791E+03  0.26863318349E+03  0.00000000000E+00 0.  1.
        -13    1    5    5    0    0  0.16008278231E+03 -0.16568497796E+02  0.31120263221E+03  0.35035423589E+03  0.00000000000E+00 0. -1.
          1    1    6    6  503    0 -0.29542186011E+02  0.16207957592E+03  0.22067439586E+03  0.27539012087E+03  0.00000000000E+00 0. -1.
         -1    1    6    6    0  503 -0.38249148656E+02  0.28829220746E+03  0.63640026512E+03  0.69970042997E+03  0.00000000000E+00 0.  1.
<mgrwt>
<rscale>  0 0.55879568E+03</rscale>
<asrwt>0</asrwt>
<pdfrwt beam="1">  1        2 0.26985732E+00 0.55879568E+03</pdfrwt>
<pdfrwt beam="2">  1       -2 0.39732965E-01 0.55879568E+03</pdfrwt>
<totfact> 0.57595930E+01</totfact>
</mgrwt>
</event>
<event>
12    1  0.1338445E-007  0.6685002E+03  0.7818608E-02  0.9772671E-01
         -2   -1    0    0    0  501 -0.00000000000E+00  0.00000000000E+00  0.51776728711E+03  0.51776728711E+03  0.00000000000E+00 0.  1.
          2   -1    0    0  501    0  0.00000000000E+00 -0.00000000000E+00 -0.15488573277E+04  0.15488573277E+04  0.00000000000E+00 0. -1.
         23    2    1    2    0    0 -0.27808596821E+03  0.49227799765E+03 -0.10991499098E+04  0.12393972087E+04  0.91134428815E+02 0.  0.
    5000000    2    1    2    0    0  0.27808596821E+03 -0.49227799765E+03  0.68059869220E+02  0.82722740607E+03  0.60000300239E+03 0.  0.
         23    2    4    4    0    0  0.27212531434E+03 -0.59611103542E+03 -0.18866170536E+02  0.66191444840E+03  0.91510935659E+02 0.  0.
         23    2    4    4    0    0  0.59606538668E+01  0.10383303777E+03  0.86926039756E+02  0.16531295768E+03  0.94633019926E+02 0.  0.
          3    1    3    3  502    0 -0.24212193079E+02  0.88828825842E+02 -0.12924878379E+03  0.15868849582E+03  0.00000000000E+00 0. -1.
         -3    1    3    3    0  502 -0.25387377513E+03  0.40344917181E+03 -0.96990112600E+03  0.10807087129E+04  0.00000000000E+00 0.  1.
         11    1    5    5    0    0  0.16457460135E+03 -0.28431484170E+03  0.23648211332E+02  0.32936145270E+03  0.00000000000E+00 0. -1.
        -11    1    5    5    0    0  0.10755071299E+03 -0.31179619372E+03 -0.42514381868E+02  0.33255299570E+03  0.00000000000E+00 0.  1.
          1    1    6    6  503    0  0.11924116912E+02  0.91109979702E+01  0.66575882621E+02  0.68246193995E+02  0.00000000000E+00 0. -1.
         -1    1    6    6    0  503 -0.59634630450E+01  0.94722039804E+02  0.20350157135E+02  0.97066763681E+02  0.00000000000E+00 0.  1.
<mgrwt>
<rscale>  0 0.66850022E+03</rscale>
<asrwt>0</asrwt>
<pdfrwt beam="1">  1        2 0.23828575E+00 0.66850022E+03</pdfrwt>
<pdfrwt beam="2">  1       -2 0.79656504E-01 0.66850022E+03</pdfrwt>
<totfact> 0.17233572E+01</totfact>
</mgrwt>
</event>
<event>
12    1  0.1338445E-007  0.1280711E+04  0.7818608E-02  0.9045003E-01
          1   -1    0    0  501    0  0.00000000000E+00  0.00000000000E+00  0.27673096345E+04  0.27673096345E+04  0.00000000000E+00 0. -1.
         -1   -1    0    0    0  501 -0.00000000000E+00 -0.00000000000E+00 -0.74928627113E+03  0.74928627113E+03  0.00000000000E+00 0.  1.
         23    2    1    2    0    0 -0.88115985726E+03  0.89745264125E+03  0.28498394359E+03  0.12929015326E+04  0.92274523374E+02 0.  0.
    5000000    2    1    2    0    0  0.88115985726E+03 -0.89745264125E+03  0.17330394198E+04  0.22236943730E+04  0.59960578431E+03 0.  0.
         23    2    4    4    0    0  0.30034624986E+03 -0.51286020551E+03  0.11974162248E+04  0.13400412667E+04  0.93121002342E+02 0.  0.
         23    2    4    4    0    0  0.58081360740E+03 -0.38459243574E+03  0.53562319500E+03  0.88365310621E+03  0.93246002193E+02 0.  0.
          3    1    3    3  502    0 -0.55999748415E+03  0.50675951072E+03  0.16274316100E+03  0.77258508943E+03  0.00000000000E+00 0. -1.
         -3    1    3    3    0  502 -0.32116237311E+03  0.39069313053E+03  0.12224078258E+03  0.52031644321E+03  0.00000000000E+00 0.  1.
         11    1    5    5    0    0  0.29959552700E+02 -0.10877460260E+03  0.27707595733E+03  0.29916646720E+03  0.00000000000E+00 0. -1.
        -11    1    5    5    0    0  0.27038669716E+03 -0.40408560291E+03  0.92034026743E+03  0.10408747995E+04  0.00000000000E+00 0.  1.
          4    1    6    6  503    0  0.38164066724E+03 -0.20504794206E+03  0.35793529704E+03  0.56197147108E+03  0.00000000000E+00 0. -1.
         -4    1    6    6    0  503  0.19917294016E+03 -0.17954449368E+03  0.17768789796E+03  0.32168163513E+03  0.00000000000E+00 0.  1.
<mgrwt>
<rscale>  0 0.12807110E+04</rscale>
<asrwt>0</asrwt>
<pdfrwt beam="1">  1        1 0.42573994E+00 0.12807110E+04</pdfrwt>
<pdfrwt beam="2">  1       -1 0.11527481E+00 0.12807110E+04</pdfrwt>
<totfact> 0.58869174E-01</totfact>
</mgrwt>
</event>
<event>
12    1  0.1338445E-007  0.4430864E+03  0.7818608E-02  0.1029804E+00
          2   -1    0    0  501    0  0.00000000000E+00  0.00000000000E+00  0.60180385220E+03  0.60180385220E+03  0.00000000000E+00 0.  1.
         -2   -1    0    0    0  501 -0.00000000000E+00 -0.00000000000E+00 -0.39192060910E+03  0.39192060910E+03  0.00000000000E+00 0. -1.
         23    2    1    2    0    0  0.15221006463E+03  0.23937345912E+03  0.12138455762E+01  0.29803010735E+03  0.91394281858E+02 0.  0.
    5000000    2    1    2    0    0 -0.15221006463E+03 -0.23937345912E+03  0.20866939753E+03  0.69569435395E+03  0.59998346639E+03 0.  0.
         23    2    4    4    0    0  0.18838451314E+03 -0.92176552062E+01 -0.30263539664E+02  0.21164389359E+03  0.91123904129E+02 0.  0.
         23    2    4    4    0    0 -0.34059457777E+03 -0.23015580392E+03  0.23893293719E+03  0.48405046035E+03  0.90771907624E+02 0.  0.
          2    1    3    3  502    0  0.53236958838E+02  0.10410682888E+03 -0.43170861868E+02  0.12464400876E+03  0.00000000000E+00 0. -1.
         -2    1    3    3    0  502  0.98973105791E+02  0.13526663024E+03  0.44384707444E+02  0.17338609858E+03  0.00000000000E+00 0.  1.
         11    1    5    5    0    0  0.15513886622E+03  0.13080792350E+00 -0.59736213411E+02  0.16624229341E+03  0.00000000000E+00 0. -1.
        -11    1    5    5    0    0  0.33245646913E+02 -0.93484631297E+01  0.29472673747E+02  0.45401600185E+02  0.00000000000E+00 0.  1.
          3    1    6    6  503    0 -0.24191414856E+03 -0.14832492257E+03  0.11639268297E+03  0.30670832166E+03  0.00000000000E+00 0. -1.
         -3    1    6    6    0  503 -0.98680429208E+02 -0.81830881351E+02  0.12254025422E+03  0.17734213869E+03  0.00000000000E+00 0.  1.
<mgrwt>
<rscale>  0 0.44308640E+03</rscale>
<asrwt>0</asrwt>
<pdfrwt beam="1">  1        2 0.92585208E-01 0.44308640E+03</pdfrwt>
<pdfrwt beam="2">  1       -2 0.60295479E-01 0.44308640E+03</pdfrwt>
<totfact> 0.13068505E+02</totfact>
</mgrwt>
</event>
<event>
12    1  0.1338445E-007  0.7082459E+03  0.7818608E-02  0.9703234E-01
         -1   -1    0    0    0  501 -0.00000000000E+00  0.00000000000E+00  0.52018290836E+03  0.52018290836E+03  0.00000000000E+00 0.  1.
          1   -1    0    0  501    0  0.00000000000E+00 -0.00000000000E+00 -0.11853671096E+04  0.11853671096E+04  0.00000000000E+00 0. -1.
         23    2    1    2    0    0 -0.16891742227E+03 -0.57981410034E+03 -0.59314463552E+03  0.85127638449E+03  0.90185573420E+02 0.  0.
    5000000    2    1    2    0    0  0.16891742227E+03  0.57981410034E+03 -0.72039565698E+02  0.85427363346E+03  0.59989687055E+03 0.  0.
         23    2    4    4    0    0 -0.72553873185E+02 -0.79312630551E+02  0.16707742749E+02  0.14124255706E+03  0.90087476252E+02 0.  0.
         23    2    4    4    0    0  0.24147129545E+03  0.65912673089E+03 -0.88747308447E+02  0.71303107640E+03  0.88208827533E+02 0.  0.
          2    1    3    3  502    0 -0.28284335853E+02 -0.17374172615E+03 -0.12562300651E+03  0.21625755669E+03  0.00000000000E+00 0. -1.
         -2    1    3    3    0  502 -0.14063308642E+03 -0.40607237419E+03 -0.46752162902E+03  0.63501882781E+03  0.00000000000E+00 0.  1.
         11    1    5    5    0    0 -0.47060670221E+02 -0.54301554468E+02 -0.33779734603E+02  0.79400478394E+02  0.00000000000E+00 0.  1.
        -11    1    5    5    0    0 -0.25493202964E+02 -0.25011076082E+02  0.50487477352E+02  0.61842078664E+02  0.00000000000E+00 0. -1.
          1    1    6    6  503    0  0.14170183385E+03  0.44306121011E+03 -0.21241293875E+02  0.46565420452E+03  0.00000000000E+00 0.  1.
         -1    1    6    6    0  503  0.99769461602E+02  0.21606552078E+03 -0.67506014572E+02  0.24737687188E+03  0.00000000000E+00 0. -1.
<mgrwt>
<rscale>  0 0.70824589E+03</rscale>
<asrwt>0</asrwt>
<pdfrwt beam="1">  1        1 0.18236417E+00 0.70824589E+03</pdfrwt>
<pdfrwt beam="2">  1       -1 0.80028140E-01 0.70824589E+03</pdfrwt>
<totfact> 0.17710393E+01</totfact>
</mgrwt>
</event>
<event>
12    1  0.1338445E-007  0.5432500E+03  0.7818608E-02  0.1003068E+00
         -1   -1    0    0    0  501 -0.00000000000E+00  0.00000000000E+00  0.26673362702E+03  0.26673362702E+03  0.00000000000E+00 0.  1.
          1   -1    0    0  501    0  0.00000000000E+00 -0.00000000000E+00 -0.12709304106E+04  0.12709304106E+04  0.00000000000E+00 0. -1.
         23    2    1    2    0    0  0.23832034014E+03 -0.30494429584E+03 -0.15122141549E+03  0.42530452265E+03  0.90710596938E+02 0.  0.
    5000000    2    1    2    0    0 -0.23832034014E+03  0.30494429584E+03 -0.85297536809E+03  0.11123595150E+04  0.59999091984E+03 0.  0.
         23    2    4    4    0    0 -0.41449907155E+03  0.14479746633E+03 -0.44815688036E+03  0.63385073934E+03  0.90257319813E+02 0.  0.
         23    2    4    4    0    0  0.17617873142E+03  0.16014682951E+03 -0.40481848774E+03  0.47850877563E+03  0.91687992329E+02 0.  0.
          4    1    3    3  502    0  0.12292526674E+03 -0.93148023695E+02 -0.37910853224E+02  0.15882193902E+03  0.00000000000E+00 0.  1.
         -4    1    3    3    0  502  0.11539507340E+03 -0.21179627215E+03 -0.11331056226E+03  0.26648258364E+03  0.00000000000E+00 0. -1.
         11    1    5    5    0    0 -0.21028920198E+03  0.11661345286E+03 -0.21416740286E+03  0.32200609047E+03  0.00000000000E+00 0.  1.
        -11    1    5    5    0    0 -0.20420986957E+03  0.28184013474E+02 -0.23398947750E+03  0.31184464887E+03  0.00000000000E+00 0. -1.
          1    1    6    6  503    0  0.11705129899E+03  0.69143263141E+02 -0.29129481721E+03  0.32145679021E+03  0.00000000000E+00 0. -1.
         -1    1    6    6    0  503  0.59127432425E+02  0.91003566372E+02 -0.11352367052E+03  0.15705198543E+03  0.00000000000E+00 0.  1.
<mgrwt>
<rscale>  0 0.54325002E+03</rscale>
<asrwt>0</asrwt>
<pdfrwt beam="1">  1        1 0.19552775E+00 0.54325002E+03</pdfrwt>
<pdfrwt beam="2">  1       -1 0.41035943E-01 0.54325002E+03</pdfrwt>
<totfact> 0.57946647E+01</totfact>
</mgrwt>
</event>
<event>
12    1  0.1338445E-007  0.1865457E+04  0.7818608E-02  0.8672244E-01
          1   -1    0    0  501    0  0.00000000000E+00  0.00000000000E+00  0.37954271780E+04  0.37954271780E+04  0.00000000000E+00 0. -1.
         -1   -1    0    0    0  501 -0.00000000000E+00 -0.00000000000E+00 -0.10454298987E+04  0.10454298987E+04  0.00000000000E+00 0.  1.
         23    2    1    2    0    0  0.70037012820E+03  0.17033778287E+04  0.58224173780E+03  0.19337759204E+04  0.92030025378E+02 0.  0.
    5000000    2    1    2    0    0 -0.70037012820E+03 -0.17033778287E+04  0.21677555415E+04  0.29070811562E+04  0.59995201252E+03 0.  0.
         23    2    4    4    0    0 -0.50287255758E+03 -0.15322690069E+04  0.20414208564E+04  0.26031707713E+04  0.91486790721E+02 0.  0.
         23    2    4    4    0    0 -0.19749757062E+03 -0.17110882175E+03  0.12633468511E+03  0.30391038490E+03  0.90097447841E+02 0.  0.
          3    1    3    3  502    0  0.30089338284E+02  0.36989952481E+02  0.19823089362E+02  0.51638936228E+02  0.00000000000E+00 0. -1.
         -3    1    3    3    0  502  0.67028078992E+03  0.16663878762E+04  0.56241864843E+03  0.18821369842E+04  0.00000000000E+00 0.  1.
         13    1    5    5    0    0 -0.44723356893E+03 -0.13086743891E+04  0.17920891040E+04  0.22636761868E+04  0.00000000000E+00 0.  1.
        -13    1    5    5    0    0 -0.55638988651E+02 -0.22359461779E+03  0.24933175245E+03  0.33949458456E+03  0.00000000000E+00 0. -1.
          2    1    6    6  503    0  0.76215592384E+01 -0.11470823853E+02  0.17135112169E+02  0.21983631050E+02  0.00000000000E+00 0. -1.
         -2    1    6    6    0  503 -0.20511912986E+03 -0.15963799789E+03  0.10919957294E+03  0.28192675385E+03  0.00000000000E+00 0.  1.
<mgrwt>
<rscale>  0 0.18654568E+04</rscale>
<asrwt>0</asrwt>
<pdfrwt beam="1">  1        1 0.58391186E+00 0.18654568E+04</pdfrwt>
<pdfrwt beam="2">  1       -1 0.16083537E+00 0.18654568E+04</pdfrwt>
<totfact> 0.37870922E-02</totfact>
</mgrwt>
</event>
<event>
12    1  0.1338445E-007  0.2071974E+03  0.7818608E-02  0.1143805E+00
          1   -1    0    0  501    0  0.00000000000E+00  0.00000000000E+00  0.17866143939E+04  0.17866143939E+04  0.00000000000E+00 0. -1.
         -1   -1    0    0    0  501 -0.00000000000E+00 -0.00000000000E+00 -0.88909139776E+02  0.88909139776E+02  0.00000000000E+00 0.  1.
         23    2    1    2    0    0  0.11375939519E+03 -0.81585866635E+02  0.51426949390E+03  0.54126945990E+03  0.94350740497E+02 0.  0.
    5000000    2    1    2    0    0 -0.11375939519E+03  0.81585866635E+02  0.11834357602E+04  0.13342540737E+04  0.60009689316E+03 0.  0.
         23    2    4    4    0    0  0.35748349370E+02 -0.25970868701E+02 -0.28309752243E+02  0.10523340032E+03  0.91215108216E+02 0.  0.
         23    2    4    4    0    0 -0.14950774456E+03  0.10755673534E+03  0.12117455124E+04  0.12290206734E+04  0.90794337968E+02 0.  0.
          1    1    3    3  502    0 -0.41876241289E+01 -0.19298561401E+02  0.18438481330E+03  0.18543928937E+03  0.00000000000E+00 0. -1.
         -1    1    3    3    0  502  0.11794701932E+03 -0.62287305234E+02  0.32988468061E+03  0.35583017053E+03  0.00000000000E+00 0.  1.
         11    1    5    5    0    0 -0.16937273033E+02  0.10006341227E+01 -0.41288747390E+02  0.44638919650E+02  0.00000000000E+00 0.  1.
        -11    1    5    5    0    0  0.52685622403E+02 -0.26971502824E+02  0.12978995148E+02  0.60594480669E+02  0.00000000000E+00 0. -1.
          2    1    6    6  503    0 -0.72254256227E+02  0.40617448409E+02  0.81925460066E+03  0.82343703788E+03  0.00000000000E+00 0. -1.
         -2    1    6    6    0  503 -0.77253488335E+02  0.66939286927E+02  0.39249091176E+03  0.40558363553E+03  0.00000000000E+00 0.  1.
<mgrwt>
<rscale>  0 0.20719736E+03</rscale>
<asrwt>0</asrwt>
<pdfrwt beam="1">  1        1 0.27486373E+00 0.20719736E+03</pdfrwt>
<pdfrwt beam="2">  1       -1 0.13678331E-01 0.20719736E+03</pdfrwt>
<totfact> 0.17655134E+02</totfact>
</mgrwt>
</event>
<event>
12    1  0.1338445E-007  0.7350482E+03  0.7818608E-02  0.9659104E-01
          2   -1    0    0  501    0  0.00000000000E+00  0.00000000000E+00  0.20982797177E+04  0.20982797177E+04  0.00000000000E+00 0. -1.
         -2   -1    0    0    0  501 -0.00000000000E+00 -0.00000000000E+00 -0.29081184752E+03  0.29081184752E+03  0.00000000000E+00 0.  1.
         23    2    1    2    0    0 -0.41857903179E+03 -0.50150697750E+03  0.60547490726E+03  0.89525469885E+03  0.90351857509E+02 0.  0.
    5000000    2    1    2    0    0  0.41857903179E+03  0.50150697750E+03  0.12019929630E+04  0.14938368664E+04  0.60003653731E+03 0.  0.
         23    2    4    4    0    0 -0.93924805368E+02  0.99493116979E+02  0.52795632227E+03  0.55272012981E+03  0.89671145220E+02 0.  0.
         23    2    4    4    0    0  0.51250383716E+03  0.40201386052E+03  0.67403664069E+03  0.94111673660E+03  0.84261448842E+02 0.  0.
          1    1    3    3  502    0 -0.39341122199E+03 -0.49321573053E+03  0.59346770430E+03  0.86616283831E+03  0.00000000000E+00 0. -1.
         -1    1    3    3    0  502 -0.25167809803E+02 -0.82912469665E+01  0.12007202966E+02  0.29091860538E+02  0.00000000000E+00 0.  1.
         11    1    5    5    0    0 -0.74866571410E+02  0.11464930470E+03  0.40948958759E+03  0.43177678137E+03  0.00000000000E+00 0.  1.
        -11    1    5    5    0    0 -0.19058233958E+02 -0.15156187717E+02  0.11846673468E+03  0.12094334844E+03  0.00000000000E+00 0. -1.
          4    1    6    6  503    0  0.30104261453E+03  0.24145705182E+03  0.45733836286E+03  0.59840332702E+03  0.00000000000E+00 0. -1.
         -4    1    6    6    0  503  0.21146122263E+03  0.16055680870E+03  0.21669827783E+03  0.34271340958E+03  0.00000000000E+00 0.  1.
<mgrwt>
<rscale>  0 0.73504821E+03</rscale>
<asrwt>0</asrwt>
<pdfrwt beam="1">  1        2 0.32281225E+00 0.73504821E+03</pdfrwt>
<pdfrwt beam="2">  1       -2 0.44740286E-01 0.73504821E+03</pdfrwt>
<totfact> 0.28927096E+01</totfact>
</mgrwt>
</event>
<event>
12    1  0.1338445E-007  0.8250610E+03  0.7818608E-02  0.9524434E-01
          2   -1    0    0  501    0  0.00000000000E+00  0.00000000000E+00  0.16172488564E+04  0.16172488564E+04  0.00000000000E+00 0. -1.
         -2   -1    0    0    0  501 -0.00000000000E+00 -0.00000000000E+00 -0.74156479328E+03  0.74156479328E+03  0.00000000000E+00 0.  1.
         23    2    1    2    0    0  0.50145933580E+03  0.56593700922E+03 -0.31624631930E+03  0.82502922189E+03  0.94420965088E+02 0.  0.
    5000000    2    1    2    0    0 -0.50145933580E+03 -0.56593700922E+03  0.11919303824E+04  0.15337844278E+04  0.60004205730E+03 0.  0.
         23    2    4    4    0    0  0.13873328892E+02  0.37604938925E+02  0.38657053263E+03  0.39934592271E+03  0.91835660854E+02 0.  0.
         23    2    4    4    0    0 -0.51533266469E+03 -0.60354194814E+03  0.80535984978E+03  0.11344385051E+04  0.92279985255E+02 0.  0.
          2    1    3    3  502    0  0.26318595126E+03  0.28172339058E+03 -0.11123125601E+03  0.40125715702E+03  0.00000000000E+00 0.  1.
         -2    1    3    3    0  502  0.23827338454E+03  0.28421361863E+03 -0.20501506329E+03  0.42377206488E+03  0.00000000000E+00 0. -1.
         11    1    5    5    0    0  0.54100352740E+01 -0.30111392054E+02  0.91210458448E+02  0.96204532863E+02  0.00000000000E+00 0. -1.
        -11    1    5    5    0    0  0.84632936185E+01  0.67716330979E+02  0.29536007418E+03  0.30314138985E+03  0.00000000000E+00 0.  1.
          1    1    6    6  503    0 -0.23930117450E+03 -0.31464422268E+03  0.34320959716E+03  0.52350631951E+03  0.00000000000E+00 0. -1.
         -1    1    6    6    0  503 -0.27603149019E+03 -0.28889772546E+03  0.46215025262E+03  0.61093218556E+03  0.00000000000E+00 0.  1.
<mgrwt>
<rscale>  0 0.82506101E+03</rscale>
<asrwt>0</asrwt>
<pdfrwt beam="1">  1        2 0.24880751E+00 0.82506101E+03</pdfrwt>
<pdfrwt beam="2">  1       -2 0.11408689E+00 0.82506101E+03</pdfrwt>
<totfact> 0.66661480E+00</totfact>
</mgrwt>
</event>
<event>
12    1  0.1338445E-007  0.1224731E+04  0.7818608E-02  0.9091481E-01
          1   -1    0    0  501    0  0.00000000000E+00  0.00000000000E+00  0.26401489558E+04  0.26401489558E+04  0.00000000000E+00 0.  1.
         -1   -1    0    0    0  501 -0.00000000000E+00 -0.00000000000E+00 -0.10160773070E+04  0.10160773070E+04  0.00000000000E+00 0. -1.
         23    2    1    2    0    0 -0.11528898210E+04 -0.83070701589E+02  0.19900680711E+04  0.23032838828E+04  0.93220365597E+02 0.  0.
    5000000    2    1    2    0    0  0.11528898210E+04  0.83070701589E+02 -0.36599642225E+03  0.13529423800E+04  0.60036990399E+03 0.  0.
         23    2    4    4    0    0  0.11012511430E+04 -0.79986409878E+02 -0.30843449941E+03  0.11502075003E+04  0.93239195874E+02 0.  0.
         23    2    4    4    0    0  0.51638678075E+02  0.16305711147E+03 -0.57561922836E+02  0.20273487972E+03  0.92379011806E+02 0.  0.
          2    1    3    3  502    0 -0.62079682377E+03 -0.69600422689E+02  0.11521857154E+04  0.13106352803E+04  0.00000000000E+00 0. -1.
         -2    1    3    3    0  502 -0.53209299726E+03 -0.13470278900E+02  0.83788235567E+03  0.99264860252E+03  0.00000000000E+00 0.  1.
         11    1    5    5    0    0  0.49561476910E+03 -0.13317607908E+02 -0.96441542079E+02  0.50508645703E+03  0.00000000000E+00 0. -1.
        -11    1    5    5    0    0  0.60563637385E+03 -0.66668801971E+02 -0.21199295733E+03  0.64512104326E+03  0.00000000000E+00 0.  1.
          4    1    6    6  503    0 -0.10945944786E+02 -0.17937975613E+01  0.89746306908E+01  0.14267985597E+02  0.00000000000E+00 0. -1.
         -4    1    6    6    0  503  0.62584622862E+02  0.16485090903E+03 -0.66536553526E+02  0.18846689413E+03  0.00000000000E+00 0.  1.
<mgrwt>
<rscale>  0 0.12247306E+04</rscale>
<asrwt>0</asrwt>
<pdfrwt beam="1">  1        1 0.40617676E+00 0.12247306E+04</pdfrwt>
<pdfrwt beam="2">  1       -1 0.15631959E+00 0.12247306E+04</pdfrwt>
<totfact> 0.33188723E-01</totfact>
</mgrwt>
</event>
<event>
12    1  0.1338445E-007  0.7229470E+03  0.7818608E-02  0.9678775E-01
          1   -1    0    0  501    0  0.00000000000E+00  0.00000000000E+00  0.39584574027E+03  0.39584574027E+03  0.00000000000E+00 0. -1.
         -1   -1    0    0    0  501 -0.00000000000E+00 -0.00000000000E+00 -0.20670150316E+04  0.20670150316E+04  0.00000000000E+00 0.  1.
         23    2    1    2    0    0 -0.56569119153E+03  0.19554361801E+03 -0.18753340239E+02  0.60574141640E+03  0.91253192030E+02 0.  0.
    5000000    2    1    2    0    0  0.56569119153E+03 -0.19554361801E+03 -0.16524159511E+04  0.18571193554E+04  0.60014164523E+03 0.  0.
         23    2    4    4    0    0  0.31726816315E+03  0.18557673399E+03 -0.62474972036E+03  0.72958341853E+03  0.82957458726E+02 0.  0.
         23    2    4    4    0    0  0.24842302838E+03 -0.38112035200E+03 -0.10276662307E+04  0.11275359369E+04  0.90954293884E+02 0.  0.
          3    1    3    3  502    0 -0.31920349229E+03  0.15763873502E+03 -0.15192546156E+02  0.35633082062E+03  0.00000000000E+00 0. -1.
         -3    1    3    3    0  502 -0.24648769924E+03  0.37904882991E+02 -0.35607940835E+01  0.24941059578E+03  0.00000000000E+00 0.  1.
         13    1    5    5    0    0  0.11950472141E+03  0.11721289186E+03 -0.26702091706E+03  0.31515140901E+03  0.00000000000E+00 0.  1.
        -13    1    5    5    0    0  0.19776344174E+03  0.68363842131E+02 -0.35772880330E+03  0.41443200951E+03  0.00000000000E+00 0. -1.
          3    1    6    6  503    0  0.10946446859E+03 -0.91645078114E+02 -0.32574636180E+03  0.35565711360E+03  0.00000000000E+00 0. -1.
         -3    1    6    6    0  503  0.13895855979E+03 -0.28947527389E+03 -0.70191986890E+03  0.77187882332E+03  0.00000000000E+00 0.  1.
<mgrwt>
<rscale>  0 0.72294704E+03</rscale>
<asrwt>0</asrwt>
<pdfrwt beam="1">  1        1 0.60899344E-01 0.72294704E+03</pdfrwt>
<pdfrwt beam="2">  1       -1 0.31800232E+00 0.72294704E+03</pdfrwt>
<totfact> 0.16266788E+00</totfact>
</mgrwt>
</event>
<event>
12    1  0.1338445E-007  0.8268614E+03  0.7818608E-02  0.9521930E-01
         -2   -1    0    0    0  501 -0.00000000000E+00  0.00000000000E+00  0.38585106273E+03  0.38585106273E+03  0.00000000000E+00 0.  1.
          2   -1    0    0  501    0  0.00000000000E+00 -0.00000000000E+00 -0.21353297688E+04  0.21353297688E+04  0.00000000000E+00 0. -1.
         23    2    1    2    0    0 -0.61708237491E+03 -0.51739495910E+03 -0.75679181710E+03  0.11090850974E+04  0.94062201348E+02 0.  0.
    5000000    2    1    2    0    0  0.61708237491E+03  0.51739495910E+03 -0.99268688901E+03  0.14120957342E+04  0.60008241242E+03 0.  0.
         23    2    4    4    0    0  0.16166975048E+03  0.44411405232E+02  0.30646520889E+02  0.19300320455E+03  0.90562390585E+02 0.  0.
         23    2    4    4    0    0  0.45541262443E+03  0.47298355387E+03 -0.10233334099E+04  0.12190925296E+04  0.88663561973E+02 0.  0.
          2    1    3    3  502    0 -0.19640108218E+03 -0.18538069920E+03 -0.31181744353E+03  0.41251606854E+03  0.00000000000E+00 0. -1.
         -2    1    3    3    0  502 -0.42068129273E+03 -0.33201425990E+03 -0.44497437357E+03  0.69656902886E+03  0.00000000000E+00 0.  1.
         13    1    5    5    0    0  0.10537907821E+03  0.66750799863E+02  0.41527075429E+02  0.13147211644E+03  0.00000000000E+00 0.  1.
        -13    1    5    5    0    0  0.56290672268E+02 -0.22339394631E+02 -0.10880554540E+02  0.61531088110E+02  0.00000000000E+00 0. -1.
          4    1    6    6  503    0  0.71707058160E+02  0.33905662964E+02 -0.13025370260E+03  0.15250417441E+03  0.00000000000E+00 0. -1.
         -4    1    6    6    0  503  0.38370556627E+03  0.43907789091E+03 -0.89307970730E+03  0.10665883552E+04  0.00000000000E+00 0.  1.
<mgrwt>
<rscale>  0 0.82686138E+03</rscale>
<asrwt>0</asrwt>
<pdfrwt beam="1">  1        2 0.32851227E+00 0.82686138E+03</pdfrwt>
<pdfrwt beam="2">  1       -2 0.59361702E-01 0.82686138E+03</pdfrwt>
<totfact> 0.15271176E+01</totfact>
</mgrwt>
</event>
<event>
12    1  0.1338445E-007  0.8645107E+03  0.7818608E-02  0.9471065E-01
          1   -1    0    0  501    0  0.00000000000E+00  0.00000000000E+00  0.14819388524E+04  0.14819388524E+04  0.00000000000E+00 0. -1.
         -1   -1    0    0    0  501 -0.00000000000E+00 -0.00000000000E+00 -0.55609491292E+03  0.55609491292E+03  0.00000000000E+00 0.  1.
         23    2    1    2    0    0 -0.66937574661E+03 -0.38577823382E+03  0.67047958322E+03  0.10269693869E+04  0.90744223927E+02 0.  0.
    5000000    2    1    2    0    0  0.66937574661E+03  0.38577823382E+03  0.25536435631E+03  0.10110643785E+04  0.60012622604E+03 0.  0.
         23    2    4    4    0    0  0.60756915582E+03  0.50824572147E+03  0.28251987066E+03  0.84656635025E+03  0.96969663156E+02 0.  0.
         23    2    4    4    0    0  0.61806590794E+02 -0.12246748766E+03 -0.27155514350E+02  0.16449802825E+03  0.86624702839E+02 0.  0.
          2    1    3    3  502    0 -0.33207280900E+03 -0.15956186079E+03  0.27157018422E+03  0.45769280402E+03  0.00000000000E+00 0. -1.
         -2    1    3    3    0  502 -0.33730293761E+03 -0.22621637303E+03  0.39890939900E+03  0.56927658283E+03  0.00000000000E+00 0.  1.
         11    1    5    5    0    0  0.12740755019E+03  0.12731967590E+03  0.10489071547E+03  0.20843475216E+03  0.00000000000E+00 0. -1.
        -11    1    5    5    0    0  0.48016160562E+03  0.38092604557E+03  0.17762915519E+03  0.63813159809E+03  0.00000000000E+00 0.  1.
          1    1    6    6  503    0 -0.21165385870E+02 -0.34789632998E+02 -0.14038074025E+02  0.43073885888E+02  0.00000000000E+00 0. -1.
         -1    1    6    6    0  503  0.82971976664E+02 -0.87677854657E+02 -0.13117440325E+02  0.12142414237E+03  0.00000000000E+00 0.  1.
<mgrwt>
<rscale>  0 0.86451074E+03</rscale>
<asrwt>0</asrwt>
<pdfrwt beam="1">  1        1 0.22799059E+00 0.86451074E+03</pdfrwt>
<pdfrwt beam="2">  1       -1 0.85553064E-01 0.86451074E+03</pdfrwt>
<totfact> 0.92898021E+00</totfact>
</mgrwt>
</event>
<event>
12    1  0.1338445E-007  0.8557644E+03  0.7818608E-02  0.9482633E-01
         -2   -1    0    0    0  501 -0.00000000000E+00  0.00000000000E+00  0.38881952235E+03  0.38881952235E+03  0.00000000000E+00 0.  1.
          2   -1    0    0  501    0  0.00000000000E+00 -0.00000000000E+00 -0.22116052001E+04  0.22116052001E+04  0.00000000000E+00 0. -1.
         23    2    1    2    0    0  0.71238245128E+03 -0.39597805052E+03 -0.61650869558E+03  0.10258355874E+04  0.89265375433E+02 0.  0.
    5000000    2    1    2    0    0 -0.71238245128E+03  0.39597805052E+03 -0.12062769822E+04  0.15745891351E+04  0.59994950882E+03 0.  0.
         23    2    4    4    0    0 -0.37766051386E+03  0.39801790467E+03 -0.36929585835E+03  0.66837777326E+03  0.96455692550E+02 0.  0.
         23    2    4    4    0    0 -0.33472193742E+03 -0.20398541572E+01 -0.83698112384E+03  0.90621136180E+03  0.92944576009E+02 0.  0.
          2    1    3    3  502    0  0.11070110449E+03 -0.87065139376E+02 -0.13923961664E+03  0.19804732735E+03  0.00000000000E+00 0. -1.
         -2    1    3    3    0  502  0.60168134679E+03 -0.30891291114E+03 -0.47726907894E+03  0.82778826004E+03  0.00000000000E+00 0.  1.
         13    1    5    5    0    0 -0.74548359775E+02  0.43581834265E+02 -0.90212069571E+02  0.12488014942E+03  0.00000000000E+00 0. -1.
        -13    1    5    5    0    0 -0.30311215408E+03  0.35443607041E+03 -0.27908378877E+03  0.54349762384E+03  0.00000000000E+00 0.  1.
          1    1    6    6  503    0 -0.54263763510E+02 -0.25938319261E+02 -0.92886649313E+02  0.11065840256E+03  0.00000000000E+00 0. -1.
         -1    1    6    6    0  503 -0.28045817391E+03  0.23898465104E+02 -0.74409447452E+03  0.79555295924E+03  0.00000000000E+00 0.  1.
<mgrwt>
<rscale>  0 0.85576437E+03</rscale>
<asrwt>0</asrwt>
<pdfrwt beam="1">  1        2 0.34024696E+00 0.85576437E+03</pdfrwt>
<pdfrwt beam="2">  1       -2 0.59818387E-01 0.85576437E+03</pdfrwt>
<totfact> 0.13584233E+01</totfact>
</mgrwt>
</event>
<event>
12    1  0.1338445E-007  0.9071395E+03  0.7818608E-02  0.9416700E-01
          1   -1    0    0  501    0  0.00000000000E+00  0.00000000000E+00  0.13649374438E+04  0.13649374438E+04  0.00000000000E+00 0. -1.
         -1   -1    0    0    0  501 -0.00000000000E+00 -0.00000000000E+00 -0.67999324553E+03  0.67999324553E+03  0.00000000000E+00 0.  1.
         23    2    1    2    0    0 -0.78919338224E+03 -0.30501499476E+03  0.50912374763E+03  0.99282910037E+03  0.10316147803E+03 0.  0.
    5000000    2    1    2    0    0  0.78919338224E+03  0.30501499476E+03  0.17582045064E+03  0.10521015889E+04  0.60012047208E+03 0.  0.
         23    2    4    4    0    0  0.30357054006E+03 -0.10503795071E+03  0.23550820531E+03  0.40852928783E+03  0.90796587848E+02 0.  0.
         23    2    4    4    0    0  0.48562284218E+03  0.41005294548E+03 -0.59687754664E+02  0.64357230112E+03  0.81545789440E+02 0.  0.
          3    1    3    3  502    0 -0.72176890945E+03 -0.26871217677E+03  0.42730123781E+03  0.88076270381E+03  0.00000000000E+00 0. -1.
         -3    1    3    3    0  502 -0.67424472786E+02 -0.36302817998E+02  0.81822509818E+02  0.11206639656E+03  0.00000000000E+00 0.  1.
         11    1    5    5    0    0  0.24082021843E+03 -0.11744908528E+03  0.20658464379E+03  0.33832806607E+03  0.00000000000E+00 0.  1.
        -11    1    5    5    0    0  0.62750321627E+02  0.12411134572E+02  0.28923561513E+02  0.70201221757E+02  0.00000000000E+00 0. -1.
          1    1    6    6  503    0  0.13459940544E+03  0.10913289495E+03  0.19890832109E+02  0.17442085284E+03  0.00000000000E+00 0. -1.
         -1    1    6    6    0  503  0.35102343675E+03  0.30092005053E+03 -0.79578586773E+02  0.46915144829E+03  0.00000000000E+00 0.  1.
<mgrwt>
<rscale>  0 0.90713953E+03</rscale>
<asrwt>0</asrwt>
<pdfrwt beam="1">  1        1 0.20999038E+00 0.90713953E+03</pdfrwt>
<pdfrwt beam="2">  1       -1 0.10461435E+00 0.90713953E+03</pdfrwt>
<totfact> 0.70936970E+00</totfact>
</mgrwt>
</event>
<event>
12    1  0.1338445E-007  0.8754210E+03  0.7818608E-02  0.9456839E-01
         -2   -1    0    0    0  501 -0.00000000000E+00  0.00000000000E+00  0.43747790979E+03  0.43747790979E+03  0.00000000000E+00 0.  1.
          2   -1    0    0  501    0  0.00000000000E+00 -0.00000000000E+00 -0.20823711710E+04  0.20823711710E+04  0.00000000000E+00 0. -1.
         23    2    1    2    0    0 -0.13662563434E+03  0.80135801463E+03 -0.38356424296E+03  0.90369788705E+03  0.93311901743E+02 0.  0.
    5000000    2    1    2    0    0  0.13662563434E+03 -0.80135801463E+03 -0.12613290183E+04  0.16161511938E+04  0.60012711752E+03 0.  0.
         23    2    4    4    0    0  0.28886700475E+03 -0.61411427764E+03 -0.61469410389E+03  0.92030888487E+03  0.92407303761E+02 0.  0.
         23    2    4    4    0    0 -0.15224137041E+03 -0.18724373699E+03 -0.64663491440E+03  0.69584230890E+03  0.88442944458E+02 0.  0.
          1    1    3    3  502    0 -0.65394809393E+02  0.61696317765E+03 -0.28306609560E+03  0.68194314876E+03  0.00000000000E+00 0. -1.
         -1    1    3    3    0  502 -0.71230824948E+02  0.18439483699E+03 -0.10049814736E+03  0.22175473829E+03  0.00000000000E+00 0.  1.
         13    1    5    5    0    0  0.12203934249E+03 -0.21646057921E+03 -0.28050863996E+03  0.37474508744E+03  0.00000000000E+00 0. -1.
        -13    1    5    5    0    0  0.16682766226E+03 -0.39765369843E+03 -0.33418546392E+03  0.54556379743E+03  0.00000000000E+00 0.  1.
          4    1    6    6  503    0 -0.98777198125E+02 -0.61427318250E+02 -0.23714791198E+03  0.26413894535E+03  0.00000000000E+00 0. -1.
         -4    1    6    6    0  503 -0.53464172285E+02 -0.12581641874E+03 -0.40948700243E+03  0.43170336355E+03  0.00000000000E+00 0.  1.
<mgrwt>
<rscale>  0 0.87542102E+03</rscale>
<asrwt>0</asrwt>
<pdfrwt beam="1">  1        2 0.32036480E+00 0.87542102E+03</pdfrwt>
<pdfrwt beam="2">  1       -2 0.67304292E-01 0.87542102E+03</pdfrwt>
<totfact> 0.12404804E+01</totfact>
</mgrwt>
</event>
<event>
12    1  0.1338445E-007  0.4588672E+03  0.7818608E-02  0.1025110E+00
          2   -1    0    0  501    0  0.00000000000E+00  0.00000000000E+00  0.20668873058E+04  0.20668873058E+04  0.00000000000E+00 0. -1.
         -2   -1    0    0    0  501 -0.00000000000E+00 -0.00000000000E+00 -0.24167347922E+03  0.24167347922E+03  0.00000000000E+00 0.  1.
         23    2    1    2    0    0 -0.15805852987E+03  0.26088604189E+03 -0.44495233320E+02  0.32151241228E+03  0.91358523094E+02 0.  0.
    5000000    2    1    2    0    0  0.15805852987E+03 -0.26088604189E+03  0.18697090599E+04  0.19870483728E+04  0.59958755926E+03 0.  0.
         23    2    4    4    0    0  0.34545692469E+03 -0.14960372088E+03  0.14870587358E+04  0.15365030988E+04  0.88183494751E+02 0.  0.
         23    2    4    4    0    0 -0.18739839482E+03 -0.11128232102E+03  0.38265032417E+03  0.45054527402E+03  0.95225311766E+02 0.  0.
          4    1    3    3  502    0 -0.92987772950E+02  0.10351454624E+03 -0.57854248282E+02  0.15069539225E+03  0.00000000000E+00 0. -1.
         -4    1    3    3    0  502 -0.65070756921E+02  0.15737149566E+03  0.13359014962E+02  0.17081702003E+03  0.00000000000E+00 0.  1.
         11    1    5    5    0    0  0.20162327461E+03 -0.12828807656E+03  0.84177985888E+03  0.87504463101E+03  0.00000000000E+00 0.  1.
        -11    1    5    5    0    0  0.14383365008E+03 -0.21315644312E+02  0.64527887689E+03  0.66145846774E+03  0.00000000000E+00 0. -1.
          1    1    6    6  503    0 -0.15161870197E+03 -0.11138012930E+03  0.24836474162E+03  0.31157472438E+03  0.00000000000E+00 0.  1.
         -1    1    6    6    0  503 -0.35779692849E+02  0.97808286262E-01  0.13428558255E+03  0.13897054964E+03  0.00000000000E+00 0. -1.
<mgrwt>
<rscale>  0 0.45886718E+03</rscale>
<asrwt>0</asrwt>
<pdfrwt beam="1">  1        2 0.31798265E+00 0.45886718E+03</pdfrwt>
<pdfrwt beam="2">  1       -2 0.37180537E-01 0.45886718E+03</pdfrwt>
<totfact> 0.45197379E+01</totfact>
</mgrwt>
</event>
<event>
12    1  0.1338445E-007  0.1837623E+04  0.7818608E-02  0.8686544E-01
          2   -1    0    0  501    0  0.00000000000E+00  0.00000000000E+00  0.39042664654E+04  0.39042664654E+04  0.00000000000E+00 0. -1.
         -2   -1    0    0    0  501 -0.00000000000E+00 -0.00000000000E+00 -0.11803386570E+04  0.11803386570E+04  0.00000000000E+00 0.  1.
         23    2    1    2    0    0  0.17426238738E+04  0.47298493039E+03  0.57602015523E+02  0.18089691191E+04  0.92728484912E+02 0.  0.
    5000000    2    1    2    0    0 -0.17426238738E+04 -0.47298493039E+03  0.26663257928E+04  0.32756360032E+04  0.60003773413E+03 0.  0.
         23    2    4    4    0    0 -0.70848817271E+03 -0.43172453582E+03  0.14772596061E+04  0.16966663654E+04  0.89661843034E+02 0.  0.
         23    2    4    4    0    0 -0.10341357011E+04 -0.41260394569E+02  0.11890661867E+04  0.15789696378E+04  0.90153492933E+02 0.  0.
          2    1    3    3  502    0  0.15154665041E+04  0.43978419882E+03  0.64332010470E+02  0.15792996783E+04  0.00000000000E+00 0. -1.
         -2    1    3    3    0  502  0.22715736973E+03  0.33200731569E+02 -0.67299949471E+01  0.22966944079E+03  0.00000000000E+00 0.  1.
         13    1    5    5    0    0 -0.13913921958E+03 -0.52883463572E+02  0.30850243395E+03  0.34253486669E+03  0.00000000000E+00 0.  1.
        -13    1    5    5    0    0 -0.56934895313E+03 -0.37884107225E+03  0.11687571721E+04  0.13541314987E+04  0.00000000000E+00 0. -1.
          1    1    6    6  503    0 -0.56133623152E+03 -0.20392763065E+02  0.71315385687E+03  0.90780099867E+03  0.00000000000E+00 0.  1.
         -1    1    6    6    0  503 -0.47279946956E+03 -0.20867631504E+02  0.47591232985E+03  0.67116863914E+03  0.00000000000E+00 0. -1.
<mgrwt>
<rscale>  0 0.18376233E+04</rscale>
<asrwt>0</asrwt>
<pdfrwt beam="1">  1        2 0.60065637E+00 0.18376233E+04</pdfrwt>
<pdfrwt beam="2">  1       -2 0.18159056E+00 0.18376233E+04</pdfrwt>
<totfact> 0.65975604E-02</totfact>
</mgrwt>
</event>
<event>
12    1  0.1338445E-007  0.6663663E+03  0.7818608E-02  0.9776544E-01
         -1   -1    0    0    0  501 -0.00000000000E+00  0.00000000000E+00  0.57575279672E+03  0.57575279672E+03  0.00000000000E+00 0.  1.
          1   -1    0    0  501    0  0.00000000000E+00 -0.00000000000E+00 -0.96484029056E+03  0.96484029056E+03  0.00000000000E+00 0. -1.
         23    2    1    2    0    0  0.38379432363E+03  0.38613684501E+03  0.14468221677E+03  0.57047238888E+03  0.90033642060E+02 0.  0.
    5000000    2    1    2    0    0 -0.38379432363E+03 -0.38613684501E+03 -0.53376971061E+03  0.97012069839E+03  0.59985358176E+03 0.  0.
         23    2    4    4    0    0 -0.47371289664E+03 -0.12202447795E+03 -0.43182209064E+03  0.65932845788E+03  0.94603465825E+02 0.  0.
         23    2    4    4    0    0  0.89918573018E+02 -0.26411236706E+03 -0.10194761997E+03  0.31079224051E+03  0.91421044252E+02 0.  0.
          3    1    3    3  502    0  0.16049767216E+03  0.21694149485E+03  0.47947847994E+02  0.27408413140E+03  0.00000000000E+00 0. -1.
         -3    1    3    3    0  502  0.22329665146E+03  0.16919535017E+03  0.96734368779E+02  0.29638825748E+03  0.00000000000E+00 0.  1.
         13    1    5    5    0    0 -0.10525407029E+03 -0.28528031275E+02 -0.48084519659E+02  0.11918216692E+03  0.00000000000E+00 0.  1.
        -13    1    5    5    0    0 -0.36845882635E+03 -0.93496446676E+02 -0.38373757098E+03  0.54014629096E+03  0.00000000000E+00 0. -1.
          2    1    6    6  503    0  0.55123097358E+02 -0.43581155703E+02 -0.21596227494E+02  0.73513740462E+02  0.00000000000E+00 0. -1.
         -2    1    6    6    0  503  0.34795475659E+02 -0.22053121136E+03 -0.80351392480E+02  0.23727850004E+03  0.00000000000E+00 0.  1.
<mgrwt>
<rscale>  0 0.66636634E+03</rscale>
<asrwt>0</asrwt>
<pdfrwt beam="1">  1        1 0.14843697E+00 0.66636634E+03</pdfrwt>
<pdfrwt beam="2">  1       -1 0.88577354E-01 0.66636634E+03</pdfrwt>
<totfact> 0.20978175E+01</totfact>
</mgrwt>
</event>
<event>
12    1  0.1338445E-007  0.4579138E+03  0.7818608E-02  0.1025388E+00
          2   -1    0    0  501    0  0.00000000000E+00  0.00000000000E+00  0.91025154796E+03  0.91025154796E+03  0.00000000000E+00 0. -1.
         -2   -1    0    0    0  501 -0.00000000000E+00 -0.00000000000E+00 -0.36967851752E+03  0.36967851752E+03  0.00000000000E+00 0.  1.
         23    2    1    2    0    0 -0.18332036026E+03  0.35860964129E+03  0.73330774048E+02  0.41939245985E+03  0.91133987307E+02 0.  0.
    5000000    2    1    2    0    0  0.18332036026E+03 -0.35860964129E+03  0.46724225639E+03  0.86053760563E+03  0.60000201269E+03 0.  0.
         23    2    4    4    0    0 -0.45981951101E+02 -0.16989001215E+03  0.50966391626E+03  0.54686208327E+03  0.91235270195E+02 0.  0.
         23    2    4    4    0    0  0.22930231136E+03 -0.18871962915E+03 -0.42421659867E+02  0.31367552236E+03  0.91641080750E+02 0.  0.
          3    1    3    3  502    0 -0.11556576253E+03  0.13353816797E+03  0.15145695635E+02  0.17724920273E+03  0.00000000000E+00 0. -1.
         -3    1    3    3    0  502 -0.67754597738E+02  0.22507147332E+03  0.58185078413E+02  0.24214325712E+03  0.00000000000E+00 0.  1.
         13    1    5    5    0    0 -0.69750262635E+02 -0.11908387768E+03  0.40858534642E+03  0.43126332370E+03  0.00000000000E+00 0. -1.
        -13    1    5    5    0    0  0.23768311535E+02 -0.50806134473E+02  0.10107856983E+03  0.11559875956E+03  0.00000000000E+00 0.  1.
          4    1    6    6  503    0  0.18426812351E+03 -0.97789355642E+02 -0.18531467516E+02  0.20942997567E+03  0.00000000000E+00 0. -1.
         -4    1    6    6    0  503  0.45034187851E+02 -0.90930273504E+02 -0.23890192350E+02  0.10424554669E+03  0.00000000000E+00 0.  1.
<mgrwt>
<rscale>  0 0.45791382E+03</rscale>
<asrwt>0</asrwt>
<pdfrwt beam="1">  1        2 0.14003870E+00 0.45791382E+03</pdfrwt>
<pdfrwt beam="2">  1       -2 0.56873619E-01 0.45791382E+03</pdfrwt>
<totfact> 0.87096516E+01</totfact>
</mgrwt>
</event>
<event>
12    1  0.1338445E-007  0.1187926E+04  0.7818608E-02  0.9123491E-01
         -1   -1    0    0    0  501 -0.00000000000E+00  0.00000000000E+00  0.76841777109E+03  0.76841777109E+03  0.00000000000E+00 0.  1.
          1   -1    0    0  501    0  0.00000000000E+00 -0.00000000000E+00 -0.18890601022E+04  0.18890601022E+04  0.00000000000E+00 0. -1.
         23    2    1    2    0    0 -0.11105329482E+04 -0.19916647924E+03 -0.51788636306E+03  0.12446130126E+04  0.88907540417E+02 0.  0.
    5000000    2    1    2    0    0  0.11105329482E+04  0.19916647924E+03 -0.60275596801E+03  0.14128648606E+04  0.59993469814E+03 0.  0.
         23    2    4    4    0    0  0.38145932119E+03 -0.16771515921E+03 -0.66268686814E+02  0.43184042702E+03  0.91951221844E+02 0.  0.
         23    2    4    4    0    0  0.72907362697E+03  0.36688163845E+03 -0.53648728120E+03  0.98102443361E+03  0.91868636042E+02 0.  0.
          4    1    3    3  502    0 -0.54193933239E+03 -0.91847140028E+02 -0.30086316545E+03  0.62662012531E+03  0.00000000000E+00 0. -1.
         -4    1    3    3    0  502 -0.56859361577E+03 -0.10731933921E+03 -0.21702319760E+03  0.61799288730E+03  0.00000000000E+00 0.  1.
         13    1    5    5    0    0  0.94776427112E+02 -0.86583412082E+02 -0.11276732162E+02  0.12886591121E+03  0.00000000000E+00 0. -1.
        -13    1    5    5    0    0  0.28668289408E+03 -0.81131747132E+02 -0.54991954653E+02  0.30297451581E+03  0.00000000000E+00 0.  1.
          3    1    6    6  503    0  0.52567648115E+03  0.30898931932E+03 -0.40488340452E+03  0.73194312180E+03  0.00000000000E+00 0. -1.
         -3    1    6    6    0  503  0.20339714581E+03  0.57892319135E+02 -0.13160387668E+03  0.24908131182E+03  0.00000000000E+00 0.  1.
<mgrwt>
<rscale>  0 0.11879259E+04</rscale>
<asrwt>0</asrwt>
<pdfrwt beam="1">  1        1 0.29062463E+00 0.11879259E+04</pdfrwt>
<pdfrwt beam="2">  1       -1 0.11821812E+00 0.11879259E+04</pdfrwt>
<totfact> 0.22430049E+00</totfact>
</mgrwt>
</event>
<event>
12    1  0.1338445E-007  0.4753556E+03  0.7818608E-02  0.1020419E+00
          2   -1    0    0  501    0  0.00000000000E+00  0.00000000000E+00  0.66203866768E+03  0.66203866768E+03  0.00000000000E+00 0.  1.
         -2   -1    0    0    0  501 -0.00000000000E+00 -0.00000000000E+00 -0.51315125242E+03  0.51315125242E+03  0.00000000000E+00 0. -1.
         23    2    1    2    0    0 -0.29345292737E+03  0.30178316988E+03  0.64405116792E+02  0.43606647911E+03  0.93905553246E+02 0.  0.
    5000000    2    1    2    0    0  0.29345292737E+03 -0.30178316988E+03  0.84482298469E+02  0.73912344099E+03  0.60164649093E+03 0.  0.
         23    2    4    4    0    0 -0.51792469409E+01  0.99317775603E+01  0.25239124501E+03  0.26888188497E+03  0.92036203215E+02 0.  0.
         23    2    4    4    0    0  0.29863217431E+03 -0.31171494744E+03 -0.16790894654E+03  0.47024155602E+03  0.81156162314E+02 0.  0.
          1    1    3    3  502    0 -0.10351364330E+03  0.16347178996E+03  0.42915164352E+01  0.19353686360E+03  0.00000000000E+00 0. -1.
         -1    1    3    3    0  502 -0.18993928407E+03  0.13831137993E+03  0.60113600356E+02  0.24252961551E+03  0.00000000000E+00 0.  1.
         13    1    5    5    0    0  0.24048372730E+02 -0.31587532064E+02  0.82321359415E+02  0.91394215511E+02  0.00000000000E+00 0. -1.
        -13    1    5    5    0    0 -0.29227619671E+02  0.41519309625E+02  0.17006988560E+03  0.17748766946E+03  0.00000000000E+00 0.  1.
          4    1    6    6  503    0  0.20160125745E+03 -0.20391724492E+03 -0.69747652395E+02  0.29511022482E+03  0.00000000000E+00 0. -1.
         -4    1    6    6    0  503  0.97030916864E+02 -0.10779770253E+03 -0.98161294149E+02  0.17513133120E+03  0.00000000000E+00 0.  1.
<mgrwt>
<rscale>  0 0.47535564E+03</rscale>
<asrwt>0</asrwt>
<pdfrwt beam="1">  1        2 0.10185210E+00 0.47535564E+03</pdfrwt>
<pdfrwt beam="2">  1       -2 0.78946346E-01 0.47535564E+03</pdfrwt>
<totfact> 0.64864817E+01</totfact>
</mgrwt>
</event>
<event>
12    1  0.1338445E-007  0.2428366E+04  0.7818608E-02  0.8428959E-01
         -1   -1    0    0    0  501 -0.00000000000E+00  0.00000000000E+00  0.13039686836E+04  0.13039686836E+04  0.00000000000E+00 0.  1.
          1   -1    0    0  501    0  0.00000000000E+00 -0.00000000000E+00 -0.50292496360E+04  0.50292496360E+04  0.00000000000E+00 0. -1.
         23    2    1    2    0    0  0.14352231827E+04 -0.19506295263E+04 -0.95429393417E+03  0.26045072946E+04  0.89219964317E+02 0.  0.
    5000000    2    1    2    0    0 -0.14352231827E+04  0.19506295263E+04 -0.27709870183E+04  0.37287110250E+04  0.60007976123E+03 0.  0.
         23    2    4    4    0    0 -0.11025285893E+03  0.24126312331E+03 -0.11563835100E+03  0.30283220245E+03  0.89283408565E+02 0.  0.
         23    2    4    4    0    0 -0.13249703237E+04  0.17093664030E+04 -0.26553486673E+04  0.34258788226E+04  0.91045613908E+02 0.  0.
          3    1    3    3  502    0  0.11029190277E+04 -0.15598422592E+04 -0.75785857121E+03  0.20552099331E+04  0.00000000000E+00 0. -1.
         -3    1    3    3    0  502  0.33230415495E+03 -0.39078726710E+03 -0.19643536296E+03  0.54929736149E+03  0.00000000000E+00 0.  1.
         11    1    5    5    0    0 -0.51427087563E+02  0.16923348662E+03 -0.11281602225E+03  0.20979078436E+03  0.00000000000E+00 0. -1.
        -11    1    5    5    0    0 -0.58825771366E+02  0.72029636695E+02 -0.28223287481E+01  0.93041418082E+02  0.00000000000E+00 0.  1.
          2    1    6    6  503    0 -0.12230043543E+03  0.13192964205E+03 -0.25289026579E+03  0.31034869661E+03  0.00000000000E+00 0.  1.
         -2    1    6    6    0  503 -0.12026698883E+04  0.15774367609E+04 -0.24024584015E+04  0.31155301260E+04  0.00000000000E+00 0. -1.
<mgrwt>
<rscale>  0 0.24283662E+04</rscale>
<asrwt>0</asrwt>
<pdfrwt beam="1">  1        1 0.77373071E+00 0.24283662E+04</pdfrwt>
<pdfrwt beam="2">  1       -1 0.20061057E+00 0.24283662E+04</pdfrwt>
<totfact> 0.10131347E-03</totfact>
</mgrwt>
</event>
<event>
12    1  0.1338445E-007  0.6209193E+03  0.7818608E-02  0.9862931E-01
          1   -1    0    0  501    0  0.00000000000E+00  0.00000000000E+00  0.18508437058E+04  0.18508437058E+04  0.00000000000E+00 0. -1.
         -1   -1    0    0    0  501 -0.00000000000E+00 -0.00000000000E+00 -0.23040086911E+03  0.23040086911E+03  0.00000000000E+00 0.  1.
         23    2    1    2    0    0 -0.29710481252E+03  0.37942576286E+03  0.91021925933E+03  0.10339804761E+04  0.91549690552E+02 0.  0.
    5000000    2    1    2    0    0  0.29710481252E+03 -0.37942576286E+03  0.71022357740E+03  0.10472640988E+04  0.60009114609E+03 0.  0.
         23    2    4    4    0    0  0.14916158806E+03 -0.51745018701E+03  0.52873543541E+03  0.76015095694E+03  0.90908972540E+02 0.  0.
         23    2    4    4    0    0  0.14794322446E+03  0.13802442415E+03  0.18148814199E+03  0.28711314187E+03  0.92509843937E+02 0.  0.
          3    1    3    3  502    0 -0.15764882484E+03  0.27136557497E+03  0.59896517757E+03  0.67620389765E+03  0.00000000000E+00 0. -1.
         -3    1    3    3    0  502 -0.13945598767E+03  0.10806018789E+03  0.31125408176E+03  0.35777657850E+03  0.00000000000E+00 0.  1.
         13    1    5    5    0    0  0.11762429650E+03 -0.25006808448E+03  0.25070177622E+03  0.37312317350E+03  0.00000000000E+00 0. -1.
        -13    1    5    5    0    0  0.31537291563E+02 -0.26738210252E+03  0.27803365919E+03  0.38702778344E+03  0.00000000000E+00 0.  1.
          2    1    6    6  503    0  0.62805954767E+02  0.85034080416E+02  0.38586220967E+02  0.11253567983E+03  0.00000000000E+00 0. -1.
         -2    1    6    6    0  503  0.85137269692E+02  0.52990343733E+02  0.14290192102E+03  0.17457746204E+03  0.00000000000E+00 0.  1.
<mgrwt>
<rscale>  0 0.62091931E+03</rscale>
<asrwt>0</asrwt>
<pdfrwt beam="1">  1        1 0.28474518E+00 0.62091931E+03</pdfrwt>
<pdfrwt beam="2">  1       -1 0.35446289E-01 0.62091931E+03</pdfrwt>
<totfact> 0.30105514E+01</totfact>
</mgrwt>
</event>
<event>
12    1  0.1338445E-007  0.5347987E+03  0.7818608E-02  0.1005075E+00
          2   -1    0    0  501    0  0.00000000000E+00  0.00000000000E+00  0.10515606904E+04  0.10515606904E+04  0.00000000000E+00 0. -1.
         -2   -1    0    0    0  501 -0.00000000000E+00 -0.00000000000E+00 -0.30524328136E+03  0.30524328136E+03  0.00000000000E+00 0.  1.
         23    2    1    2    0    0  0.17885257770E+03  0.34422337019E+03  0.14855558346E+03  0.42535489116E+03  0.91542607163E+02 0.  0.
    5000000    2    1    2    0    0 -0.17885257770E+03 -0.34422337019E+03  0.59776182555E+03  0.93144908058E+03  0.59983349064E+03 0.  0.
         23    2    4    4    0    0  0.71829510487E+02  0.11801436298E+03  0.22574868756E+03  0.28137291977E+03  0.95505924420E+02 0.  0.
         23    2    4    4    0    0 -0.25068208818E+03 -0.46223773316E+03  0.37201313799E+03  0.65007616081E+03  0.87749693552E+02 0.  0.
          1    1    3    3  502    0  0.12426048669E+03  0.14144100232E+03  0.62048993668E+02  0.19823295212E+03  0.00000000000E+00 0. -1.
         -1    1    3    3    0  502  0.54592091007E+02  0.20278236787E+03  0.86506589795E+02  0.22712193905E+03  0.00000000000E+00 0.  1.
         11    1    5    5    0    0  0.31039936242E+02  0.64261034876E+02  0.19417458711E+03  0.20687370187E+03  0.00000000000E+00 0.  1.
        -11    1    5    5    0    0  0.40789574245E+02  0.53753328099E+02  0.31574100452E+02  0.74499217903E+02  0.00000000000E+00 0. -1.
          3    1    6    6  503    0 -0.92332946941E+02 -0.25815687128E+03  0.17576835871E+03  0.32567600342E+03  0.00000000000E+00 0. -1.
         -3    1    6    6    0  503 -0.15834914124E+03 -0.20408086188E+03  0.19624477929E+03  0.32440015739E+03  0.00000000000E+00 0.  1.
<mgrwt>
<rscale>  0 0.53479870E+03</rscale>
<asrwt>0</asrwt>
<pdfrwt beam="1">  1        2 0.16177857E+00 0.53479870E+03</pdfrwt>
<pdfrwt beam="2">  1       -2 0.46960505E-01 0.53479870E+03</pdfrwt>
<totfact> 0.10372227E+02</totfact>
</mgrwt>
</event>
<event>
12    1  0.1338445E-007  0.9799556E+03  0.7818608E-02  0.9330806E-01
         -2   -1    0    0    0  501 -0.00000000000E+00  0.00000000000E+00  0.54906694305E+03  0.54906694305E+03  0.00000000000E+00 0. -1.
          2   -1    0    0  501    0  0.00000000000E+00 -0.00000000000E+00 -0.18051623784E+04  0.18051623784E+04  0.00000000000E+00 0.  1.
         23    2    1    2    0    0 -0.88782775383E+03  0.10753020715E+03 -0.42752400300E+03  0.99544294513E+03  0.91263453410E+02 0.  0.
    5000000    2    1    2    0    0  0.88782775383E+03 -0.10753020715E+03 -0.82857143239E+03  0.13587863764E+04  0.59997410954E+03 0.  0.
         23    2    4    4    0    0  0.57932793212E+03  0.21034828923E+03 -0.45333704257E+03  0.77063610140E+03  0.92186066731E+02 0.  0.
         23    2    4    4    0    0  0.30849982172E+03 -0.31787849638E+03 -0.37523438982E+03  0.58815027498E+03  0.94345218169E+02 0.  0.
          4    1    3    3  502    0 -0.64473387154E+03  0.41665159746E+02 -0.28606307129E+03  0.70657613277E+03  0.00000000000E+00 0. -1.
         -4    1    3    3    0  502 -0.24309388230E+03  0.65865047403E+02 -0.14146093171E+03  0.28886681236E+03  0.00000000000E+00 0.  1.
         11    1    5    5    0    0  0.78711913312E+02  0.50064845371E+02 -0.10285614656E+03  0.13885762826E+03  0.00000000000E+00 0.  1.
        -11    1    5    5    0    0  0.50061601880E+03  0.16028344386E+03 -0.35048089601E+03  0.63177847314E+03  0.00000000000E+00 0. -1.
          3    1    6    6  503    0  0.46669164557E+02 -0.44006429332E+02 -0.16182773462E+02  0.66154810104E+02  0.00000000000E+00 0. -1.
         -3    1    6    6    0  503  0.26183065716E+03 -0.27387206705E+03 -0.35905161636E+03  0.52199546487E+03  0.00000000000E+00 0.  1.
<mgrwt>
<rscale>  0 0.97995565E+03</rscale>
<asrwt>0</asrwt>
<pdfrwt beam="1">  1        2 0.27771729E+00 0.97995565E+03</pdfrwt>
<pdfrwt beam="2">  1       -2 0.84471838E-01 0.97995565E+03</pdfrwt>
<totfact> 0.10493059E+01</totfact>
</mgrwt>
</event>
<event>
12    1  0.1338445E-007  0.3254589E+03  0.7818608E-02  0.1073164E+00
          2   -1    0    0  501    0  0.00000000000E+00  0.00000000000E+00  0.56709909691E+03  0.56709909691E+03  0.00000000000E+00 0. -1.
         -2   -1    0    0    0  501 -0.00000000000E+00 -0.00000000000E+00 -0.22278104116E+03  0.22278104116E+03  0.00000000000E+00 0.  1.
         23    2    1    2    0    0 -0.37762392866E+02  0.22429013342E+02 -0.79749977761E+01  0.92718378279E+02  0.81265233198E+02 0.  0.
    5000000    2    1    2    0    0  0.37762392866E+02 -0.22429013342E+02  0.35229305353E+03  0.69716175979E+03  0.59999588732E+03 0.  0.
         23    2    4    4    0    0  0.26831290068E+03 -0.12593627362E+03  0.28226477816E+03  0.41943171881E+03  0.91639533349E+02 0.  0.
         23    2    4    4    0    0 -0.23055050781E+03  0.10350726027E+03  0.70028275368E+02  0.27773004098E+03  0.91447945456E+02 0.  0.
          3    1    3    3  502    0 -0.26268977712E+02 -0.25599596320E+02 -0.20157049948E+02  0.41853377216E+02  0.00000000000E+00 0. -1.
         -3    1    3    3    0  502 -0.11493415154E+02  0.48028609663E+02  0.12182052172E+02  0.50865001063E+02  0.00000000000E+00 0.  1.
         13    1    5    5    0    0  0.25616858517E+03 -0.99105344754E+02  0.27587367996E+03  0.38929487626E+03  0.00000000000E+00 0. -1.
        -13    1    5    5    0    0  0.12144315511E+02 -0.26830928864E+02  0.63910981997E+01  0.30136842554E+02  0.00000000000E+00 0.  1.
          2    1    6    6  503    0 -0.13488998666E+03  0.94393401282E+02  0.76245597785E+02  0.18143542622E+03  0.00000000000E+00 0. -1.
         -2    1    6    6    0  503 -0.95660521154E+02  0.91138589934E+01 -0.62173224172E+01  0.96294614757E+02  0.00000000000E+00 0.  1.
<mgrwt>
<rscale>  0 0.32545888E+03</rscale>
<asrwt>0</asrwt>
<pdfrwt beam="1">  1        2 0.87246014E-01 0.32545888E+03</pdfrwt>
<pdfrwt beam="2">  1       -2 0.34274007E-01 0.32545888E+03</pdfrwt>
<totfact> 0.43209802E+02</totfact>
</mgrwt>
</event>
<event>
12    1  0.1338445E-007  0.8390631E+03  0.7818608E-02  0.9505135E-01
          2   -1    0    0  501    0  0.00000000000E+00  0.00000000000E+00  0.14964591072E+04  0.14964591072E+04  0.00000000000E+00 0. -1.
         -2   -1    0    0    0  501 -0.00000000000E+00 -0.00000000000E+00 -0.58666935266E+03  0.58666935266E+03  0.00000000000E+00 0.  1.
         23    2    1    2    0    0  0.81702903764E+03 -0.17554927971E+03  0.48361241258E+03  0.96970200877E+03  0.89927872535E+02 0.  0.
    5000000    2    1    2    0    0 -0.81702903764E+03  0.17554927971E+03  0.42617734191E+03  0.11134264510E+04  0.59978107436E+03 0.  0.
         23    2    4    4    0    0 -0.50058048136E+03  0.75190636967E+02 -0.59351112228E+02  0.51768675608E+03  0.90788615448E+02 0.  0.
         23    2    4    4    0    0 -0.31644855628E+03  0.10035864275E+03  0.48552845414E+03  0.59573969496E+03  0.94638038994E+02 0.  0.
          3    1    3    3  502    0  0.28680783743E+03 -0.29258061160E+02  0.19980104833E+03  0.35076377901E+03  0.00000000000E+00 0. -1.
         -3    1    3    3    0  502  0.53022120021E+03 -0.14629121856E+03  0.28381136425E+03  0.61893822976E+03  0.00000000000E+00 0.  1.
         13    1    5    5    0    0 -0.14085977462E+03  0.29041062037E+01 -0.53566843999E+02  0.15072928287E+03  0.00000000000E+00 0. -1.
        -13    1    5    5    0    0 -0.35972070673E+03  0.72286530764E+02 -0.57842682295E+01  0.36695747321E+03  0.00000000000E+00 0.  1.
          4    1    6    6  503    0 -0.23451692954E+03  0.75801945302E+02  0.42381131832E+03  0.49026539618E+03  0.00000000000E+00 0. -1.
         -4    1    6    6    0  503 -0.81931626740E+02  0.24556697446E+02  0.61717135818E+02  0.10547429878E+03  0.00000000000E+00 0.  1.
<mgrwt>
<rscale>  0 0.83906307E+03</rscale>
<asrwt>0</asrwt>
<pdfrwt beam="1">  1        2 0.23022448E+00 0.83906307E+03</pdfrwt>
<pdfrwt beam="2">  1       -2 0.90256824E-01 0.83906307E+03</pdfrwt>
<totfact> 0.13565688E+01</totfact>
</mgrwt>
</event>
<event>
12    1  0.1338445E-007  0.6362913E+03  0.7818608E-02  0.9832848E-01
          2   -1    0    0  501    0  0.00000000000E+00  0.00000000000E+00  0.23646035613E+04  0.23646035613E+04  0.00000000000E+00 0.  1.
         -2   -1    0    0    0  501 -0.00000000000E+00 -0.00000000000E+00 -0.21827387843E+03  0.21827387843E+03  0.00000000000E+00 0. -1.
         23    2    1    2    0    0 -0.40646374619E+03  0.29577949035E+03  0.14391265345E+04  0.15279196123E+04  0.10370571572E+03 0.  0.
    5000000    2    1    2    0    0  0.40646374619E+03 -0.29577949035E+03  0.70720314837E+03  0.10549578274E+04  0.60008452799E+03 0.  0.
         23    2    4    4    0    0 -0.96882399068E+02  0.72235656716E+02  0.10525299167E+03  0.18413387039E+03  0.90680210726E+02 0.  0.
         23    2    4    4    0    0  0.50334614526E+03 -0.36801514707E+03  0.60195015670E+03  0.87082395706E+03  0.84840335979E+02 0.  0.
          3    1    3    3  502    0 -0.31531341357E+03  0.27138651767E+03  0.12311339501E+04  0.12995245261E+04  0.00000000000E+00 0. -1.
         -3    1    3    3    0  502 -0.91150332620E+02  0.24392972679E+02  0.20799258444E+03  0.22839508628E+03  0.00000000000E+00 0.  1.
         11    1    5    5    0    0 -0.14541574135E+02  0.49479089856E+02  0.41009907832E+01  0.51734474355E+02  0.00000000000E+00 0.  1.
        -11    1    5    5    0    0 -0.82340824932E+02  0.22756566860E+02  0.10115200089E+03  0.13239939603E+03  0.00000000000E+00 0. -1.
          1    1    6    6  503    0  0.16296927175E+02 -0.23610222358E+02  0.52465242494E+02  0.59796606134E+02  0.00000000000E+00 0. -1.
         -1    1    6    6    0  503  0.48704921808E+03 -0.34440492471E+03  0.54948491421E+03  0.81102735092E+03  0.00000000000E+00 0.  1.
<mgrwt>
<rscale>  0 0.63629130E+03</rscale>
<asrwt>0</asrwt>
<pdfrwt beam="1">  1        2 0.36378515E+00 0.63629130E+03</pdfrwt>
<pdfrwt beam="2">  1       -2 0.33580598E-01 0.63629130E+03</pdfrwt>
<totfact> 0.36500647E+01</totfact>
</mgrwt>
</event>
<event>
12    1  0.1338445E-007  0.4890865E+03  0.7818608E-02  0.1016667E+00
          2   -1    0    0  501    0  0.00000000000E+00  0.00000000000E+00  0.62937075239E+03  0.62937075239E+03  0.00000000000E+00 0. -1.
         -2   -1    0    0    0  501 -0.00000000000E+00 -0.00000000000E+00 -0.10783969827E+04  0.10783969827E+04  0.00000000000E+00 0.  1.
         23    2    1    2    0    0 -0.15924271238E+03  0.29398302321E+03 -0.84616020377E+03  0.91440762339E+03  0.91487441126E+02 0.  0.
    5000000    2    1    2    0    0  0.15924271238E+03 -0.29398302321E+03  0.39713397347E+03  0.79336011170E+03  0.59993384183E+03 0.  0.
         23    2    4    4    0    0  0.35404243572E+03 -0.18204612531E+03  0.36658106790E+03  0.54895120101E+03  0.92080962820E+02 0.  0.
         23    2    4    4    0    0 -0.19479972334E+03 -0.11193689789E+03  0.30552905570E+02  0.24440891069E+03  0.91243817670E+02 0.  0.
          2    1    3    3  502    0 -0.51216960381E+02  0.18356497667E+03 -0.51036826112E+03  0.54478898635E+03  0.00000000000E+00 0. -1.
         -2    1    3    3    0  502 -0.10802575199E+03  0.11041804653E+03 -0.33579194265E+03  0.36961863703E+03  0.00000000000E+00 0.  1.
         11    1    5    5    0    0  0.52667442092E+02  0.57371299539E+01  0.57493125812E+02  0.78180775336E+02  0.00000000000E+00 0.  1.
        -11    1    5    5    0    0  0.30137499362E+03 -0.18778325527E+03  0.30908794209E+03  0.47077042567E+03  0.00000000000E+00 0. -1.
          4    1    6    6  503    0 -0.33222198706E+02 -0.13548726357E+02  0.41570344042E+02  0.54912439178E+02  0.00000000000E+00 0.  1.
         -4    1    6    6    0  503 -0.16157752464E+03 -0.98388171535E+02 -0.11017438471E+02  0.18949647151E+03  0.00000000000E+00 0. -1.
<mgrwt>
<rscale>  0 0.48908645E+03</rscale>
<asrwt>0</asrwt>
<pdfrwt beam="1">  1        2 0.96826271E-01 0.48908645E+03</pdfrwt>
<pdfrwt beam="2">  1       -2 0.16590723E+00 0.48908645E+03</pdfrwt>
<totfact> 0.11216856E+01</totfact>
</mgrwt>
</event>
<event>
12    1  0.1338445E-007  0.1012161E+04  0.7818608E-02  0.9295307E-01
          1   -1    0    0  501    0  0.00000000000E+00  0.00000000000E+00  0.13625986749E+04  0.13625986749E+04  0.00000000000E+00 0. -1.
         -1   -1    0    0    0  501 -0.00000000000E+00 -0.00000000000E+00 -0.85685270412E+03  0.85685270412E+03  0.00000000000E+00 0.  1.
         23    2    1    2    0    0 -0.93306824758E+03  0.51452902015E+02 -0.11711470629E+03  0.94617453104E+03  0.90921026111E+02 0.  0.
    5000000    2    1    2    0    0  0.93306824758E+03 -0.51452902015E+02  0.62286067709E+03  0.12732768480E+04  0.60001229391E+03 0.  0.
         23    2    4    4    0    0  0.62401851287E+03  0.22889331761E+03  0.28686271999E+03  0.72971622946E+03  0.91674970208E+02 0.  0.
         23    2    4    4    0    0  0.30904973471E+03 -0.28034621963E+03  0.33599795710E+03  0.54356061855E+03  0.91966175719E+02 0.  0.
          4    1    3    3  502    0 -0.35294566513E+03  0.62603017905E+02 -0.54544536844E+02  0.36258086944E+03  0.00000000000E+00 0.  1.
         -4    1    3    3    0  502 -0.58012258245E+03 -0.11150115890E+02 -0.62570169447E+02  0.58359366160E+03  0.00000000000E+00 0. -1.
         13    1    5    5    0    0  0.56992778724E+03  0.19097517743E+03  0.28065562105E+03  0.66336775524E+03  0.00000000000E+00 0.  1.
        -13    1    5    5    0    0  0.54090725628E+02  0.37918140183E+02  0.62070989402E+01  0.66348474219E+02  0.00000000000E+00 0. -1.
          1    1    6    6  503    0  0.19190541127E+03 -0.19481223790E+03  0.16520748684E+03  0.31948866744E+03  0.00000000000E+00 0. -1.
         -1    1    6    6    0  503  0.11714432344E+03 -0.85533981724E+02  0.17079047026E+03  0.22407195111E+03  0.00000000000E+00 0.  1.
<mgrwt>
<rscale>  0 0.10121607E+04</rscale>
<asrwt>0</asrwt>
<pdfrwt beam="1">  1        1 0.20963057E+00 0.10121607E+04</pdfrwt>
<pdfrwt beam="2">  1       -1 0.13182349E+00 0.10121607E+04</pdfrwt>
<totfact> 0.40078072E+00</totfact>
</mgrwt>
</event>
<event>
12    1  0.1338445E-007  0.7381786E+03  0.7818608E-02  0.9654081E-01
          1   -1    0    0  501    0  0.00000000000E+00  0.00000000000E+00  0.46078191088E+04  0.46078191088E+04  0.00000000000E+00 0. -1.
         -1   -1    0    0    0  501 -0.00000000000E+00 -0.00000000000E+00 -0.14762756821E+03  0.14762756821E+03  0.00000000000E+00 0.  1.
         23    2    1    2    0    0 -0.43339224912E+03 -0.55689100938E+03  0.22195837915E+04  0.23308997714E+04  0.92655809237E+02 0.  0.
    5000000    2    1    2    0    0  0.43339224912E+03  0.55689100938E+03  0.22406077490E+04  0.24245469055E+04  0.60012346576E+03 0.  0.
         23    2    4    4    0    0  0.94175675491E+02  0.33933072451E+03  0.17281922696E+04  0.17661417943E+04  0.92703390178E+02 0.  0.
         23    2    4    4    0    0  0.33921657363E+03  0.21756028486E+03  0.51241547943E+03  0.65840511119E+03  0.92343410730E+02 0.  0.
          2    1    3    3  502    0 -0.31232010129E+03 -0.33626785317E+03  0.13698697504E+04  0.14447017159E+04  0.00000000000E+00 0. -1.
         -2    1    3    3    0  502 -0.12107214783E+03 -0.22062315620E+03  0.84971404110E+03  0.88619805556E+03  0.00000000000E+00 0.  1.
         11    1    5    5    0    0  0.75260250562E+02  0.21211391550E+03  0.88367789504E+03  0.91188981826E+03  0.00000000000E+00 0. -1.
        -11    1    5    5    0    0  0.18915424929E+02  0.12721680901E+03  0.84451437455E+03  0.85425197607E+03  0.00000000000E+00 0.  1.
          4    1    6    6  503    0  0.25218467667E+03  0.20321323914E+03  0.37988279620E+03  0.49920303541E+03  0.00000000000E+00 0. -1.
         -4    1    6    6    0  503  0.87031896957E+02  0.14347045720E+02  0.13253268323E+03  0.15920207578E+03  0.00000000000E+00 0.  1.
<mgrwt>
<rscale>  0 0.73817859E+03</rscale>
<asrwt>0</asrwt>
<pdfrwt beam="1">  1        1 0.70889514E+00 0.73817859E+03</pdfrwt>
<pdfrwt beam="2">  1       -1 0.22711937E-01 0.73817859E+03</pdfrwt>
<totfact> 0.46608614E-01</totfact>
</mgrwt>
</event>
<event>
12    1  0.1338445E-007  0.3598789E+03  0.7818608E-02  0.1058632E+00
         -2   -1    0    0    0  501 -0.00000000000E+00  0.00000000000E+00  0.62068634288E+03  0.62068634288E+03  0.00000000000E+00 0.  1.
          2   -1    0    0  501    0  0.00000000000E+00 -0.00000000000E+00 -0.27566130673E+04  0.27566130673E+04  0.00000000000E+00 0. -1.
         23    2    1    2    0    0  0.12142387445E+03  0.27525977210E+03 -0.25628782524E+04  0.25820614069E+04  0.90468076966E+02 0.  0.
    5000000    2    1    2    0    0 -0.12142387445E+03 -0.27525977210E+03  0.42695152802E+03  0.79523800323E+03  0.59967005518E+03 0.  0.
         23    2    4    4    0    0  0.72261423676E+02 -0.16446771981E+03 -0.92003608191E+02  0.22302372289E+03  0.94887158463E+02 0.  0.
         23    2    4    4    0    0 -0.19368529813E+03 -0.11079205229E+03  0.51895513621E+03  0.57221428034E+03  0.91246236450E+02 0.  0.
          1    1    3    3  502    0 -0.25887919137E+01  0.22279481605E+02 -0.43967161544E+03  0.44024334926E+03  0.00000000000E+00 0. -1.
         -1    1    3    3    0  502  0.12401266636E+03  0.25298029049E+03 -0.21232066370E+04  0.21418180577E+04  0.00000000000E+00 0.  1.
         13    1    5    5    0    0  0.73966036424E+02 -0.89296409123E+02 -0.17666526052E+02  0.11728993720E+03  0.00000000000E+00 0. -1.
        -13    1    5    5    0    0 -0.17046127477E+01 -0.75171310687E+02 -0.74337082139E+02  0.10573378569E+03  0.00000000000E+00 0.  1.
          2    1    6    6  503    0 -0.14339870109E+03 -0.69379137234E+02  0.25771860891E+03  0.30297777730E+03  0.00000000000E+00 0. -1.
         -2    1    6    6    0  503 -0.50286597035E+02 -0.41412915055E+02  0.26123652730E+03  0.26923650305E+03  0.00000000000E+00 0.  1.
<mgrwt>
<rscale>  0 0.35987895E+03</rscale>
<asrwt>0</asrwt>
<pdfrwt beam="1">  1        2 0.42409431E+00 0.35987895E+03</pdfrwt>
<pdfrwt beam="2">  1       -2 0.95490207E-01 0.35987895E+03</pdfrwt>
<totfact> 0.26822776E+00</totfact>
</mgrwt>
</event>
<event>
12    1  0.1338445E-007  0.8037147E+03  0.7818608E-02  0.9554656E-01
          2   -1    0    0  501    0  0.00000000000E+00  0.00000000000E+00  0.87897134629E+03  0.87897134629E+03  0.00000000000E+00 0.  1.
         -2   -1    0    0    0  501 -0.00000000000E+00 -0.00000000000E+00 -0.10033990127E+04  0.10033990127E+04  0.00000000000E+00 0. -1.
         23    2    1    2    0    0  0.70056769017E+03 -0.10476872608E+03  0.39713922797E+03  0.81753494817E+03  0.94192625000E+02 0.  0.
    5000000    2    1    2    0    0 -0.70056769017E+03  0.10476872608E+03 -0.52156689442E+03  0.10648354109E+04  0.60005904076E+03 0.  0.
         23    2    4    4    0    0 -0.72506977340E+03  0.20913005052E+03 -0.33880792228E+03  0.83247176540E+03  0.93578190040E+02 0.  0.
         23    2    4    4    0    0  0.24502083226E+02 -0.10436132445E+03 -0.18275897213E+03  0.23236364547E+03  0.95395931347E+02 0.  0.
          1    1    3    3  502    0  0.18628154505E+03 -0.34127879393E+02  0.60455864503E+02  0.19879747918E+03  0.00000000000E+00 0. -1.
         -1    1    3    3    0  502  0.51428614513E+03 -0.70640846686E+02  0.33668336347E+03  0.61873746899E+03  0.00000000000E+00 0.  1.
         11    1    5    5    0    0 -0.49258676198E+03  0.18686029282E+03 -0.23762013273E+03  0.57794620388E+03  0.00000000000E+00 0. -1.
        -11    1    5    5    0    0 -0.23248301142E+03  0.22269757709E+02 -0.10118778956E+03  0.25452556151E+03  0.00000000000E+00 0.  1.
          3    1    6    6  503    0  0.57493880755E+02 -0.58215276624E+02 -0.13659982677E+03  0.15922963741E+03  0.00000000000E+00 0. -1.
         -3    1    6    6    0  503 -0.32991797529E+02 -0.46146047821E+02 -0.46159145363E+02  0.73134008056E+02  0.00000000000E+00 0.  1.
<mgrwt>
<rscale>  0 0.80371467E+03</rscale>
<asrwt>0</asrwt>
<pdfrwt beam="1">  1        2 0.13522636E+00 0.80371467E+03</pdfrwt>
<pdfrwt beam="2">  1       -2 0.15436908E+00 0.80371467E+03</pdfrwt>
<totfact> 0.85041117E+00</totfact>
</mgrwt>
</event>
<event>
12    1  0.1338445E-007  0.9633396E+03  0.7818608E-02  0.9349693E-01
         -2   -1    0    0    0  501 -0.00000000000E+00  0.00000000000E+00  0.88568683980E+03  0.88568683980E+03  0.00000000000E+00 0.  1.
          2   -1    0    0  501    0  0.00000000000E+00 -0.00000000000E+00 -0.12701420707E+04  0.12701420707E+04  0.00000000000E+00 0. -1.
         23    2    1    2    0    0 -0.82086006273E+03 -0.40229733563E+03 -0.51735560381E+03  0.10543828459E+04  0.91716825347E+02 0.  0.
    5000000    2    1    2    0    0  0.82086006273E+03  0.40229733563E+03  0.13290037290E+03  0.11014460646E+04  0.59988876910E+03 0.  0.
         23    2    4    4    0    0  0.38627139217E+03  0.42728202695E+03  0.26036576916E+03  0.63830314452E+03  0.88685126102E+02 0.  0.
         23    2    4    4    0    0  0.43458867057E+03 -0.24984691314E+02 -0.12746539626E+03  0.46314292010E+03  0.93607637554E+02 0.  0.
          2    1    3    3  502    0 -0.58115686938E+03 -0.30162884971E+03 -0.32510663558E+03  0.73103870917E+03  0.00000000000E+00 0. -1.
         -2    1    3    3    0  502 -0.23970319335E+03 -0.10066848592E+03 -0.19224896823E+03  0.32334413671E+03  0.00000000000E+00 0.  1.
         13    1    5    5    0    0  0.35733293343E+03  0.40472324240E+03  0.21797465004E+03  0.58223764591E+03  0.00000000000E+00 0.  1.
        -13    1    5    5    0    0  0.28938458736E+02  0.22558784552E+02  0.42391119118E+02  0.56065498611E+02  0.00000000000E+00 0. -1.
          3    1    6    6  503    0  0.21131183548E+03 -0.95626022777E+01 -0.13422796389E+02  0.21195354831E+03  0.00000000000E+00 0. -1.
         -3    1    6    6    0  503  0.22327683509E+03 -0.15422089036E+02 -0.11404259987E+03  0.25118937179E+03  0.00000000000E+00 0.  1.
<mgrwt>
<rscale>  0 0.96333958E+03</rscale>
<asrwt>0</asrwt>
<pdfrwt beam="1">  1        2 0.19540647E+00 0.96333958E+03</pdfrwt>
<pdfrwt beam="2">  1       -2 0.13625951E+00 0.96333958E+03</pdfrwt>
<totfact> 0.66024138E+00</totfact>
</mgrwt>
</event>
<event>
12    1  0.1338445E-007  0.4527918E+03  0.7818608E-02  0.1026893E+00
          2   -1    0    0  501    0  0.00000000000E+00  0.00000000000E+00  0.56174306592E+03  0.56174306592E+03  0.00000000000E+00 0. -1.
         -2   -1    0    0    0  501 -0.00000000000E+00 -0.00000000000E+00 -0.43614717824E+03  0.43614717824E+03  0.00000000000E+00 0.  1.
         23    2    1    2    0    0 -0.76485684960E+02  0.26412045229E+03  0.17077979051E+03  0.33628196939E+03  0.91160039316E+02 0.  0.
    5000000    2    1    2    0    0  0.76485684960E+02 -0.26412045229E+03 -0.45183902832E+02  0.66160827477E+03  0.60006187252E+03 0.  0.
         23    2    4    4    0    0  0.25047202715E+03  0.47084814423E+02 -0.10421875384E+03  0.28929509919E+03  0.88751842963E+02 0.  0.
         23    2    4    4    0    0 -0.17398634219E+03 -0.31120526671E+03  0.59034851004E+02  0.37231317558E+03  0.89509897654E+02 0.  0.
          1    1    3    3  502    0  0.16619818914E+02  0.65276456609E+02  0.60684174149E+02  0.90663130105E+02  0.00000000000E+00 0. -1.
         -1    1    3    3    0  502 -0.93105503874E+02  0.19884399568E+03  0.11009561637E+03  0.24561883929E+03  0.00000000000E+00 0.  1.
         11    1    5    5    0    0  0.11538439745E+03  0.44515182766E+02 -0.90985128248E+02  0.15353649154E+03  0.00000000000E+00 0. -1.
        -11    1    5    5    0    0  0.13508762970E+03  0.25696316564E+01 -0.13233625589E+02  0.13575860765E+03  0.00000000000E+00 0.  1.
          2    1    6    6  503    0 -0.14199562491E+03 -0.20815234065E+03  0.59136185997E+01  0.25204191179E+03  0.00000000000E+00 0. -1.
         -2    1    6    6    0  503 -0.31990717280E+02 -0.10305292606E+03  0.53121232405E+02  0.12027126379E+03  0.00000000000E+00 0.  1.
<mgrwt>
<rscale>  0 0.45279180E+03</rscale>
<asrwt>0</asrwt>
<pdfrwt beam="1">  1        2 0.86422010E-01 0.45279180E+03</pdfrwt>
<pdfrwt beam="2">  1       -2 0.67099566E-01 0.45279180E+03</pdfrwt>
<totfact> 0.11287922E+02</totfact>
</mgrwt>
</event>
<event>
12    1  0.1338445E-007  0.6794314E+03  0.7818608E-02  0.9753069E-01
         -2   -1    0    0    0  501 -0.00000000000E+00  0.00000000000E+00  0.32196128164E+03  0.32196128164E+03  0.00000000000E+00 0. -1.
          2   -1    0    0  501    0  0.00000000000E+00 -0.00000000000E+00 -0.15624507885E+04  0.15624507885E+04  0.00000000000E+00 0.  1.
         23    2    1    2    0    0  0.16113051679E+03  0.54809485248E+03 -0.62966280096E+03  0.85508381400E+03  0.91225409317E+02 0.  0.
    5000000    2    1    2    0    0 -0.16113051679E+03 -0.54809485248E+03 -0.61082670587E+03  0.10293282561E+04  0.60003031879E+03 0.  0.
         23    2    4    4    0    0 -0.24781788832E+03 -0.35867972515E+02 -0.72672563922E+02  0.27603096982E+03  0.90617755037E+02 0.  0.
         23    2    4    4    0    0  0.86687371530E+02 -0.51222687997E+03 -0.53815414195E+03  0.75329728629E+03  0.89195538549E+02 0.  0.
          4    1    3    3  502    0  0.10795360602E+03  0.23823296311E+03 -0.24600979550E+03  0.35906788390E+03  0.00000000000E+00 0. -1.
         -4    1    3    3    0  502  0.53176910774E+02  0.30986188937E+03 -0.38365300545E+03  0.49601593011E+03  0.00000000000E+00 0.  1.
         13    1    5    5    0    0 -0.13485417427E+03  0.10995935180E+02 -0.72985343553E+02  0.15373164697E+03  0.00000000000E+00 0. -1.
        -13    1    5    5    0    0 -0.11296371406E+03 -0.46863907695E+02  0.31277963115E+00  0.12229932285E+03  0.00000000000E+00 0.  1.
          1    1    6    6  503    0  0.35551975480E+02 -0.56650473566E+02 -0.90655709205E+02  0.11265734209E+03  0.00000000000E+00 0. -1.
         -1    1    6    6    0  503  0.51135396050E+02 -0.45557640640E+03 -0.44749843275E+03  0.64063994420E+03  0.00000000000E+00 0.  1.
<mgrwt>
<rscale>  0 0.67943138E+03</rscale>
<asrwt>0</asrwt>
<pdfrwt beam="1">  1        2 0.24037704E+00 0.67943138E+03</pdfrwt>
<pdfrwt beam="2">  1       -2 0.49532505E-01 0.67943138E+03</pdfrwt>
<totfact> 0.46564855E+01</totfact>
</mgrwt>
</event>
<event>
12    1  0.1338445E-007  0.5757200E+03  0.7818608E-02  0.9957100E-01
         -2   -1    0    0    0  501 -0.00000000000E+00  0.00000000000E+00  0.13670109098E+03  0.13670109098E+03  0.00000000000E+00 0.  1.
          2   -1    0    0  501    0  0.00000000000E+00 -0.00000000000E+00 -0.30512659969E+04  0.30512659969E+04  0.00000000000E+00 0. -1.
         23    2    1    2    0    0  0.73089066678E+01 -0.43308319349E+03 -0.17721985431E+04  0.18266264527E+04  0.90895814166E+02 0.  0.
    5000000    2    1    2    0    0 -0.73089066678E+01  0.43308319349E+03 -0.11423663628E+04  0.13613406351E+04  0.60052722286E+03 0.  0.
         23    2    4    4    0    0 -0.76151717871E+01  0.56400547814E+03 -0.79337052028E+03  0.97792519641E+03  0.93491909287E+02 0.  0.
         23    2    4    4    0    0  0.30626511921E+00 -0.13092228466E+03 -0.34899584251E+03  0.38341543871E+03  0.89825175390E+02 0.  0.
          1    1    3    3  502    0  0.42770269115E+02 -0.15076865461E+03 -0.69866695549E+03  0.71602793090E+03  0.00000000000E+00 0. -1.
         -1    1    3    3    0  502 -0.35461362447E+02 -0.28231453887E+03 -0.10735315876E+04  0.11105985218E+04  0.00000000000E+00 0.  1.
         11    1    5    5    0    0 -0.47325076613E+02  0.37916541769E+03 -0.50962581643E+03  0.63696510863E+03  0.00000000000E+00 0.  1.
        -11    1    5    5    0    0  0.39709904826E+02  0.18484006046E+03 -0.28374470386E+03  0.34096008778E+03  0.00000000000E+00 0. -1.
          4    1    6    6  503    0  0.23098555109E+02 -0.79270309729E+02 -0.10828595594E+03  0.13617332157E+03  0.00000000000E+00 0. -1.
         -4    1    6    6    0  503 -0.22792289990E+02 -0.51651974929E+02 -0.24070988657E+03  0.24724211715E+03  0.00000000000E+00 0.  1.
<mgrwt>
<rscale>  0 0.57571999E+03</rscale>
<asrwt>0</asrwt>
<pdfrwt beam="1">  1        2 0.46942550E+00 0.57571999E+03</pdfrwt>
<pdfrwt beam="2">  1       -2 0.21030939E-01 0.57571999E+03</pdfrwt>
<totfact> 0.34465124E+01</totfact>
</mgrwt>
</event>
<event>
12    1  0.1338445E-007  0.8366126E+03  0.7818608E-02  0.9508483E-01
          2   -1    0    0  501    0  0.00000000000E+00  0.00000000000E+00  0.19664607465E+04  0.19664607465E+04  0.00000000000E+00 0.  1.
         -2   -1    0    0    0  501 -0.00000000000E+00 -0.00000000000E+00 -0.49696655961E+03  0.49696655961E+03  0.00000000000E+00 0. -1.
         23    2    1    2    0    0  0.68420745054E+03  0.27056894055E+03  0.13028147438E+04  0.14994862784E+04  0.98921461472E+02 0.  0.
    5000000    2    1    2    0    0 -0.68420745054E+03 -0.27056894055E+03  0.16667944318E+03  0.96394102777E+03  0.60004406610E+03 0.  0.
         23    2    4    4    0    0 -0.46717564744E+03  0.11799721110E+03  0.13384767785E+03  0.50826181148E+03  0.90765856743E+02 0.  0.
         23    2    4    4    0    0 -0.21703180310E+03 -0.38856615166E+03  0.32831765330E+02  0.45567921629E+03  0.92082384697E+02 0.  0.
          1    1    3    3  502    0  0.49629206993E+03  0.24245333315E+03  0.96373746311E+03  0.11108012132E+04  0.00000000000E+00 0. -1.
         -1    1    3    3    0  502  0.18791538062E+03  0.28115607403E+02  0.33907728065E+03  0.38868506519E+03  0.00000000000E+00 0.  1.
         11    1    5    5    0    0 -0.30305869724E+03  0.50969609765E+02  0.47116406294E+02  0.31090582310E+03  0.00000000000E+00 0.  1.
        -11    1    5    5    0    0 -0.16411695020E+03  0.67027601339E+02  0.86731271556E+02  0.19735598838E+03  0.00000000000E+00 0. -1.
          3    1    6    6  503    0 -0.46913194321E+02 -0.58845563698E+02  0.38674410755E+02  0.84612990820E+02  0.00000000000E+00 0. -1.
         -3    1    6    6    0  503 -0.17011860878E+03 -0.32972058796E+03 -0.58426454250E+01  0.37106622547E+03  0.00000000000E+00 0.  1.
<mgrwt>
<rscale>  0 0.83661264E+03</rscale>
<asrwt>0</asrwt>
<pdfrwt beam="1">  1        2 0.30253242E+00 0.83661264E+03</pdfrwt>
<pdfrwt beam="2">  1       -2 0.76456394E-01 0.83661264E+03</pdfrwt>
<totfact> 0.10904947E+01</totfact>
</mgrwt>
</event>
<event>
12    1  0.1338445E-007  0.1578571E+04  0.7818608E-02  0.8833822E-01
          2   -1    0    0  501    0  0.00000000000E+00  0.00000000000E+00  0.23962547370E+04  0.23962547370E+04  0.00000000000E+00 0. -1.
         -2   -1    0    0    0  501 -0.00000000000E+00 -0.00000000000E+00 -0.11023094374E+04  0.11023094374E+04  0.00000000000E+00 0.  1.
         23    2    1    2    0    0  0.60232600113E+03 -0.14208787204E+04  0.32320996782E+03  0.15791960365E+04  0.87763822843E+02 0.  0.
    5000000    2    1    2    0    0 -0.60232600113E+03  0.14208787204E+04  0.97073533185E+03  0.19193681379E+04  0.59996167739E+03 0.  0.
         23    2    4    4    0    0 -0.56157803370E+03  0.73895965381E+03  0.36358367905E+03  0.10010211075E+04  0.91754608411E+02 0.  0.
         23    2    4    4    0    0 -0.40747967427E+02  0.68191906663E+03  0.60715165280E+03  0.91834703033E+03  0.89744795642E+02 0.  0.
          4    1    3    3  502    0  0.44359416304E+03 -0.96752076761E+03  0.24968288383E+03  0.10932583225E+04  0.00000000000E+00 0. -1.
         -4    1    3    3    0  502  0.15873183808E+03 -0.45335795283E+03  0.73527083992E+02  0.48593771401E+03  0.00000000000E+00 0.  1.
         13    1    5    5    0    0 -0.55938222820E+03  0.72890080571E+03  0.36807302877E+03  0.98978917770E+03  0.00000000000E+00 0. -1.
        -13    1    5    5    0    0 -0.21958055051E+01  0.10058848106E+02 -0.44893497172E+01  0.11231929839E+02  0.00000000000E+00 0.  1.
          1    1    6    6  503    0 -0.35612743707E+02  0.65235656307E+03  0.60100518969E+03  0.88771875666E+03  0.00000000000E+00 0. -1.
         -1    1    6    6    0  503 -0.51352237197E+01  0.29562503559E+02  0.61464631070E+01  0.30628273671E+02  0.00000000000E+00 0.  1.
<mgrwt>
<rscale>  0 0.15785713E+04</rscale>
<asrwt>0</asrwt>
<pdfrwt beam="1">  1        2 0.36865457E+00 0.15785713E+04</pdfrwt>
<pdfrwt beam="2">  1       -2 0.16958607E+00 0.15785713E+04</pdfrwt>
<totfact> 0.80137708E-01</totfact>
</mgrwt>
</event>
<event>
12    1  0.1338445E-007  0.9487590E+03  0.7818608E-02  0.9366602E-01
         -2   -1    0    0    0  501 -0.00000000000E+00  0.00000000000E+00  0.14543275741E+04  0.14543275741E+04  0.00000000000E+00 0.  1.
          2   -1    0    0  501    0  0.00000000000E+00 -0.00000000000E+00 -0.70509927322E+03  0.70509927322E+03  0.00000000000E+00 0. -1.
         23    2    1    2    0    0  0.20189647127E+02  0.87218646226E+03  0.27037435091E+02  0.87776038699E+03  0.92819326008E+02 0.  0.
    5000000    2    1    2    0    0 -0.20189647127E+02 -0.87218646226E+03  0.72219086579E+03  0.12816664603E+04  0.59999368503E+03 0.  0.
         23    2    4    4    0    0  0.12092704712E+03 -0.86617283996E+03  0.53176163207E+03  0.10276211195E+04  0.91411118084E+02 0.  0.
         23    2    4    4    0    0 -0.14111669425E+03 -0.60136223041E+01  0.19042923372E+03  0.25404534081E+03  0.91245038693E+02 0.  0.
          3    1    3    3  502    0  0.35606295538E+02  0.12956447815E+03  0.10793080824E+02  0.13480078959E+03  0.00000000000E+00 0.  1.
         -3    1    3    3    0  502 -0.15416648411E+02  0.74262198411E+03  0.16244354267E+02  0.74295959741E+03  0.00000000000E+00 0. -1.
         11    1    5    5    0    0  0.19114663420E+02 -0.38716829922E+02  0.10693739481E+02  0.44482798259E+02  0.00000000000E+00 0.  1.
        -11    1    5    5    0    0  0.10181238370E+03 -0.82745601003E+03  0.52106789259E+03  0.98313832125E+03  0.00000000000E+00 0. -1.
          1    1    6    6  503    0 -0.72033516001E+02 -0.15728341198E+02  0.16333593343E+03  0.17920612516E+03  0.00000000000E+00 0. -1.
         -1    1    6    6    0  503 -0.69083178245E+02  0.97147188935E+01  0.27093300289E+02  0.74839215657E+02  0.00000000000E+00 0.  1.
<mgrwt>
<rscale>  0 0.94875896E+03</rscale>
<asrwt>0</asrwt>
<pdfrwt beam="1">  1        2 0.10847681E+00 0.94875896E+03</pdfrwt>
<pdfrwt beam="2">  1       -2 0.22374270E+00 0.94875896E+03</pdfrwt>
<totfact> 0.38022152E+00</totfact>
</mgrwt>
</event>
<event>
12    1  0.1338445E-007  0.1058041E+04  0.7818608E-02  0.9247081E-01
          1   -1    0    0  501    0  0.00000000000E+00  0.00000000000E+00  0.21925494904E+04  0.21925494904E+04  0.00000000000E+00 0. -1.
         -1   -1    0    0    0  501 -0.00000000000E+00 -0.00000000000E+00 -0.60793725914E+03  0.60793725914E+03  0.00000000000E+00 0.  1.
         23    2    1    2    0    0 -0.98177765345E+02  0.99710952132E+03  0.26640020388E+03  0.10394835641E+04  0.75436996132E+02 0.  0.
    5000000    2    1    2    0    0  0.98177765345E+02 -0.99710952132E+03  0.13182120274E+04  0.17610031854E+04  0.59965239830E+03 0.  0.
         23    2    4    4    0    0  0.27141754173E+03 -0.44505267721E+03  0.88872866711E+03  0.10343396123E+04  0.90996825641E+02 0.  0.
         23    2    4    4    0    0 -0.17323977638E+03 -0.55205684411E+03  0.42948336028E+03  0.72666357316E+03  0.93836094138E+02 0.  0.
          4    1    3    3  502    0 -0.17691270831E+02  0.81655736261E+02  0.34591523009E+01  0.83621803751E+02  0.00000000000E+00 0. -1.
         -4    1    3    3    0  502 -0.80486494514E+02  0.91545378506E+03  0.26294105158E+03  0.95586176039E+03  0.00000000000E+00 0.  1.
         13    1    5    5    0    0  0.21716085759E+03 -0.27473446741E+03  0.57414708724E+03  0.67251969744E+03  0.00000000000E+00 0.  1.
        -13    1    5    5    0    0  0.54256684141E+02 -0.17031820980E+03  0.31458157987E+03  0.36181991482E+03  0.00000000000E+00 0. -1.
          2    1    6    6  503    0 -0.86555734948E+01 -0.14875486819E+03  0.13315160372E+03  0.19983062662E+03  0.00000000000E+00 0. -1.
         -2    1    6    6    0  503 -0.16458420289E+03 -0.40330197592E+03  0.29633175656E+03  0.52683294654E+03  0.00000000000E+00 0.  1.
<mgrwt>
<rscale>  0 0.10580411E+04</rscale>
<asrwt>0</asrwt>
<pdfrwt beam="1">  1        1 0.33731530E+00 0.10580411E+04</pdfrwt>
<pdfrwt beam="2">  1       -1 0.93528810E-01 0.10580411E+04</pdfrwt>
<totfact> 0.24582731E+00</totfact>
</mgrwt>
</event>
<event>
12    1  0.1338445E-007  0.4744210E+03  0.7818608E-02  0.1020680E+00
         -1   -1    0    0    0  501 -0.00000000000E+00  0.00000000000E+00  0.24750819631E+03  0.24750819631E+03  0.00000000000E+00 0.  1.
          1   -1    0    0  501    0  0.00000000000E+00 -0.00000000000E+00 -0.16518520554E+04  0.16518520554E+04  0.00000000000E+00 0. -1.
         23    2    1    2    0    0 -0.27277590203E+03  0.10743779808E+03 -0.11410126861E+04  0.11815111212E+04  0.90050022609E+02 0.  0.
    5000000    2    1    2    0    0  0.27277590203E+03 -0.10743779808E+03 -0.26333117298E+03  0.71784913046E+03  0.60001207843E+03 0.  0.
         23    2    4    4    0    0  0.39118517757E+03  0.97713808334E+02 -0.18663963589E+03  0.45359585936E+03  0.91329176357E+02 0.  0.
         23    2    4    4    0    0 -0.11840927555E+03 -0.20515160641E+03 -0.76691537092E+02  0.26425327110E+03  0.88545249867E+02 0.  0.
          1    1    3    3  502    0 -0.11067555002E+03  0.44912865630E+02 -0.64459775043E+03  0.65557036444E+03  0.00000000000E+00 0. -1.
         -1    1    3    3    0  502 -0.16210035201E+03  0.62524932449E+02 -0.49641493563E+03  0.52594075676E+03  0.00000000000E+00 0.  1.
         13    1    5    5    0    0  0.33030351555E+03  0.87617436958E+02 -0.19143882896E+03  0.39169637844E+03  0.00000000000E+00 0.  1.
        -13    1    5    5    0    0  0.60881662020E+02  0.10096371376E+02  0.47991930657E+01  0.61899480929E+02  0.00000000000E+00 0. -1.
          4    1    6    6  503    0 -0.61407946502E+02 -0.30625882474E+02 -0.29453928038E+02  0.74675393857E+02  0.00000000000E+00 0. -1.
         -4    1    6    6    0  503 -0.57001329047E+02 -0.17452572394E+03 -0.47237609055E+02  0.18957787724E+03  0.00000000000E+00 0.  1.
<mgrwt>
<rscale>  0 0.47442097E+03</rscale>
<asrwt>0</asrwt>
<pdfrwt beam="1">  1        1 0.25413108E+00 0.47442097E+03</pdfrwt>
<pdfrwt beam="2">  1       -1 0.38078185E-01 0.47442097E+03</pdfrwt>
<totfact> 0.36870455E+01</totfact>
</mgrwt>
</event>
<event>
12    1  0.1338445E-007  0.5119872E+03  0.7818608E-02  0.1010697E+00
         -2   -1    0    0    0  501 -0.00000000000E+00  0.00000000000E+00  0.19736661641E+03  0.19736661641E+03  0.00000000000E+00 0. -1.
          2   -1    0    0  501    0  0.00000000000E+00 -0.00000000000E+00 -0.15267781212E+04  0.15267781212E+04  0.00000000000E+00 0.  1.
         23    2    1    2    0    0 -0.23646027921E+03 -0.23685304124E+03 -0.19488491428E+03  0.39779414285E+03  0.90814225120E+02 0.  0.
    5000000    2    1    2    0    0  0.23646027921E+03  0.23685304124E+03 -0.11345265905E+04  0.13263505947E+04  0.60003540634E+03 0.  0.
         23    2    4    4    0    0 -0.13513437235E+03  0.25526658480E+03 -0.51485959835E+03  0.59796911663E+03  0.95206777756E+02 0.  0.
         23    2    4    4    0    0  0.37159465157E+03 -0.18413543559E+02 -0.61966699214E+03  0.72838147811E+03  0.90170687297E+02 0.  0.
          4    1    3    3  502    0 -0.27935046597E+02 -0.83063557525E+02 -0.52142115308E+02  0.10197412224E+03  0.00000000000E+00 0.  1.
         -4    1    3    3    0  502 -0.20852523262E+03 -0.15378948371E+03 -0.14274279897E+03  0.29582002061E+03  0.00000000000E+00 0. -1.
         13    1    5    5    0    0 -0.76494003123E+02  0.51843030130E+02 -0.15752630922E+03  0.18262959887E+03  0.00000000000E+00 0. -1.
        -13    1    5    5    0    0 -0.58640369228E+02  0.20342355467E+03 -0.35733328913E+03  0.41533951776E+03  0.00000000000E+00 0.  1.
          1    1    6    6  503    0  0.20782825127E+03 -0.24346167854E+02 -0.26474492709E+03  0.33745398847E+03  0.00000000000E+00 0. -1.
         -1    1    6    6    0  503  0.16376640030E+03  0.59326242948E+01 -0.35492206505E+03  0.39092748964E+03  0.00000000000E+00 0.  1.
<mgrwt>
<rscale>  0 0.51198725E+03</rscale>
<asrwt>0</asrwt>
<pdfrwt beam="1">  1        2 0.23488894E+00 0.51198725E+03</pdfrwt>
<pdfrwt beam="2">  1       -2 0.30364095E-01 0.51198725E+03</pdfrwt>
<totfact> 0.12813991E+02</totfact>
</mgrwt>
</event>
<event>
12    1  0.1338445E-007  0.4582500E+03  0.7818608E-02  0.1025290E+00
          2   -1    0    0  501    0  0.00000000000E+00  0.00000000000E+00  0.29191235203E+04  0.29191235203E+04  0.00000000000E+00 0. -1.
         -2   -1    0    0    0  501 -0.00000000000E+00 -0.00000000000E+00 -0.17357292719E+03  0.17357292719E+03  0.00000000000E+00 0.  1.
         23    2    1    2    0    0  0.62269938154E+02 -0.31066466115E+03  0.73625649180E+02  0.33595179888E+03  0.83980938704E+02 0.  0.
    5000000    2    1    2    0    0 -0.62269938154E+02  0.31066466115E+03  0.26719249439E+04  0.27567446486E+04  0.60005672627E+03 0.  0.
         23    2    4    4    0    0 -0.26269641012E+03  0.66299496917E+02  0.67226196980E+03  0.73008829527E+03  0.87679733526E+02 0.  0.
         23    2    4    4    0    0  0.20042647197E+03  0.24436516423E+03  0.19996629741E+04  0.20266563534E+04  0.93802240112E+02 0.  0.
          3    1    3    3  502    0 -0.19751746656E+02 -0.92315965678E+02  0.25567449028E+02  0.97806254732E+02  0.00000000000E+00 0. -1.
         -3    1    3    3    0  502  0.82021684810E+02 -0.21834869547E+03  0.48058200152E+02  0.23814554414E+03  0.00000000000E+00 0.  1.
         11    1    5    5    0    0 -0.21699160203E+03  0.66972344551E+02  0.46051036884E+03  0.51345929741E+03  0.00000000000E+00 0. -1.
        -11    1    5    5    0    0 -0.45704808095E+02 -0.67284763375E+00  0.21175160095E+03  0.21662899786E+03  0.00000000000E+00 0.  1.
          4    1    6    6  503    0  0.17625712380E+02  0.21868182125E+02  0.42166653364E+03  0.42260093317E+03  0.00000000000E+00 0.  1.
         -4    1    6    6    0  503  0.18280075959E+03  0.22249698211E+03  0.15779964405E+04  0.16040554202E+04  0.00000000000E+00 0. -1.
<mgrwt>
<rscale>  0 0.45825001E+03</rscale>
<asrwt>0</asrwt>
<pdfrwt beam="1">  1        2 0.44909589E+00 0.45825001E+03</pdfrwt>
<pdfrwt beam="2">  1       -2 0.26703529E-01 0.45825001E+03</pdfrwt>
<totfact> 0.27822792E+01</totfact>
</mgrwt>
</event>
<event>
12    1  0.1338445E-007  0.8021158E+03  0.7818608E-02  0.9556960E-01
         -2   -1    0    0    0  501 -0.00000000000E+00  0.00000000000E+00  0.41402804717E+03  0.41402804717E+03  0.00000000000E+00 0. -1.
          2   -1    0    0  501    0  0.00000000000E+00 -0.00000000000E+00 -0.19444795495E+04  0.19444795495E+04  0.00000000000E+00 0.  1.
         23    2    1    2    0    0 -0.64602437232E+03  0.46038186025E+03 -0.68515450735E+03  0.10527182701E+04  0.97365858057E+02 0.  0.
    5000000    2    1    2    0    0  0.64602437232E+03 -0.46038186025E+03 -0.84529699496E+03  0.13057893266E+04  0.60104892384E+03 0.  0.
         23    2    4    4    0    0  0.35737911031E+03 -0.26241017881E+03 -0.82613528556E+03  0.94187926137E+03  0.89766934442E+02 0.  0.
         23    2    4    4    0    0  0.28864526201E+03 -0.19797168144E+03 -0.19161709396E+02  0.36391006521E+03  0.97747074241E+02 0.  0.
          3    1    3    3  502    0 -0.43232110766E+03  0.34024577303E+03 -0.52083363225E+03  0.75758590185E+03  0.00000000000E+00 0. -1.
         -3    1    3    3    0  502 -0.21370326466E+03  0.12013608722E+03 -0.16432087510E+03  0.29513236822E+03  0.00000000000E+00 0.  1.
         13    1    5    5    0    0  0.19263461305E+03 -0.10513713128E+03 -0.47640511237E+03  0.52452239381E+03  0.00000000000E+00 0. -1.
        -13    1    5    5    0    0  0.16474449727E+03 -0.15727304753E+03 -0.34973017319E+03  0.41735686756E+03  0.00000000000E+00 0.  1.
          2    1    6    6  503    0  0.10226121559E+03 -0.20411772998E+02 -0.21522561685E+02  0.10647636992E+03  0.00000000000E+00 0. -1.
         -2    1    6    6    0  503  0.18638404642E+03 -0.17755990844E+03  0.23608522890E+01  0.25743369529E+03  0.00000000000E+00 0.  1.
<mgrwt>
<rscale>  0 0.80211580E+03</rscale>
<asrwt>0</asrwt>
<pdfrwt beam="1">  1        2 0.29915071E+00 0.80211580E+03</pdfrwt>
<pdfrwt beam="2">  1       -2 0.63696621E-01 0.80211580E+03</pdfrwt>
<totfact> 0.16782531E+01</totfact>
</mgrwt>
</event>
<event>
12    1  0.1338445E-007  0.1252942E+04  0.7818608E-02  0.9067738E-01
          1   -1    0    0  501    0  0.00000000000E+00  0.00000000000E+00  0.14975380446E+04  0.14975380446E+04  0.00000000000E+00 0. -1.
         -1   -1    0    0    0  501 -0.00000000000E+00 -0.00000000000E+00 -0.16000821587E+04  0.16000821587E+04  0.00000000000E+00 0.  1.
         23    2    1    2    0    0  0.66478400045E+03 -0.98307433250E+03  0.84919272167E+03  0.14623440340E+04  0.94598545469E+02 0.  0.
    5000000    2    1    2    0    0 -0.66478400045E+03  0.98307433250E+03 -0.95173683576E+03  0.16352761692E+04  0.59996019415E+03 0.  0.
         23    2    4    4    0    0 -0.39264320212E+03  0.12136533843E+03 -0.29140398191E+03  0.51236728606E+03  0.93304477942E+02 0.  0.
         23    2    4    4    0    0 -0.27214079833E+03  0.86170899407E+03 -0.66033285385E+03  0.11229088832E+04  0.91004820818E+02 0.  0.
          1    1    3    3  502    0  0.49190260492E+03 -0.75758721642E+03  0.68990006451E+03  0.11366040041E+04  0.00000000000E+00 0. -1.
         -1    1    3    3    0  502  0.17288139553E+03 -0.22548711609E+03  0.15929265715E+03  0.32574002988E+03  0.00000000000E+00 0.  1.
         13    1    5    5    0    0 -0.17058538621E+03  0.24769216971E+02 -0.76444228653E+02  0.18856459952E+03  0.00000000000E+00 0. -1.
        -13    1    5    5    0    0 -0.22205781591E+03  0.96596121462E+02 -0.21495975326E+03  0.32380268654E+03  0.00000000000E+00 0.  1.
          3    1    6    6  503    0 -0.42934779400E+02  0.11070268157E+03 -0.52001502155E+02  0.12962497913E+03  0.00000000000E+00 0. -1.
         -3    1    6    6    0  503 -0.22920601893E+03  0.75100631250E+03 -0.60833135170E+03  0.99328390402E+03  0.00000000000E+00 0.  1.
<mgrwt>
<rscale>  0 0.12529418E+04</rscale>
<asrwt>0</asrwt>
<pdfrwt beam="1">  1        1 0.23039047E+00 0.12529418E+04</pdfrwt>
<pdfrwt beam="2">  1       -1 0.24616648E+00 0.12529418E+04</pdfrwt>
<totfact> 0.47243613E-01</totfact>
</mgrwt>
</event>
<event>
12    1  0.1338445E-007  0.1064210E+04  0.7818608E-02  0.9240794E-01
         -2   -1    0    0    0  501 -0.00000000000E+00  0.00000000000E+00  0.62593973891E+03  0.62593973891E+03  0.00000000000E+00 0.  1.
          2   -1    0    0  501    0  0.00000000000E+00 -0.00000000000E+00 -0.21624378433E+04  0.21624378433E+04  0.00000000000E+00 0. -1.
         23    2    1    2    0    0 -0.19840419605E+03  0.98569935769E+03 -0.12038580879E+04  0.15711669389E+04  0.91234890810E+02 0.  0.
    5000000    2    1    2    0    0  0.19840419605E+03 -0.98569935769E+03 -0.33264001648E+03  0.12172106433E+04  0.59998743389E+03 0.  0.
         23    2    4    4    0    0  0.33329346181E+03 -0.46581976018E+03 -0.28356500888E+01  0.58001623538E+03  0.91313809048E+02 0.  0.
         23    2    4    4    0    0 -0.13488926576E+03 -0.51987959751E+03 -0.32980436640E+03  0.63719440793E+03  0.93679685488E+02 0.  0.
          4    1    3    3  502    0 -0.11966649234E+03  0.63382767977E+03 -0.83788508425E+03  0.10574067389E+04  0.00000000000E+00 0. -1.
         -4    1    3    3    0  502 -0.78737703710E+02  0.35187167792E+03 -0.36597300363E+03  0.51376019999E+03  0.00000000000E+00 0.  1.
         13    1    5    5    0    0  0.29863925913E+02 -0.96263230530E+02  0.12782310084E+02  0.10159651113E+03  0.00000000000E+00 0. -1.
        -13    1    5    5    0    0  0.30342953590E+03 -0.36955652966E+03 -0.15617960173E+02  0.47841972424E+03  0.00000000000E+00 0.  1.
          2    1    6    6  503    0 -0.55213511396E+02 -0.82373733400E+02 -0.77879306743E+02  0.12609183246E+03  0.00000000000E+00 0.  1.
         -2    1    6    6    0  503 -0.79675754365E+02 -0.43750586411E+03 -0.25192505965E+03  0.51110257546E+03  0.00000000000E+00 0. -1.
<mgrwt>
<rscale>  0 0.10642104E+04</rscale>
<asrwt>0</asrwt>
<pdfrwt beam="1">  1        2 0.33268275E+00 0.10642104E+04</pdfrwt>
<pdfrwt beam="2">  1       -2 0.96298421E-01 0.10642104E+04</pdfrwt>
<totfact> 0.48713361E+00</totfact>
</mgrwt>
</event>
<event>
12    1  0.1338445E-007  0.1811054E+04  0.7818608E-02  0.8700443E-01
          1   -1    0    0  501    0  0.00000000000E+00  0.00000000000E+00  0.18455268241E+04  0.18455268241E+04  0.00000000000E+00 0. -1.
         -1   -1    0    0    0  501 -0.00000000000E+00 -0.00000000000E+00 -0.19468557073E+04  0.19468557073E+04  0.00000000000E+00 0.  1.
         23    2    1    2    0    0 -0.15364547202E+04 -0.91276040933E+03 -0.51553771566E+03  0.18623005356E+04  0.92517439944E+02 0.  0.
    5000000    2    1    2    0    0  0.15364547202E+04  0.91276040933E+03  0.41420883252E+03  0.19300819958E+04  0.59985238296E+03 0.  0.
         23    2    4    4    0    0  0.13818031412E+04  0.68393126094E+03  0.17676274292E+03  0.15545771844E+04  0.91231925112E+02 0.  0.
         23    2    4    4    0    0  0.15465157898E+03  0.22882914840E+03  0.23744608960E+03  0.37550481138E+03  0.91341818785E+02 0.  0.
          2    1    3    3  502    0 -0.25415965624E+03 -0.19123985308E+03 -0.99108370340E+02  0.33315504099E+03  0.00000000000E+00 0. -1.
         -2    1    3    3    0  502 -0.12822950640E+04 -0.72152055625E+03 -0.41642934532E+03  0.15291454946E+04  0.00000000000E+00 0.  1.
         13    1    5    5    0    0  0.64562567048E+03  0.29690375654E+03  0.12241969223E+03  0.72109009706E+03  0.00000000000E+00 0.  1.
        -13    1    5    5    0    0  0.73617747073E+03  0.38702750440E+03  0.54343050691E+02  0.83348708732E+03  0.00000000000E+00 0. -1.
          2    1    6    6  503    0 -0.11784161181E+02  0.10264131565E+02  0.18440371820E+02  0.24171598300E+02  0.00000000000E+00 0. -1.
         -2    1    6    6    0  503  0.16643574017E+03  0.21856501683E+03  0.21900571778E+03  0.35133321308E+03  0.00000000000E+00 0.  1.
<mgrwt>
<rscale>  0 0.18110535E+04</rscale>
<asrwt>0</asrwt>
<pdfrwt beam="1">  1        1 0.28392720E+00 0.18110535E+04</pdfrwt>
<pdfrwt beam="2">  1       -1 0.29951626E+00 0.18110535E+04</pdfrwt>
<totfact> 0.11494307E-01</totfact>
</mgrwt>
</event>
<event>
12    1  0.1338445E-007  0.4991776E+03  0.7818608E-02  0.1013994E+00
         -2   -1    0    0    0  501 -0.00000000000E+00  0.00000000000E+00  0.39340766062E+03  0.39340766062E+03  0.00000000000E+00 0.  1.
          2   -1    0    0  501    0  0.00000000000E+00 -0.00000000000E+00 -0.84423127152E+03  0.84423127152E+03  0.00000000000E+00 0. -1.
         23    2    1    2    0    0 -0.17409677201E+03  0.37313451970E+03 -0.12055619718E+03  0.43858441082E+03  0.91013366724E+02 0.  0.
    5000000    2    1    2    0    0  0.17409677201E+03 -0.37313451970E+03 -0.33026741373E+03  0.79905452132E+03  0.59989374697E+03 0.  0.
         23    2    4    4    0    0 -0.11212585359E+03 -0.18465839738E+03  0.89404503633E+02  0.24964181921E+03  0.87503953390E+02 0.  0.
         23    2    4    4    0    0  0.28622262560E+03 -0.18847612232E+03 -0.41967191736E+03  0.54941270211E+03  0.91011861503E+02 0.  0.
          4    1    3    3  502    0 -0.10580463366E+03  0.29210821047E+03 -0.59628978333E+02  0.31635018917E+03  0.00000000000E+00 0. -1.
         -4    1    3    3    0  502 -0.68292138348E+02  0.81026309225E+02 -0.60927218844E+02  0.12223422165E+03  0.00000000000E+00 0.  1.
         11    1    5    5    0    0 -0.51454133880E+02 -0.16131374238E+02  0.22747149727E+02  0.58525054027E+02  0.00000000000E+00 0. -1.
        -11    1    5    5    0    0 -0.60671719713E+02 -0.16852702314E+03  0.66657353906E+02  0.19111676518E+03  0.00000000000E+00 0.  1.
          2    1    6    6  503    0  0.18620375172E+03 -0.84775139070E+02 -0.19581908680E+03  0.28320271206E+03  0.00000000000E+00 0. -1.
         -2    1    6    6    0  503  0.10001887388E+03 -0.10370098325E+03 -0.22385283055E+03  0.26620999006E+03  0.00000000000E+00 0.  1.
<mgrwt>
<rscale>  0 0.49917764E+03</rscale>
<asrwt>0</asrwt>
<pdfrwt beam="1">  1        2 0.12988173E+00 0.49917764E+03</pdfrwt>
<pdfrwt beam="2">  1       -2 0.60524256E-01 0.49917764E+03</pdfrwt>
<totfact> 0.84325265E+01</totfact>
</mgrwt>
</event>
<event>
12    1  0.1338445E-007  0.5010791E+03  0.7818608E-02  0.1013498E+00
          1   -1    0    0  501    0  0.00000000000E+00  0.00000000000E+00  0.65656195427E+03  0.65656195427E+03  0.00000000000E+00 0. -1.
         -1   -1    0    0    0  501 -0.00000000000E+00 -0.00000000000E+00 -0.62227205619E+03  0.62227205619E+03  0.00000000000E+00 0.  1.
         23    2    1    2    0    0 -0.18559354357E+03 -0.41890366861E+03  0.19595029260E+03  0.50674489650E+03  0.92025137717E+02 0.  0.
    5000000    2    1    2    0    0  0.18559354357E+03  0.41890366861E+03 -0.16166039452E+03  0.77208911395E+03  0.60005188921E+03 0.  0.
         23    2    4    4    0    0  0.16590883102E+03  0.94008989815E+02  0.19000526118E+03  0.28411219208E+03  0.90853222484E+02 0.  0.
         23    2    4    4    0    0  0.19684712546E+02  0.32489467879E+03 -0.35166565570E+03  0.48797692187E+03  0.92242629326E+02 0.  0.
          2    1    3    3  502    0 -0.58309710681E+02 -0.20684156264E+03  0.12847046733E+03  0.25037594807E+03  0.00000000000E+00 0. -1.
         -2    1    3    3    0  502 -0.12728383288E+03 -0.21206210597E+03  0.67479825270E+02  0.25636894843E+03  0.00000000000E+00 0.  1.
         11    1    5    5    0    0  0.57749311917E+02 -0.10599493517E+02  0.36374150537E+02  0.69068162832E+02  0.00000000000E+00 0.  1.
        -11    1    5    5    0    0  0.10815951910E+03  0.10460848333E+03  0.15363111065E+03  0.21504402925E+03  0.00000000000E+00 0. -1.
          4    1    6    6  503    0 -0.19979905246E+02  0.70630752628E+02 -0.39303010997E+02  0.83262395497E+02  0.00000000000E+00 0. -1.
         -4    1    6    6    0  503  0.39664617792E+02  0.25426392616E+03 -0.31236264470E+03  0.40471452638E+03  0.00000000000E+00 0.  1.
<mgrwt>
<rscale>  0 0.50107909E+03</rscale>
<asrwt>0</asrwt>
<pdfrwt beam="1">  1        1 0.10100953E+00 0.50107909E+03</pdfrwt>
<pdfrwt beam="2">  1       -1 0.95734163E-01 0.50107909E+03</pdfrwt>
<totfact> 0.33334119E+01</totfact>
</mgrwt>
</event>
<event>
12    1  0.1338445E-007  0.6993312E+03  0.7818608E-02  0.9718377E-01
          2   -1    0    0  501    0  0.00000000000E+00  0.00000000000E+00  0.10402163913E+04  0.10402163913E+04  0.00000000000E+00 0. -1.
         -2   -1    0    0    0  501 -0.00000000000E+00 -0.00000000000E+00 -0.56575194242E+03  0.56575194242E+03  0.00000000000E+00 0.  1.
         23    2    1    2    0    0  0.47324632306E+03  0.34634676747E+03 -0.81717488887E+02  0.59945972823E+03  0.93573779237E+02 0.  0.
    5000000    2    1    2    0    0 -0.47324632306E+03 -0.34634676747E+03  0.55618193776E+03  0.10065086055E+04  0.59983586039E+03 0.  0.
         23    2    4    4    0    0 -0.46583894720E+03 -0.48125397827E+03  0.41377666369E+03  0.79232791303E+03  0.89224873302E+02 0.  0.
         23    2    4    4    0    0 -0.74073758548E+01  0.13490721081E+03  0.14240527407E+03  0.21418069246E+03  0.85669610682E+02 0.  0.
          1    1    3    3  502    0  0.17957321295E+03  0.17787395765E+03 -0.62389899319E+02  0.26034243441E+03  0.00000000000E+00 0. -1.
         -1    1    3    3    0  502  0.29367311011E+03  0.16847280981E+03 -0.19327589568E+02  0.33911729382E+03  0.00000000000E+00 0.  1.
         11    1    5    5    0    0 -0.31570088006E+03 -0.32040276513E+03  0.22765934716E+03  0.50413664410E+03  0.00000000000E+00 0.  1.
        -11    1    5    5    0    0 -0.15013806714E+03 -0.16085121314E+03  0.18611731653E+03  0.28819126893E+03  0.00000000000E+00 0. -1.
          1    1    6    6  503    0 -0.15900600920E+02  0.11094632427E+03  0.15036616012E+03  0.18754172359E+03  0.00000000000E+00 0. -1.
         -1    1    6    6    0  503  0.84932250653E+01  0.23960886536E+02 -0.79608860496E+01  0.26638968867E+02  0.00000000000E+00 0.  1.
<mgrwt>
<rscale>  0 0.69933119E+03</rscale>
<asrwt>0</asrwt>
<pdfrwt beam="1">  1        2 0.16003329E+00 0.69933119E+03</pdfrwt>
<pdfrwt beam="2">  1       -2 0.87038761E-01 0.69933119E+03</pdfrwt>
<totfact> 0.27697244E+01</totfact>
</mgrwt>
</event>
<event>
12    1  0.1338445E-007  0.7421194E+03  0.7818608E-02  0.9647796E-01
          1   -1    0    0  501    0  0.00000000000E+00  0.00000000000E+00  0.25014384589E+04  0.25014384589E+04  0.00000000000E+00 0. -1.
         -1   -1    0    0    0  501 -0.00000000000E+00 -0.00000000000E+00 -0.29969721363E+03  0.29969721363E+03  0.00000000000E+00 0.  1.
         23    2    1    2    0    0  0.28479716770E+02 -0.73732794643E+03  0.68451378202E+03  0.10105745739E+04  0.90764842777E+02 0.  0.
    5000000    2    1    2    0    0 -0.28479716770E+02  0.73732794643E+03  0.15172274633E+04  0.17905610987E+04  0.59972183386E+03 0.  0.
         23    2    4    4    0    0 -0.24579873646E+02  0.62455136284E+03  0.63222886179E+03  0.89370911817E+03  0.91291178062E+02 0.  0.
         23    2    4    4    0    0 -0.38998431234E+01  0.11277658359E+03  0.88499860147E+03  0.89685198052E+03  0.91581568986E+02 0.  0.
          3    1    3    3  502    0  0.20328979395E+02 -0.69993781761E+03  0.67144492847E+03  0.97013633469E+03  0.00000000000E+00 0. -1.
         -3    1    3    3    0  502  0.81507373747E+01 -0.37390128824E+02  0.13068853548E+02  0.40438239159E+02  0.00000000000E+00 0.  1.
         13    1    5    5    0    0  0.20793998059E+02  0.46251703603E+03  0.47783091012E+03  0.66533959572E+03  0.00000000000E+00 0. -1.
        -13    1    5    5    0    0 -0.45373871706E+02  0.16203432682E+03  0.15439795167E+03  0.22836952244E+03  0.00000000000E+00 0.  1.
          2    1    6    6  503    0 -0.11362279849E+02  0.50418388774E+02  0.14041554384E+03  0.14962499885E+03  0.00000000000E+00 0. -1.
         -2    1    6    6    0  503  0.74624367256E+01  0.62358194812E+02  0.74458305763E+03  0.74722698167E+03  0.00000000000E+00 0.  1.
<mgrwt>
<rscale>  0 0.74211938E+03</rscale>
<asrwt>0</asrwt>
<pdfrwt beam="1">  1        1 0.38483667E+00 0.74211938E+03</pdfrwt>
<pdfrwt beam="2">  1       -1 0.46107265E-01 0.74211938E+03</pdfrwt>
<totfact> 0.66923361E+00</totfact>
</mgrwt>
</event>
<event>
12    1  0.1338445E-007  0.1378779E+04  0.7818608E-02  0.8969324E-01
          1   -1    0    0  501    0  0.00000000000E+00  0.00000000000E+00  0.42055958034E+04  0.42055958034E+04  0.00000000000E+00 0. -1.
         -1   -1    0    0    0  501 -0.00000000000E+00 -0.00000000000E+00 -0.69309949428E+03  0.69309949428E+03  0.00000000000E+00 0.  1.
         23    2    1    2    0    0  0.63952587446E+03 -0.12125741438E+04  0.30289548343E+04  0.33260666338E+04  0.93927982269E+02 0.  0.
    5000000    2    1    2    0    0 -0.63952587446E+03  0.12125741438E+04  0.48354147478E+03  0.15726286639E+04  0.60001596500E+03 0.  0.
         23    2    4    4    0    0 -0.30723410147E+03  0.48479641878E+03 -0.84108237887E+02  0.58743781173E+03  0.92674841225E+02 0.  0.
         23    2    4    4    0    0 -0.33229177299E+03  0.72777772501E+03  0.56764971267E+03  0.98519085213E+03  0.91085560947E+02 0.  0.
          3    1    3    3  502    0  0.16584301582E+03 -0.26474187425E+03  0.76929871062E+03  0.83030878114E+03  0.00000000000E+00 0. -1.
         -3    1    3    3    0  502  0.47368285864E+03 -0.94783226954E+03  0.22596561237E+04  0.24957578527E+04  0.00000000000E+00 0.  1.
         11    1    5    5    0    0 -0.10086286256E+03  0.87311623989E+02 -0.24250372234E+02  0.13559025511E+03  0.00000000000E+00 0. -1.
        -11    1    5    5    0    0 -0.20637123891E+03  0.39748479479E+03 -0.59857865653E+02  0.45184755662E+03  0.00000000000E+00 0.  1.
          3    1    6    6  503    0 -0.19925565451E+03  0.33717567484E+03  0.30010227255E+03  0.49340817336E+03  0.00000000000E+00 0. -1.
         -3    1    6    6    0  503 -0.13303611848E+03  0.39060205017E+03  0.26754744012E+03  0.49178267877E+03  0.00000000000E+00 0.  1.
<mgrwt>
<rscale>  0 0.13787789E+04</rscale>
<asrwt>0</asrwt>
<pdfrwt beam="1">  1        1 0.64701472E+00 0.13787789E+04</pdfrwt>
<pdfrwt beam="2">  1       -1 0.10663069E+00 0.13787789E+04</pdfrwt>
<totfact> 0.50786768E-02</totfact>
</mgrwt>
</event>
<event>
12    1  0.1338445E-007  0.7648575E+03  0.7818608E-02  0.9612325E-01
          2   -1    0    0  501    0  0.00000000000E+00  0.00000000000E+00  0.10397153176E+04  0.10397153176E+04  0.00000000000E+00 0. -1.
         -2   -1    0    0    0  501 -0.00000000000E+00 -0.00000000000E+00 -0.79187833867E+03  0.79187833867E+03  0.00000000000E+00 0.  1.
         23    2    1    2    0    0  0.58814242524E+03 -0.30159232711E+03  0.57423437320E+03  0.88097592405E+03  0.97488559602E+02 0.  0.
    5000000    2    1    2    0    0 -0.58814242524E+03  0.30159232711E+03 -0.32639739424E+03  0.95061773224E+03  0.60022443281E+03 0.  0.
         23    2    4    4    0    0 -0.62587700740E+03  0.68247407194E+02 -0.19757263269E+03  0.66644735902E+03  0.93474061472E+02 0.  0.
         23    2    4    4    0    0  0.37734582161E+02  0.23334491992E+03 -0.12882476155E+03  0.28417037323E+03  0.91012260096E+02 0.  0.
          2    1    3    3  502    0  0.26759069767E+03 -0.16261348322E+03  0.32850893446E+03  0.45383482284E+03  0.00000000000E+00 0. -1.
         -2    1    3    3    0  502  0.32055172757E+03 -0.13897884389E+03  0.24572543874E+03  0.42714110121E+03  0.00000000000E+00 0.  1.
         11    1    5    5    0    0 -0.27188684097E+03  0.10657560356E+02 -0.41206707487E+02  0.27519816610E+03  0.00000000000E+00 0. -1.
        -11    1    5    5    0    0 -0.35399016643E+03  0.57589846838E+02 -0.15636592520E+03  0.39124919291E+03  0.00000000000E+00 0.  1.
          3    1    6    6  503    0  0.10488034937E+02  0.48275340589E+02  0.11015045450E+02  0.50614608682E+02  0.00000000000E+00 0. -1.
         -3    1    6    6    0  503  0.27246547224E+02  0.18506957933E+03 -0.13983980701E+03  0.23355576454E+03  0.00000000000E+00 0.  1.
<mgrwt>
<rscale>  0 0.76485745E+03</rscale>
<asrwt>0</asrwt>
<pdfrwt beam="1">  1        2 0.15995620E+00 0.76485745E+03</pdfrwt>
<pdfrwt beam="2">  1       -2 0.12182744E+00 0.76485745E+03</pdfrwt>
<totfact> 0.12342525E+01</totfact>
</mgrwt>
</event>
<event>
12    1  0.1338445E-007  0.7714565E+03  0.7818608E-02  0.9602277E-01
         -2   -1    0    0    0  501 -0.00000000000E+00  0.00000000000E+00  0.72448923089E+03  0.72448923089E+03  0.00000000000E+00 0.  1.
          2   -1    0    0  501    0  0.00000000000E+00 -0.00000000000E+00 -0.10734375399E+04  0.10734375399E+04  0.00000000000E+00 0. -1.
         23    2    1    2    0    0  0.65821412806E+03  0.24519402652E+03  0.18376942523E+03  0.73158063144E+03  0.89850262285E+02 0.  0.
    5000000    2    1    2    0    0 -0.65821412806E+03 -0.24519402652E+03 -0.53271773424E+03  0.10663461394E+04  0.59994996085E+03 0.  0.
         23    2    4    4    0    0 -0.57587097560E+03 -0.12909940709E+02 -0.15160574481E+03  0.60331620344E+03  0.95979645546E+02 0.  0.
         23    2    4    4    0    0 -0.82343152459E+02 -0.23228408581E+03 -0.38111198943E+03  0.46302993592E+03  0.91728304203E+02 0.  0.
          1    1    3    3  502    0  0.53021619073E+03  0.19086812612E+03  0.18311586524E+03  0.59252955250E+03  0.00000000000E+00 0. -1.
         -1    1    3    3    0  502  0.12799793733E+03  0.54325900399E+02  0.65355999124E+00  0.13905107894E+03  0.00000000000E+00 0.  1.
         11    1    5    5    0    0 -0.31737632601E+03 -0.53203958721E+02 -0.96462910537E+02  0.33595161355E+03  0.00000000000E+00 0. -1.
        -11    1    5    5    0    0 -0.25849464959E+03  0.40294018011E+02 -0.55142834274E+02  0.26736458989E+03  0.00000000000E+00 0.  1.
          3    1    6    6  503    0 -0.44766678123E+02 -0.20661884889E+03 -0.26971778771E+03  0.34269970702E+03  0.00000000000E+00 0. -1.
         -3    1    6    6    0  503 -0.37576474336E+02 -0.25665236925E+02 -0.11139420172E+03  0.12033022890E+03  0.00000000000E+00 0.  1.
<mgrwt>
<rscale>  0 0.77145651E+03</rscale>
<asrwt>0</asrwt>
<pdfrwt beam="1">  1        2 0.16514424E+00 0.77145651E+03</pdfrwt>
<pdfrwt beam="2">  1       -2 0.11145988E+00 0.77145651E+03</pdfrwt>
<totfact> 0.14619939E+01</totfact>
</mgrwt>
</event>
<event>
12    1  0.1338445E-007  0.5885132E+03  0.7818608E-02  0.9929528E-01
          2   -1    0    0  501    0  0.00000000000E+00  0.00000000000E+00  0.14895839934E+04  0.14895839934E+04  0.00000000000E+00 0. -1.
         -2   -1    0    0    0  501 -0.00000000000E+00 -0.00000000000E+00 -0.26589856691E+03  0.26589856691E+03  0.00000000000E+00 0.  1.
         23    2    1    2    0    0 -0.17634710424E+03 -0.44485970223E+03  0.54573951627E+03  0.73140581929E+03  0.90135437145E+02 0.  0.
    5000000    2    1    2    0    0  0.17634710424E+03  0.44485970223E+03  0.67794591021E+03  0.10240767410E+04  0.60010337315E+03 0.  0.
         23    2    4    4    0    0  0.34046148150E+03  0.17735763387E+03  0.54103708614E+03  0.66973418891E+03  0.91940222638E+02 0.  0.
         23    2    4    4    0    0 -0.16411437726E+03  0.26750206836E+03  0.13690882407E+03  0.35434255210E+03  0.91234493023E+02 0.  0.
          3    1    3    3  502    0 -0.93133334232E+02 -0.24023044846E+03  0.22567242531E+03  0.34250916755E+03  0.00000000000E+00 0. -1.
         -3    1    3    3    0  502 -0.83213770006E+02 -0.20462925378E+03  0.32006709095E+03  0.38889665174E+03  0.00000000000E+00 0.  1.
         13    1    5    5    0    0  0.26867615394E+03  0.14634827880E+03  0.48535985705E+03  0.57374113086E+03  0.00000000000E+00 0.  1.
        -13    1    5    5    0    0  0.71785327558E+02  0.31009355072E+02  0.55677229087E+02  0.95993058048E+02  0.00000000000E+00 0. -1.
          1    1    6    6  503    0 -0.52544056755E+02  0.10186735285E+03  0.44614367312E+01  0.11470719199E+03  0.00000000000E+00 0. -1.
         -1    1    6    6    0  503 -0.11157032051E+03  0.16563471552E+03  0.13244738734E+03  0.23963536011E+03  0.00000000000E+00 0.  1.
<mgrwt>
<rscale>  0 0.58851322E+03</rscale>
<asrwt>0</asrwt>
<pdfrwt beam="1">  1        2 0.22916676E+00 0.58851322E+03</pdfrwt>
<pdfrwt beam="2">  1       -2 0.40907473E-01 0.58851322E+03</pdfrwt>
<totfact> 0.75568908E+01</totfact>
</mgrwt>
</event>
<event>
12    1  0.1338445E-007  0.9189921E+03  0.7818608E-02  0.9402147E-01
          2   -1    0    0  501    0  0.00000000000E+00  0.00000000000E+00  0.16914695541E+04  0.16914695541E+04  0.00000000000E+00 0. -1.
         -2   -1    0    0    0  501 -0.00000000000E+00 -0.00000000000E+00 -0.61803933604E+03  0.61803933604E+03  0.00000000000E+00 0.  1.
         23    2    1    2    0    0  0.66828591867E+03 -0.62620567134E+03  0.68752507101E+03  0.11486181464E+04  0.88844308314E+02 0.  0.
    5000000    2    1    2    0    0 -0.66828591867E+03  0.62620567134E+03  0.38590514708E+03  0.11608907437E+04  0.60000410369E+03 0.  0.
         23    2    4    4    0    0 -0.44078775789E+03  0.44555635539E+03 -0.43387166081E+02  0.63458094179E+03  0.89421542021E+02 0.  0.
         23    2    4    4    0    0 -0.22749816079E+03  0.18064931595E+03  0.42929231316E+03  0.52630980195E+03  0.91216933579E+02 0.  0.
          4    1    3    3  502    0  0.51395483885E+03 -0.47687751050E+03  0.57150482424E+03  0.90453275260E+03  0.00000000000E+00 0. -1.
         -4    1    3    3    0  502  0.15433107982E+03 -0.14932816083E+03  0.11602024677E+03  0.24408539382E+03  0.00000000000E+00 0.  1.
         13    1    5    5    0    0 -0.97139283912E+02  0.76997894668E+02 -0.41327440199E+02  0.13066244134E+03  0.00000000000E+00 0.  1.
        -13    1    5    5    0    0 -0.34364847397E+03  0.36855846072E+03 -0.20597258824E+01  0.50391850046E+03  0.00000000000E+00 0. -1.
          1    1    6    6  503    0 -0.13097773695E+03  0.74102708393E+02  0.15159818298E+03  0.21360802431E+03  0.00000000000E+00 0. -1.
         -1    1    6    6    0  503 -0.96520423837E+02  0.10654660756E+03  0.27769413018E+03  0.31270177763E+03  0.00000000000E+00 0.  1.
<mgrwt>
<rscale>  0 0.91899210E+03</rscale>
<asrwt>0</asrwt>
<pdfrwt beam="1">  1        2 0.26022608E+00 0.91899210E+03</pdfrwt>
<pdfrwt beam="2">  1       -2 0.95082976E-01 0.91899210E+03</pdfrwt>
<totfact> 0.92808219E+00</totfact>
</mgrwt>
</event>
<event>
12    1  0.1338445E-007  0.3488362E+03  0.7818608E-02  0.1063094E+00
         -2   -1    0    0    0  501 -0.00000000000E+00  0.00000000000E+00  0.12855098764E+03  0.12855098764E+03  0.00000000000E+00 0.  1.
          2   -1    0    0  501    0  0.00000000000E+00 -0.00000000000E+00 -0.14761053642E+04  0.14761053642E+04  0.00000000000E+00 0. -1.
         23    2    1    2    0    0 -0.21200447904E+03  0.36281301339E+01 -0.43488812017E+03  0.49203873908E+03  0.89528661484E+02 0.  0.
    5000000    2    1    2    0    0  0.21200447904E+03 -0.36281301339E+01 -0.91266625637E+03  0.11126176127E+04  0.59999932850E+03 0.  0.
         23    2    4    4    0    0  0.33941047906E+02  0.18763858076E+03 -0.66004858693E+02  0.22171365177E+03  0.91869855174E+02 0.  0.
         23    2    4    4    0    0  0.17806343114E+03 -0.19126671089E+03 -0.84666139768E+03  0.89090396097E+03  0.92654223585E+02 0.  0.
          1    1    3    3  502    0 -0.33381756772E+02 -0.33061494516E+02 -0.73163899909E+02  0.86950332689E+02  0.00000000000E+00 0. -1.
         -1    1    3    3    0  502 -0.17862272227E+03  0.36689624650E+02 -0.36172422026E+03  0.40508840639E+03  0.00000000000E+00 0.  1.
         11    1    5    5    0    0 -0.53240518394E+01  0.63125717802E+02  0.18740270347E+02  0.66063601996E+02  0.00000000000E+00 0. -1.
        -11    1    5    5    0    0  0.39265099745E+02  0.12451286295E+03 -0.84745129040E+02  0.15565004978E+03  0.00000000000E+00 0.  1.
          3    1    6    6  503    0  0.10925518070E+03 -0.17059919226E+03 -0.56490909456E+03  0.60013587131E+03  0.00000000000E+00 0. -1.
         -3    1    6    6    0  503  0.68808250439E+02 -0.20667518630E+02 -0.28175230312E+03  0.29076808966E+03  0.00000000000E+00 0.  1.
<mgrwt>
<rscale>  0 0.34883618E+03</rscale>
<asrwt>0</asrwt>
<pdfrwt beam="1">  1        2 0.22709314E+00 0.34883618E+03</pdfrwt>
<pdfrwt beam="2">  1       -2 0.19777074E-01 0.34883618E+03</pdfrwt>
<totfact> 0.29967674E+02</totfact>
</mgrwt>
</event>
<event>
12    1  0.1338445E-007  0.7105896E+03  0.7818608E-02  0.9699292E-01
          1   -1    0    0  501    0  0.00000000000E+00  0.00000000000E+00  0.93479404729E+03  0.93479404729E+03  0.00000000000E+00 0. -1.
         -1   -1    0    0    0  501 -0.00000000000E+00 -0.00000000000E+00 -0.70426051888E+03  0.70426051888E+03  0.00000000000E+00 0.  1.
         23    2    1    2    0    0  0.23655220360E+03 -0.65401829750E+03  0.14691278162E+03  0.71673756707E+03  0.91828623796E+02 0.  0.
    5000000    2    1    2    0    0 -0.23655220360E+03  0.65401829750E+03  0.83620746798E+02  0.92231699910E+03  0.59998278228E+03 0.  0.
         23    2    4    4    0    0 -0.13860498480E+03  0.19781308427E+03 -0.23593137672E+03  0.34962274219E+03  0.90725350440E+02 0.  0.
         23    2    4    4    0    0 -0.97947218802E+02  0.45620521323E+03  0.31955212352E+03  0.57269425691E+03  0.90267923445E+02 0.  0.
          4    1    3    3  502    0  0.12159472500E+03 -0.36361253703E+03  0.35152108555E+02  0.38501301922E+03  0.00000000000E+00 0. -1.
         -4    1    3    3    0  502  0.11495747860E+03 -0.29040576047E+03  0.11176067306E+03  0.33172454785E+03  0.00000000000E+00 0.  1.
         13    1    5    5    0    0 -0.93699440831E+02  0.18810857071E+03 -0.17606203955E+03  0.27415736605E+03  0.00000000000E+00 0. -1.
        -13    1    5    5    0    0 -0.44905543967E+02  0.97045135600E+01 -0.59869337177E+02  0.75465376143E+02  0.00000000000E+00 0.  1.
          1    1    6    6  503    0 -0.77528249574E+02  0.42528404557E+03  0.26601194032E+03  0.50758201435E+03  0.00000000000E+00 0. -1.
         -1    1    6    6    0  503 -0.20418969227E+02  0.30921167654E+02  0.53540183205E+02  0.65112242559E+02  0.00000000000E+00 0.  1.
<mgrwt>
<rscale>  0 0.71058961E+03</rscale>
<asrwt>0</asrwt>
<pdfrwt beam="1">  1        1 0.14381447E+00 0.71058961E+03</pdfrwt>
<pdfrwt beam="2">  1       -1 0.10834777E+00 0.71058961E+03</pdfrwt>
<totfact> 0.13965959E+01</totfact>
</mgrwt>
</event>
<event>
12    1  0.1338445E-007  0.3418919E+03  0.7818608E-02  0.1065993E+00
         -1   -1    0    0    0  501 -0.00000000000E+00  0.00000000000E+00  0.13703930570E+03  0.13703930570E+03  0.00000000000E+00 0.  1.
          1   -1    0    0  501    0  0.00000000000E+00 -0.00000000000E+00 -0.20530729848E+04  0.20530729848E+04  0.00000000000E+00 0. -1.
         23    2    1    2    0    0  0.21479437124E+03  0.15488738208E+03 -0.17721593647E+03  0.33172208542E+03  0.92235192719E+02 0.  0.
    5000000    2    1    2    0    0 -0.21479437124E+03 -0.15488738208E+03 -0.17388177426E+04  0.18583902051E+04  0.60000024103E+03 0.  0.
         23    2    4    4    0    0 -0.61760758419E+02 -0.21521734508E+03 -0.20994164114E+03  0.31794637390E+03  0.82954849720E+02 0.  0.
         23    2    4    4    0    0 -0.15303361282E+03  0.60329962999E+02 -0.15288761015E+04  0.15404438312E+04  0.91902514782E+02 0.  0.
          4    1    3    3  502    0  0.47155523340E+01  0.13946107549E+02 -0.42780503812E+02  0.45242699477E+02  0.00000000000E+00 0. -1.
         -4    1    3    3    0  502  0.21007881890E+03  0.14094127453E+03 -0.13443543265E+03  0.28647938594E+03  0.00000000000E+00 0.  1.
         13    1    5    5    0    0 -0.59994632366E+02 -0.10137731713E+03 -0.68117190208E+02  0.13607596387E+03  0.00000000000E+00 0. -1.
        -13    1    5    5    0    0 -0.17661260530E+01 -0.11384002795E+03 -0.14182445093E+03  0.18187041003E+03  0.00000000000E+00 0.  1.
          3    1    6    6  503    0 -0.64862199307E+01  0.35141447111E+02 -0.44217533468E+03  0.44361697324E+03  0.00000000000E+00 0.  1.
         -3    1    6    6    0  503 -0.14654739289E+03  0.25188515887E+02 -0.10867007668E+04  0.10968268579E+04  0.00000000000E+00 0. -1.
<mgrwt>
<rscale>  0 0.34189185E+03</rscale>
<asrwt>0</asrwt>
<pdfrwt beam="1">  1        1 0.31585738E+00 0.34189185E+03</pdfrwt>
<pdfrwt beam="2">  1       -1 0.21082970E-01 0.34189185E+03</pdfrwt>
<totfact> 0.56881963E+01</totfact>
</mgrwt>
</event>
<event>
12    1  0.1338445E-007  0.1713671E+04  0.7818608E-02  0.8753606E-01
         -2   -1    0    0    0  501 -0.00000000000E+00  0.00000000000E+00  0.78445366321E+03  0.78445366321E+03  0.00000000000E+00 0.  1.
          2   -1    0    0  501    0  0.00000000000E+00 -0.00000000000E+00 -0.38941166513E+04  0.38941166513E+04  0.00000000000E+00 0. -1.
         23    2    1    2    0    0 -0.14917956816E+04 -0.77844016930E+03 -0.12365821833E+04  0.20901536279E+04  0.90461259412E+02 0.  0.
    5000000    2    1    2    0    0  0.14917956816E+04  0.77844016930E+03 -0.18730808048E+04  0.25884166866E+04  0.60003815622E+03 0.  0.
         23    2    4    4    0    0  0.52162798236E+02  0.14259676910E+03 -0.55799624312E+02  0.18280895130E+03  0.85151151061E+02 0.  0.
         23    2    4    4    0    0  0.14396328834E+04  0.63584340021E+03 -0.18172811805E+04  0.24056077352E+04  0.87166612377E+02 0.  0.
          1    1    3    3  502    0 -0.59535441937E+03 -0.36087586560E+03 -0.51275457854E+03  0.86463606960E+03  0.00000000000E+00 0. -1.
         -1    1    3    3    0  502 -0.89644126228E+03 -0.41756430370E+03 -0.72382760473E+03  0.12255175583E+04  0.00000000000E+00 0.  1.
         13    1    5    5    0    0  0.27270287026E+02  0.41427123538E+01 -0.28211544624E+02  0.39455314853E+02  0.00000000000E+00 0. -1.
        -13    1    5    5    0    0  0.24892511210E+02  0.13845405674E+03 -0.27588079688E+02  0.14335363645E+03  0.00000000000E+00 0.  1.
          4    1    6    6  503    0  0.11092287332E+04  0.47905795676E+03 -0.13395199674E+04  0.18039397583E+04  0.00000000000E+00 0.  1.
         -4    1    6    6    0  503  0.33040415023E+03  0.15678544345E+03 -0.47776121309E+03  0.60166797696E+03  0.00000000000E+00 0. -1.
<mgrwt>
<rscale>  0 0.17136705E+04</rscale>
<asrwt>0</asrwt>
<pdfrwt beam="1">  1        2 0.59909487E+00 0.17136705E+04</pdfrwt>
<pdfrwt beam="2">  1       -2 0.12068518E+00 0.17136705E+04</pdfrwt>
<totfact> 0.20428834E-01</totfact>
</mgrwt>
</event>
<event>
12    1  0.1338445E-007  0.4281495E+03  0.7818608E-02  0.1034446E+00
         -1   -1    0    0    0  501 -0.00000000000E+00  0.00000000000E+00  0.12003638970E+03  0.12003638970E+03  0.00000000000E+00 0.  1.
          1   -1    0    0  501    0  0.00000000000E+00 -0.00000000000E+00 -0.21158633439E+04  0.21158633439E+04  0.00000000000E+00 0. -1.
         23    2    1    2    0    0  0.22246271189E+03  0.12990362781E+02 -0.15129731772E+03  0.28351438834E+03  0.88493628798E+02 0.  0.
    5000000    2    1    2    0    0 -0.22246271189E+03 -0.12990362781E+02 -0.18445296364E+04  0.19523853452E+04  0.59988377943E+03 0.  0.
         23    2    4    4    0    0 -0.30220923088E+03  0.21272819328E+03 -0.10036731060E+04  0.10733741093E+04  0.90490725363E+02 0.  0.
         23    2    4    4    0    0  0.79746518994E+02 -0.22571855606E+03 -0.84085653047E+03  0.87901123594E+03  0.91173868172E+02 0.  0.
          1    1    3    3  502    0  0.11995568096E+03  0.42371794963E+02 -0.50803543158E+02  0.13698808123E+03  0.00000000000E+00 0. -1.
         -1    1    3    3    0  502  0.10250703093E+03 -0.29381432182E+02 -0.10049377456E+03  0.14652630710E+03  0.00000000000E+00 0.  1.
         11    1    5    5    0    0 -0.29021262433E+03  0.20515802969E+03 -0.99541530358E+03  0.10569601748E+04  0.00000000000E+00 0. -1.
        -11    1    5    5    0    0 -0.11996606555E+02  0.75701635871E+01 -0.82578023966E+01  0.16413934507E+02  0.00000000000E+00 0.  1.
          4    1    6    6  503    0  0.96280654377E+02 -0.20380238067E+03 -0.69639010227E+03  0.73195939048E+03  0.00000000000E+00 0. -1.
         -4    1    6    6    0  503 -0.16534135383E+02 -0.21916175387E+02 -0.14446642820E+03  0.14705184546E+03  0.00000000000E+00 0.  1.
<mgrwt>
<rscale>  0 0.42814951E+03</rscale>
<asrwt>0</asrwt>
<pdfrwt beam="1">  1        1 0.32551744E+00 0.42814951E+03</pdfrwt>
<pdfrwt beam="2">  1       -1 0.18467136E-01 0.42814951E+03</pdfrwt>
<totfact> 0.63040885E+01</totfact>
</mgrwt>
</event>
<event>
12    1  0.1338445E-007  0.1233994E+04  0.7818608E-02  0.9083611E-01
          2   -1    0    0  501    0  0.00000000000E+00  0.00000000000E+00  0.11998689577E+04  0.11998689577E+04  0.00000000000E+00 0. -1.
         -2   -1    0    0    0  501 -0.00000000000E+00 -0.00000000000E+00 -0.16585867743E+04  0.16585867743E+04  0.00000000000E+00 0.  1.
         23    2    1    2    0    0 -0.10015452627E+04 -0.66296503283E+03  0.39477995440E+03  0.12676181265E+04  0.91591234340E+02 0.  0.
    5000000    2    1    2    0    0  0.10015452627E+04  0.66296503283E+03 -0.85349777104E+03  0.15908376055E+04  0.59974185609E+03 0.  0.
         23    2    4    4    0    0  0.99568929602E+03  0.52735495779E+03 -0.86956835115E+03  0.14262552445E+04  0.92490429104E+02 0.  0.
         23    2    4    4    0    0  0.58559667136E+01  0.13561007505E+03  0.16070580111E+02  0.16458236102E+03  0.91677179345E+02 0.  0.
          2    1    3    3  502    0 -0.44953790951E+03 -0.26824170747E+03  0.13175169689E+03  0.53981149983E+03  0.00000000000E+00 0. -1.
         -2    1    3    3    0  502 -0.55200735322E+03 -0.39472332537E+03  0.26302825751E+03  0.72780662669E+03  0.00000000000E+00 0.  1.
         13    1    5    5    0    0  0.63661393443E+02  0.12727760267E+02 -0.37160898982E+02  0.74804420389E+02  0.00000000000E+00 0. -1.
        -13    1    5    5    0    0  0.93202790258E+03  0.51462719752E+03 -0.83240745217E+03  0.13514508241E+04  0.00000000000E+00 0.  1.
          3    1    6    6  503    0 -0.38582756962E+01  0.31457808372E+02  0.45926509916E+02  0.55800755479E+02  0.00000000000E+00 0. -1.
         -3    1    6    6    0  503  0.97142424098E+01  0.10415226667E+03 -0.29855929805E+02  0.10878160554E+03  0.00000000000E+00 0.  1.
<mgrwt>
<rscale>  0 0.12339941E+04</rscale>
<asrwt>0</asrwt>
<pdfrwt beam="1">  1        2 0.18459522E+00 0.12339941E+04</pdfrwt>
<pdfrwt beam="2">  1       -2 0.25516720E+00 0.12339941E+04</pdfrwt>
<totfact> 0.10968087E+00</totfact>
</mgrwt>
</event>
<event>
12    1  0.1338445E-007  0.6168537E+03  0.7818608E-02  0.9871044E-01
         -2   -1    0    0    0  501 -0.00000000000E+00  0.00000000000E+00  0.19838847958E+03  0.19838847958E+03  0.00000000000E+00 0. -1.
          2   -1    0    0  501    0  0.00000000000E+00 -0.00000000000E+00 -0.27066687760E+04  0.27066687760E+04  0.00000000000E+00 0.  1.
         23    2    1    2    0    0 -0.47693392686E+03 -0.18236817831E+03 -0.16959304606E+04  0.17734668031E+04  0.90995887530E+02 0.  0.
    5000000    2    1    2    0    0  0.47693392686E+03  0.18236817831E+03 -0.81234983580E+03  0.11315904524E+04  0.59988379981E+03 0.  0.
         23    2    4    4    0    0  0.74505946113E+01 -0.14719543133E+03 -0.65375005051E+02  0.18544310898E+03  0.91614676882E+02 0.  0.
         23    2    4    4    0    0  0.46948333225E+03  0.32956360963E+03 -0.74697483075E+03  0.94614734345E+03  0.90535217996E+02 0.  0.
          2    1    3    3  502    0 -0.17609568794E+03 -0.73576875338E+02 -0.49082989380E+03  0.52662817295E+03  0.00000000000E+00 0. -1.
         -2    1    3    3    0  502 -0.30083823892E+03 -0.10879130297E+03 -0.12051005668E+04  0.12468386302E+04  0.00000000000E+00 0.  1.
         13    1    5    5    0    0 -0.78126001767E+01 -0.56970391738E+02  0.19414179476E+02  0.60692442866E+02  0.00000000000E+00 0.  1.
        -13    1    5    5    0    0  0.15263194788E+02 -0.90225039589E+02 -0.84789184527E+02  0.12475066612E+03  0.00000000000E+00 0. -1.
          2    1    6    6  503    0  0.11288441668E+03  0.89620295744E+02 -0.25458572025E+03  0.29255525614E+03  0.00000000000E+00 0. -1.
         -2    1    6    6    0  503  0.35659891557E+03  0.23994331389E+03 -0.49238911050E+03  0.65359208732E+03  0.00000000000E+00 0.  1.
<mgrwt>
<rscale>  0 0.61685366E+03</rscale>
<asrwt>0</asrwt>
<pdfrwt beam="1">  1        2 0.41641057E+00 0.61685366E+03</pdfrwt>
<pdfrwt beam="2">  1       -2 0.30521306E-01 0.61685366E+03</pdfrwt>
<totfact> 0.28022833E+01</totfact>
</mgrwt>
</event>
<event>
12    1  0.1338445E-007  0.5240214E+03  0.7818608E-02  0.1007692E+00
          1   -1    0    0  501    0  0.00000000000E+00  0.00000000000E+00  0.56716605726E+03  0.56716605726E+03  0.00000000000E+00 0. -1.
         -1   -1    0    0    0  501 -0.00000000000E+00 -0.00000000000E+00 -0.73172250722E+03  0.73172250722E+03  0.00000000000E+00 0.  1.
         23    2    1    2    0    0  0.28931472652E+03  0.29741980795E+03 -0.34478879483E+03  0.54736214602E+03  0.92544328359E+02 0.  0.
    5000000    2    1    2    0    0 -0.28931472652E+03 -0.29741980795E+03  0.18023234487E+03  0.75152641847E+03  0.60012224286E+03 0.  0.
         23    2    4    4    0    0 -0.42996551843E+02  0.11513070164E+03 -0.10377164816E+03  0.18498927117E+03  0.91371185577E+02 0.  0.
         23    2    4    4    0    0 -0.24631817468E+03 -0.41255050959E+03  0.28400399303E+03  0.56653714730E+03  0.97136528001E+02 0.  0.
          2    1    3    3  502    0  0.20398959493E+03  0.14519729519E+03 -0.19437284979E+03  0.31697762398E+03  0.00000000000E+00 0. -1.
         -2    1    3    3    0  502  0.85325131595E+02  0.15222251276E+03 -0.15041594504E+03  0.23038452204E+03  0.00000000000E+00 0.  1.
         13    1    5    5    0    0  0.12564208012E+02  0.10624143803E+02 -0.54247299320E+02  0.56687752099E+02  0.00000000000E+00 0. -1.
        -13    1    5    5    0    0 -0.55560759856E+02  0.10450655784E+03 -0.49524348843E+02  0.12830151907E+03  0.00000000000E+00 0.  1.
          4    1    6    6  503    0 -0.15480435355E+03 -0.17431903856E+03  0.11092471217E+03  0.25817785895E+03  0.00000000000E+00 0.  1.
         -4    1    6    6    0  503 -0.91513821129E+02 -0.23823147103E+03  0.17307928087E+03  0.30835928835E+03  0.00000000000E+00 0. -1.
<mgrwt>
<rscale>  0 0.52402143E+03</rscale>
<asrwt>0</asrwt>
<pdfrwt beam="1">  1        1 0.87256317E-01 0.52402143E+03</pdfrwt>
<pdfrwt beam="2">  1       -1 0.11257269E+00 0.52402143E+03</pdfrwt>
<totfact> 0.28243875E+01</totfact>
</mgrwt>
</event>
<event>
12    1  0.1338445E-007  0.7206694E+03  0.7818608E-02  0.9682523E-01
          2   -1    0    0  501    0  0.00000000000E+00  0.00000000000E+00  0.13213081787E+04  0.13213081787E+04  0.00000000000E+00 0. -1.
         -2   -1    0    0    0  501 -0.00000000000E+00 -0.00000000000E+00 -0.47001012847E+03  0.47001012847E+03  0.00000000000E+00 0.  1.
         23    2    1    2    0    0 -0.40514642084E+03  0.50336190255E+03  0.56866738443E+03  0.86533491787E+03  0.88910621982E+02 0.  0.
    5000000    2    1    2    0    0  0.40514642084E+03 -0.50336190255E+03  0.28263066576E+03  0.92598338927E+03  0.60004026259E+03 0.  0.
         23    2    4    4    0    0  0.36765575156E+03 -0.10246435386E+03  0.32419401814E+03  0.51090295256E+03  0.10124411130E+03 0.  0.
         23    2    4    4    0    0  0.37490669286E+02 -0.40089754868E+03 -0.41563352381E+02  0.41508043671E+03  0.91868720773E+02 0.  0.
          4    1    3    3  502    0 -0.97773154534E+02  0.18252832151E+03  0.16027642286E+03  0.26184863877E+03  0.00000000000E+00 0. -1.
         -4    1    3    3    0  502 -0.30737326631E+03  0.32083358104E+03  0.40839096157E+03  0.60348627910E+03  0.00000000000E+00 0.  1.
         13    1    5    5    0    0  0.16635441141E+03 -0.19721457434E+02  0.19785685461E+03  0.25924903278E+03  0.00000000000E+00 0.  1.
        -13    1    5    5    0    0  0.20130134015E+03 -0.82742896428E+02  0.12633716352E+03  0.25165391978E+03  0.00000000000E+00 0. -1.
          3    1    6    6  503    0  0.44671410932E+02 -0.38165528336E+03 -0.58207817252E+02  0.38864436219E+03  0.00000000000E+00 0. -1.
         -3    1    6    6    0  503 -0.71807416464E+01 -0.19242265319E+02  0.16644464871E+02  0.26436074520E+02  0.00000000000E+00 0.  1.
<mgrwt>
<rscale>  0 0.72066936E+03</rscale>
<asrwt>0</asrwt>
<pdfrwt beam="1">  1        2 0.20327818E+00 0.72066936E+03</pdfrwt>
<pdfrwt beam="2">  1       -2 0.72309251E-01 0.72066936E+03</pdfrwt>
<totfact> 0.28474778E+01</totfact>
</mgrwt>
</event>
<event>
12    1  0.1338445E-007  0.4464682E+03  0.7818608E-02  0.1028781E+00
         -2   -1    0    0    0  501 -0.00000000000E+00  0.00000000000E+00  0.19158467517E+03  0.19158467517E+03  0.00000000000E+00 0. -1.
          2   -1    0    0  501    0  0.00000000000E+00 -0.00000000000E+00 -0.23133749703E+04  0.23133749703E+04  0.00000000000E+00 0.  1.
         23    2    1    2    0    0  0.24143976063E+03  0.29647956026E+03 -0.15283642747E+04  0.15780490931E+04  0.90267914792E+02 0.  0.
    5000000    2    1    2    0    0 -0.24143976063E+03 -0.29647956026E+03 -0.59342602040E+03  0.92691055232E+03  0.60067915117E+03 0.  0.
         23    2    4    4    0    0 -0.30389782158E+03 -0.26934885736E+03 -0.67242884214E+03  0.79047691583E+03  0.88263887359E+02 0.  0.
         23    2    4    4    0    0  0.62458060952E+02 -0.27130702905E+02  0.79002821733E+02  0.13643363649E+03  0.87952299034E+02 0.  0.
          1    1    3    3  502    0  0.42923127221E+02  0.95849422613E+01 -0.17300269310E+03  0.17850545591E+03  0.00000000000E+00 0. -1.
         -1    1    3    3    0  502  0.19851663341E+03  0.28689461800E+03 -0.13553615816E+04  0.13995436372E+04  0.00000000000E+00 0.  1.
         13    1    5    5    0    0 -0.24921384666E+03 -0.18000966345E+03 -0.54284356769E+03  0.62385107140E+03  0.00000000000E+00 0.  1.
        -13    1    5    5    0    0 -0.54683974923E+02 -0.89339193908E+02 -0.12958527444E+03  0.16662584444E+03  0.00000000000E+00 0. -1.
          1    1    6    6  503    0  0.97773028199E+01 -0.33445237705E+02 -0.68468393532E+01  0.35511389507E+02  0.00000000000E+00 0. -1.
         -1    1    6    6    0  503  0.52680758132E+02  0.63145347993E+01  0.85849661086E+02  0.10092224698E+03  0.00000000000E+00 0.  1.
<mgrwt>
<rscale>  0 0.44646817E+03</rscale>
<asrwt>0</asrwt>
<pdfrwt beam="1">  1        2 0.35590383E+00 0.44646817E+03</pdfrwt>
<pdfrwt beam="2">  1       -2 0.29474567E-01 0.44646817E+03</pdfrwt>
<totfact> 0.51454271E+01</totfact>
</mgrwt>
</event>
<event>
12    1  0.1338445E-007  0.5123253E+03  0.7818608E-02  0.1010611E+00
          2   -1    0    0  501    0  0.00000000000E+00  0.00000000000E+00  0.11844918248E+04  0.11844918248E+04  0.00000000000E+00 0. -1.
         -2   -1    0    0    0  501 -0.00000000000E+00 -0.00000000000E+00 -0.33787083607E+03  0.33787083607E+03  0.00000000000E+00 0.  1.
         23    2    1    2    0    0 -0.19046387260E+03 -0.33735812917E+03 -0.20956254200E+02  0.39862836993E+03  0.91533702235E+02 0.  0.
    5000000    2    1    2    0    0  0.19046387260E+03  0.33735812917E+03  0.86757724295E+03  0.11237342910E+04  0.60000124176E+03 0.  0.
         23    2    4    4    0    0  0.25120001927E+03 -0.26144876974E+02  0.13875317701E+03  0.30202035815E+03  0.90436985425E+02 0.  0.
         23    2    4    4    0    0 -0.60736146677E+02  0.36350300614E+03  0.72882406594E+03  0.82171393281E+03  0.90586716974E+02 0.  0.
          3    1    3    3  502    0 -0.64347118937E+02 -0.96469821604E+02 -0.47746665137E+02  0.12540622882E+03  0.00000000000E+00 0. -1.
         -3    1    3    3    0  502 -0.12611675366E+03 -0.24088830756E+03  0.26790410936E+02  0.27322214111E+03  0.00000000000E+00 0.  1.
         13    1    5    5    0    0  0.17005913458E+03  0.22376709809E+02  0.10758529033E+03  0.20247326019E+03  0.00000000000E+00 0.  1.
        -13    1    5    5    0    0  0.81140884692E+02 -0.48521586783E+02  0.31167886681E+02  0.99547097962E+02  0.00000000000E+00 0. -1.
          3    1    6    6  503    0  0.53140115691E+01  0.53046125742E+02  0.17985687390E+03  0.18759164498E+03  0.00000000000E+00 0. -1.
         -3    1    6    6    0  503 -0.66050158246E+02  0.31045688040E+03  0.54896719204E+03  0.63412228783E+03  0.00000000000E+00 0.  1.
<mgrwt>
<rscale>  0 0.51232525E+03</rscale>
<asrwt>0</asrwt>
<pdfrwt beam="1">  1        2 0.18222951E+00 0.51232525E+03</pdfrwt>
<pdfrwt beam="2">  1       -2 0.51980129E-01 0.51232525E+03</pdfrwt>
<totfact> 0.70481329E+01</totfact>
</mgrwt>
</event>
<event>
12    1  0.1338445E-007  0.1155675E+04  0.7818608E-02  0.9152564E-01
          1   -1    0    0  501    0  0.00000000000E+00  0.00000000000E+00  0.10811523811E+04  0.10811523811E+04  0.00000000000E+00 0. -1.
         -1   -1    0    0    0  501 -0.00000000000E+00 -0.00000000000E+00 -0.12941147107E+04  0.12941147107E+04  0.00000000000E+00 0.  1.
         23    2    1    2    0    0 -0.36656962027E+03  0.10419951755E+04 -0.75901656060E+02  0.11108661187E+04  0.90195565605E+02 0.  0.
    5000000    2    1    2    0    0  0.36656962027E+03 -0.10419951755E+04 -0.13706067349E+03  0.12644009731E+04  0.59983077634E+03 0.  0.
         23    2    4    4    0    0  0.43667358915E+03 -0.53877855825E+03  0.82977781411E+02  0.70462731595E+03  0.92995612224E+02 0.  0.
         23    2    4    4    0    0 -0.70103968877E+02 -0.50321661726E+03 -0.22003845490E+03  0.55977365714E+03  0.82389897736E+02 0.  0.
          1    1    3    3  502    0 -0.17557572892E+03  0.60032398100E+03 -0.13311966909E+02  0.62561404013E+03  0.00000000000E+00 0. -1.
         -1    1    3    3    0  502 -0.19099389135E+03  0.44167119452E+03 -0.62589689151E+02  0.48525207860E+03  0.00000000000E+00 0.  1.
         13    1    5    5    0    0  0.25899328186E+03 -0.26767990888E+03  0.77509767471E+02  0.38044423734E+03  0.00000000000E+00 0.  1.
        -13    1    5    5    0    0  0.17768030728E+03 -0.27109864936E+03  0.54680139401E+01  0.32418307861E+03  0.00000000000E+00 0. -1.
          3    1    6    6  503    0 -0.35881789402E+02 -0.25367823300E+03 -0.66136690018E+02  0.26460198502E+03  0.00000000000E+00 0. -1.
         -3    1    6    6    0  503 -0.34222179474E+02 -0.24953838427E+03 -0.15390176488E+03  0.29517167212E+03  0.00000000000E+00 0.  1.
<mgrwt>
<rscale>  0 0.11556751E+04</rscale>
<asrwt>0</asrwt>
<pdfrwt beam="1">  1        1 0.16633114E+00 0.11556751E+04</pdfrwt>
<pdfrwt beam="2">  1       -1 0.19909457E+00 0.11556751E+04</pdfrwt>
<totfact> 0.19715137E+00</totfact>
</mgrwt>
</event>
<event>
12    1  0.1338445E-007  0.6462174E+03  0.7818608E-02  0.9813903E-01
         -1   -1    0    0    0  501 -0.00000000000E+00  0.00000000000E+00  0.25616524720E+03  0.25616524720E+03  0.00000000000E+00 0.  1.
          1   -1    0    0  501    0  0.00000000000E+00 -0.00000000000E+00 -0.19297868342E+04  0.19297868342E+04  0.00000000000E+00 0. -1.
         23    2    1    2    0    0  0.52593383007E+03 -0.74419065984E+02 -0.36396462192E+03  0.65057492656E+03  0.92913390133E+02 0.  0.
    5000000    2    1    2    0    0 -0.52593383007E+03  0.74419065984E+02 -0.13096569651E+04  0.15353771549E+04  0.60003087457E+03 0.  0.
         23    2    4    4    0    0  0.93832050539E+02  0.45738770113E+01 -0.81296242238E+02  0.15471802768E+03  0.92212878856E+02 0.  0.
         23    2    4    4    0    0 -0.61976588061E+03  0.69845188973E+02 -0.12283607229E+04  0.13806591272E+04  0.91441034645E+02 0.  0.
          2    1    3    3  502    0  0.29514440785E+03 -0.80469389531E+02 -0.23787620736E+03  0.38751855977E+03  0.00000000000E+00 0. -1.
         -2    1    3    3    0  502  0.23078942222E+03  0.60503235471E+01 -0.12608841456E+03  0.26305636679E+03  0.00000000000E+00 0.  1.
         11    1    5    5    0    0  0.10934547619E+03  0.89586227939E+00 -0.84820298475E+02  0.13838973505E+03  0.00000000000E+00 0.  1.
        -11    1    5    5    0    0 -0.15513425653E+02  0.36780147319E+01  0.35240562367E+01  0.16328292630E+02  0.00000000000E+00 0. -1.
          2    1    6    6  503    0 -0.33099366902E+03 -0.86456485577E+01 -0.64627084751E+03  0.72615257660E+03  0.00000000000E+00 0. -1.
         -2    1    6    6    0  503 -0.28877221159E+03  0.78490837531E+02 -0.58208987538E+03  0.65450655060E+03  0.00000000000E+00 0.  1.
<mgrwt>
<rscale>  0 0.64621742E+03</rscale>
<asrwt>0</asrwt>
<pdfrwt beam="1">  1        1 0.29689028E+00 0.64621742E+03</pdfrwt>
<pdfrwt beam="2">  1       -1 0.39410038E-01 0.64621742E+03</pdfrwt>
<totfact> 0.21969145E+01</totfact>
</mgrwt>
</event>
<event>
12    1  0.1338445E-007  0.9546102E+03  0.7818608E-02  0.9359778E-01
          1   -1    0    0  501    0  0.00000000000E+00  0.00000000000E+00  0.29103619750E+04  0.29103619750E+04  0.00000000000E+00 0. -1.
         -1   -1    0    0    0  501 -0.00000000000E+00 -0.00000000000E+00 -0.37726441889E+03  0.37726441889E+03  0.00000000000E+00 0.  1.
         23    2    1    2    0    0 -0.60056515193E+03  0.71500562203E+03  0.15126822880E+04  0.17800315644E+04  0.91613997791E+02 0.  0.
    5000000    2    1    2    0    0  0.60056515193E+03 -0.71500562203E+03  0.10204152681E+04  0.15075948295E+04  0.59973603298E+03 0.  0.
         23    2    4    4    0    0  0.35143654554E+03 -0.60763307177E+03  0.37488379595E+03  0.80143450377E+03  0.95046346191E+02 0.  0.
         23    2    4    4    0    0  0.24912860639E+03 -0.10737255027E+03  0.64553147214E+03  0.70616032570E+03  0.91419893886E+02 0.  0.
          4    1    3    3  502    0 -0.52240628641E+03  0.63173332511E+03  0.13785133199E+04  0.16038373656E+04  0.00000000000E+00 0. -1.
         -4    1    3    3    0  502 -0.78158865521E+02  0.83272296924E+02  0.13416896814E+03  0.17619419885E+03  0.00000000000E+00 0.  1.
         11    1    5    5    0    0  0.20391035102E+03 -0.38004430819E+03  0.27945847257E+03  0.51391647700E+03  0.00000000000E+00 0.  1.
        -11    1    5    5    0    0  0.14752619452E+03 -0.22758876358E+03  0.95425323374E+02  0.28751802677E+03  0.00000000000E+00 0. -1.
          3    1    6    6  503    0  0.12095338447E+03 -0.36796271396E+02  0.19441312198E+03  0.23190547385E+03  0.00000000000E+00 0. -1.
         -3    1    6    6    0  503  0.12817522192E+03 -0.70576278870E+02  0.45111835016E+03  0.47425485185E+03  0.00000000000E+00 0.  1.
<mgrwt>
<rscale>  0 0.95461017E+03</rscale>
<asrwt>0</asrwt>
<pdfrwt beam="1">  1        1 0.44774798E+00 0.95461017E+03</pdfrwt>
<pdfrwt beam="2">  1       -1 0.58040682E-01 0.95461017E+03</pdfrwt>
<totfact> 0.21583659E+00</totfact>
</mgrwt>
</event>
<event>
12    1  0.1338445E-007  0.1130169E+04  0.7818608E-02  0.9176276E-01
         -2   -1    0    0    0  501 -0.00000000000E+00  0.00000000000E+00  0.95648897017E+03  0.95648897017E+03  0.00000000000E+00 0.  1.
          2   -1    0    0  501    0  0.00000000000E+00 -0.00000000000E+00 -0.14542342861E+04  0.14542342861E+04  0.00000000000E+00 0. -1.
         23    2    1    2    0    0 -0.51322243126E+03 -0.94723207619E+03 -0.84158317713E+00  0.10812911606E+04  0.92433735960E+02 0.  0.
    5000000    2    1    2    0    0  0.51322243126E+03  0.94723207619E+03 -0.49690373273E+03  0.13294320957E+04  0.59985873943E+03 0.  0.
         23    2    4    4    0    0  0.55478869737E+03  0.95009059877E+03 -0.53335189535E+03  0.12259563779E+04  0.89678044059E+02 0.  0.
         23    2    4    4    0    0 -0.41566266109E+02 -0.28585225720E+01  0.36448162624E+02  0.10347571779E+03  0.87423280560E+02 0.  0.
          1    1    3    3  502    0 -0.31581942473E+03 -0.63708838966E+03 -0.35958070691E+02  0.71198069364E+03  0.00000000000E+00 0. -1.
         -1    1    3    3    0  502 -0.19740300653E+03 -0.31014368654E+03  0.35116487513E+02  0.36931046693E+03  0.00000000000E+00 0.  1.
         13    1    5    5    0    0  0.46346034087E+03  0.82528392467E+03 -0.42770487083E+03  0.10386628425E+04  0.00000000000E+00 0.  1.
        -13    1    5    5    0    0  0.91328356503E+02  0.12480667410E+03 -0.10564702452E+03  0.18729353537E+03  0.00000000000E+00 0. -1.
          1    1    6    6  503    0 -0.49094023715E+02  0.22502944519E+02 -0.50724358522E+01  0.54243297116E+02  0.00000000000E+00 0. -1.
         -1    1    6    6    0  503  0.75277576055E+01 -0.25361467091E+02  0.41520598476E+02  0.49232420673E+02  0.00000000000E+00 0.  1.
<mgrwt>
<rscale>  0 0.11301686E+04</rscale>
<asrwt>0</asrwt>
<pdfrwt beam="1">  1        2 0.22372835E+00 0.11301686E+04</pdfrwt>
<pdfrwt beam="2">  1       -2 0.14715215E+00 0.11301686E+04</pdfrwt>
<totfact> 0.41578837E+00</totfact>
</mgrwt>
</event>
<event>
12    1  0.1338445E-007  0.7110428E+03  0.7818608E-02  0.9698532E-01
         -1   -1    0    0    0  501 -0.00000000000E+00  0.00000000000E+00  0.27416740888E+03  0.27416740888E+03  0.00000000000E+00 0. -1.
          1   -1    0    0  501    0  0.00000000000E+00 -0.00000000000E+00 -0.22636348476E+04  0.22636348476E+04  0.00000000000E+00 0.  1.
         23    2    1    2    0    0  0.42319958278E+03 -0.40505236541E+03 -0.13779057271E+04  0.14999256666E+04  0.89372852959E+02 0.  0.
    5000000    2    1    2    0    0 -0.42319958278E+03  0.40505236541E+03 -0.61156171162E+03  0.10378765899E+04  0.60001231921E+03 0.  0.
         23    2    4    4    0    0 -0.12228774079E+03 -0.14152169545E+03 -0.14990513274E+03  0.25614545120E+03  0.90312023081E+02 0.  0.
         23    2    4    4    0    0 -0.30091184199E+03  0.54657406086E+03 -0.46165657887E+03  0.78173113873E+03  0.93196758437E+02 0.  0.
          3    1    3    3  502    0  0.70897317291E+02 -0.37565019052E+02 -0.24737241518E+03  0.26005897801E+03  0.00000000000E+00 0. -1.
         -3    1    3    3    0  502  0.35230226549E+03 -0.36748734636E+03 -0.11305333119E+04  0.12398666886E+04  0.00000000000E+00 0.  1.
         13    1    5    5    0    0 -0.73912675108E+02 -0.27824253469E+02 -0.86977647700E+02  0.11748354703E+03  0.00000000000E+00 0. -1.
        -13    1    5    5    0    0 -0.48375065687E+02 -0.11369744198E+03 -0.62927485044E+02  0.13866190417E+03  0.00000000000E+00 0.  1.
          3    1    6    6  503    0 -0.12639449951E+03  0.14487038122E+03 -0.15698281081E+03  0.24820676814E+03  0.00000000000E+00 0. -1.
         -3    1    6    6    0  503 -0.17451734248E+03  0.40170367964E+03 -0.30467376806E+03  0.53352437058E+03  0.00000000000E+00 0.  1.
<mgrwt>
<rscale>  0 0.71104280E+03</rscale>
<asrwt>0</asrwt>
<pdfrwt beam="1">  1        1 0.34825153E+00 0.71104280E+03</pdfrwt>
<pdfrwt beam="2">  1       -1 0.42179600E-01 0.71104280E+03</pdfrwt>
<totfact> 0.11491901E+01</totfact>
</mgrwt>
</event>
<event>
12    1  0.1338445E-007  0.4723679E+03  0.7818608E-02  0.1021254E+00
         -2   -1    0    0    0  501 -0.00000000000E+00  0.00000000000E+00  0.23077312978E+03  0.23077312978E+03  0.00000000000E+00 0.  1.
          2   -1    0    0  501    0  0.00000000000E+00 -0.00000000000E+00 -0.12683986124E+04  0.12683986124E+04  0.00000000000E+00 0. -1.
         23    2    1    2    0    0 -0.29955639204E+03  0.14218142007E+03 -0.14628822384E+03  0.37442426752E+03  0.94040945615E+02 0.  0.
    5000000    2    1    2    0    0  0.29955639204E+03 -0.14218142007E+03 -0.89133725881E+03  0.11247474747E+04  0.60052076119E+03 0.  0.
         23    2    4    4    0    0  0.51011306981E+02  0.16793338969E+03 -0.57613256322E+03  0.60922968142E+03  0.91805759705E+02 0.  0.
         23    2    4    4    0    0  0.24854508506E+03 -0.31011480976E+03 -0.31520469559E+03  0.51551779325E+03  0.91971411288E+02 0.  0.
          1    1    3    3  502    0 -0.10683135681E+03  0.29268695115E+01 -0.47330797235E+02  0.11688331673E+03  0.00000000000E+00 0. -1.
         -1    1    3    3    0  502 -0.19272503523E+03  0.13925455056E+03 -0.98957426601E+02  0.25754095079E+03  0.00000000000E+00 0.  1.
         13    1    5    5    0    0  0.25843183572E+02  0.17079631842E+03 -0.50234069764E+03  0.53121128474E+03  0.00000000000E+00 0.  1.
        -13    1    5    5    0    0  0.25168123409E+02 -0.28629287260E+01 -0.73791865576E+02  0.78018396689E+02  0.00000000000E+00 0. -1.
          1    1    6    6  503    0  0.15729978683E+02 -0.20252619225E+01  0.17225096597E+01  0.15953086057E+02  0.00000000000E+00 0. -1.
         -1    1    6    6    0  503  0.23281510638E+03 -0.30808954784E+03 -0.31692720525E+03  0.49956470719E+03  0.00000000000E+00 0.  1.
<mgrwt>
<rscale>  0 0.47236788E+03</rscale>
<asrwt>0</asrwt>
<pdfrwt beam="1">  1        2 0.19513825E+00 0.47236788E+03</pdfrwt>
<pdfrwt beam="2">  1       -2 0.35503559E-01 0.47236788E+03</pdfrwt>
<totfact> 0.13394726E+02</totfact>
</mgrwt>
</event>
<event>
12    1  0.1338445E-007  0.6647031E+03  0.7818608E-02  0.9779574E-01
          2   -1    0    0  501    0  0.00000000000E+00  0.00000000000E+00  0.20324353570E+04  0.20324353570E+04  0.00000000000E+00 0. -1.
         -2   -1    0    0    0  501 -0.00000000000E+00 -0.00000000000E+00 -0.24141337337E+03  0.24141337337E+03  0.00000000000E+00 0.  1.
         23    2    1    2    0    0 -0.13632485406E+03 -0.52989760177E+03  0.48694256847E+03  0.73773232540E+03  0.88090775596E+02 0.  0.
    5000000    2    1    2    0    0  0.13632485406E+03  0.52989760177E+03  0.13040794151E+04  0.15361164050E+04  0.59971205955E+03 0.  0.
         23    2    4    4    0    0  0.19924984654E+03  0.62624417861E+03  0.10921090648E+04  0.12776921500E+04  0.88953629491E+02 0.  0.
         23    2    4    4    0    0 -0.62924992480E+02 -0.96346576835E+02  0.21197035034E+03  0.25842425494E+03  0.92787114251E+02 0.  0.
          1    1    3    3  502    0 -0.10187290656E+03 -0.40766214197E+03  0.32105117179E+03  0.52881033083E+03  0.00000000000E+00 0. -1.
         -1    1    3    3    0  502 -0.34451947501E+02 -0.12223545980E+03  0.16589139668E+03  0.20892199456E+03  0.00000000000E+00 0.  1.
         13    1    5    5    0    0  0.18108768926E+03  0.43967610493E+03  0.79772951653E+03  0.92869812641E+03  0.00000000000E+00 0. -1.
        -13    1    5    5    0    0  0.18162157275E+02  0.18656807368E+03  0.29437954828E+03  0.34899402361E+03  0.00000000000E+00 0.  1.
          1    1    6    6  503    0 -0.52497053663E+02 -0.95260307722E+02  0.21986633406E+03  0.24529914741E+03  0.00000000000E+00 0. -1.
         -1    1    6    6    0  503 -0.10427938817E+02 -0.10862691126E+01 -0.78959837199E+01  0.13125107522E+02  0.00000000000E+00 0.  1.
<mgrwt>
<rscale>  0 0.66470315E+03</rscale>
<asrwt>0</asrwt>
<pdfrwt beam="1">  1        2 0.31268235E+00 0.66470315E+03</pdfrwt>
<pdfrwt beam="2">  1       -2 0.37140520E-01 0.66470315E+03</pdfrwt>
<totfact> 0.45662890E+01</totfact>
</mgrwt>
</event>
<event>
12    1  0.1338445E-007  0.7479529E+03  0.7818608E-02  0.9638567E-01
          2   -1    0    0  501    0  0.00000000000E+00  0.00000000000E+00  0.34403159474E+04  0.34403159474E+04  0.00000000000E+00 0. -1.
         -2   -1    0    0    0  501 -0.00000000000E+00 -0.00000000000E+00 -0.21385746200E+03  0.21385746200E+03  0.00000000000E+00 0.  1.
         23    2    1    2    0    0  0.56076378705E+03 -0.43300463811E+03  0.19356720871E+04  0.20641905081E+04  0.11003173972E+03 0.  0.
    5000000    2    1    2    0    0 -0.56076378705E+03  0.43300463811E+03  0.12907863983E+04  0.15899829013E+04  0.59997254829E+03 0.  0.
         23    2    4    4    0    0 -0.56363039996E+03  0.34207781796E+03  0.13002677317E+04  0.14609285536E+04  0.94443651891E+02 0.  0.
         23    2    4    4    0    0  0.28666129091E+01  0.90926820152E+02 -0.94813333839E+01  0.12905434763E+03  0.91045180363E+02 0.  0.
          2    1    3    3  502    0  0.26235116565E+03 -0.17398390472E+03  0.71717093601E+03  0.78321943584E+03  0.00000000000E+00 0.  1.
         -2    1    3    3    0  502  0.29841262139E+03 -0.25902073339E+03  0.12185011511E+04  0.12809710723E+04  0.00000000000E+00 0. -1.
         11    1    5    5    0    0 -0.48384919125E+03  0.25660390847E+03  0.10330685579E+04  0.11692673993E+04  0.00000000000E+00 0. -1.
        -11    1    5    5    0    0 -0.79781208711E+02  0.85473909483E+02  0.26719917384E+03  0.29166115437E+03  0.00000000000E+00 0.  1.
          1    1    6    6  503    0 -0.38745713802E+02  0.42831469418E+02 -0.26011013684E+02  0.63343018111E+02  0.00000000000E+00 0. -1.
         -1    1    6    6    0  503  0.41612326711E+02  0.48095350734E+02  0.16529680300E+02  0.65711329520E+02  0.00000000000E+00 0.  1.
<mgrwt>
<rscale>  0 0.74795292E+03</rscale>
<asrwt>0</asrwt>
<pdfrwt beam="1">  1        2 0.52927934E+00 0.74795292E+03</pdfrwt>
<pdfrwt beam="2">  1       -2 0.32901151E-01 0.74795292E+03</pdfrwt>
<totfact> 0.83188941E+00</totfact>
</mgrwt>
</event>
<event>
12    1  0.1453334E-007  0.9253507E+03  0.7818608E-02  0.9394435E-01
          1   -1    0    0  501    0  0.00000000000E+00  0.00000000000E+00  0.20352768371E+04  0.20352768371E+04  0.00000000000E+00 0. -1.
         -1   -1    0    0    0  501 -0.00000000000E+00 -0.00000000000E+00 -0.51785434883E+03  0.51785434883E+03  0.00000000000E+00 0.  1.
         23    2    1    2    0    0 -0.67531607821E+03 -0.59133908831E+03  0.36312398585E+03  0.97250123610E+03  0.90365382052E+02 0.  0.
    5000000    2    1    2    0    0  0.67531607821E+03  0.59133908831E+03  0.11542985024E+04  0.15806299499E+04  0.60021019884E+03 0.  0.
         23    2    4    4    0    0  0.66002487667E+03  0.47525252397E+03  0.11755514613E+04  0.14324131616E+04  0.91588360763E+02 0.  0.
         23    2    4    4    0    0  0.15291201532E+02  0.11608656433E+03 -0.21252958876E+02  0.14821678830E+03  0.88355061022E+02 0.  0.
          3    1    3    3  502    0 -0.21722497295E+03 -0.19309897681E+03  0.16376776434E+03  0.33360723067E+03  0.00000000000E+00 0. -1.
         -3    1    3    3    0  502 -0.45809110526E+03 -0.39824011149E+03  0.19935622151E+03  0.63889400543E+03  0.00000000000E+00 0.  1.
         11    1    5    5    0    0  0.21753088452E+03  0.18246240755E+03  0.34446185800E+03  0.44639241426E+03  0.00000000000E+00 0. -1.
        -11    1    5    5    0    0  0.44249399216E+03  0.29279011642E+03  0.83108960331E+03  0.98602074730E+03  0.00000000000E+00 0.  1.
          4    1    6    6  503    0 -0.29190574701E+02  0.31282184858E+02 -0.29697848020E+02  0.52082885076E+02  0.00000000000E+00 0. -1.
         -4    1    6    6    0  503  0.44481776233E+02  0.84804379477E+02  0.84448891444E+01  0.96133903219E+02  0.00000000000E+00 0.  1.
<mgrwt>
<rscale>  0 0.92535066E+03</rscale>
<asrwt>0</asrwt>
<pdfrwt beam="1">  1        1 0.31311951E+00 0.92535066E+03</pdfrwt>
<pdfrwt beam="2">  1       -1 0.79669901E-01 0.92535066E+03</pdfrwt>
<totfact> 0.45363211E+00</totfact>
</mgrwt>
</event>
<event>
12    1  0.1338445E-007  0.7083485E+03  0.7818608E-02  0.9703061E-01
          2   -1    0    0  501    0  0.00000000000E+00  0.00000000000E+00  0.12756428190E+04  0.12756428190E+04  0.00000000000E+00 0. -1.
         -2   -1    0    0    0  501 -0.00000000000E+00 -0.00000000000E+00 -0.41982235911E+03  0.41982235911E+03  0.00000000000E+00 0.  1.
         23    2    1    2    0    0  0.53225215659E+03  0.23456720580E+03  0.55001026156E+03  0.80555324058E+03  0.89947781283E+02 0.  0.
    5000000    2    1    2    0    0 -0.53225215659E+03 -0.23456720580E+03  0.30581019835E+03  0.88991193754E+03  0.60009103221E+03 0.  0.
         23    2    4    4    0    0 -0.60929651404E+03 -0.31424296069E+03  0.25837973672E+03  0.73833438379E+03  0.91578892664E+02 0.  0.
         23    2    4    4    0    0  0.77044357446E+02  0.79675754892E+02  0.47430461629E+02  0.15157755375E+03  0.91880613726E+02 0.  0.
          3    1    3    3  502    0  0.50431515938E+03  0.23777002580E+03  0.50376844395E+03  0.75143263854E+03  0.00000000000E+00 0. -1.
         -3    1    3    3    0  502  0.27936997218E+02 -0.32028200020E+01  0.46241817608E+02  0.54120602040E+02  0.00000000000E+00 0.  1.
         13    1    5    5    0    0 -0.10978970206E+03 -0.84689924111E+02  0.23972631414E+02  0.14071548948E+03  0.00000000000E+00 0.  1.
        -13    1    5    5    0    0 -0.49950681198E+03 -0.22955303658E+03  0.23440710531E+03  0.59761889431E+03  0.00000000000E+00 0. -1.
          2    1    6    6  503    0  0.87750060390E+02  0.31420894643E+02  0.40656966426E+02  0.10168743599E+03  0.00000000000E+00 0.  1.
         -2    1    6    6    0  503 -0.10705702944E+02  0.48254860249E+02  0.67734952029E+01  0.49890117763E+02  0.00000000000E+00 0. -1.
<mgrwt>
<rscale>  0 0.70834847E+03</rscale>
<asrwt>0</asrwt>
<pdfrwt beam="1">  1        2 0.19625274E+00 0.70834847E+03</pdfrwt>
<pdfrwt beam="2">  1       -2 0.64588056E-01 0.70834847E+03</pdfrwt>
<totfact> 0.38707063E+01</totfact>
</mgrwt>
</event>
<event>
12    1  0.1338445E-007  0.2716333E+03  0.7818608E-02  0.1100348E+00
         -1   -1    0    0    0  501 -0.00000000000E+00  0.00000000000E+00  0.19333257657E+03  0.19333257657E+03  0.00000000000E+00 0.  1.
          1   -1    0    0  501    0  0.00000000000E+00 -0.00000000000E+00 -0.11167416452E+04  0.11167416452E+04  0.00000000000E+00 0. -1.
         23    2    1    2    0    0  0.17213846647E+03 -0.19021215283E+03 -0.33832440608E+03  0.43368511447E+03  0.88357569224E+02 0.  0.
    5000000    2    1    2    0    0 -0.17213846647E+03  0.19021215283E+03 -0.58508466257E+03  0.87638910733E+03  0.59993457171E+03 0.  0.
         23    2    4    4    0    0 -0.17110192728E+03  0.16282721097E+03  0.29299514991E+02  0.25476043069E+03  0.90861682315E+02 0.  0.
         23    2    4    4    0    0 -0.10365391925E+01  0.27384941859E+02 -0.61438417756E+03  0.62162867664E+03  0.90571985311E+02 0.  0.
          3    1    3    3  502    0  0.76591656879E+02 -0.26817825522E+02 -0.11813865857E+03  0.14332557454E+03  0.00000000000E+00 0. -1.
         -3    1    3    3    0  502  0.95546809596E+02 -0.16339432731E+03 -0.22018574751E+03  0.29035953993E+03  0.00000000000E+00 0.  1.
         13    1    5    5    0    0 -0.17326156779E+03  0.15499144782E+03  0.45274264645E+02  0.23683681895E+03  0.00000000000E+00 0. -1.
        -13    1    5    5    0    0  0.21596405083E+01  0.78357631531E+01 -0.15974749654E+02  0.17923611740E+02  0.00000000000E+00 0.  1.
          2    1    6    6  503    0 -0.89759431632E+01  0.12815209021E+02 -0.59835073691E+03  0.59855526186E+03  0.00000000000E+00 0. -1.
         -2    1    6    6    0  503  0.79394039707E+01  0.14569732838E+02 -0.16033440655E+02  0.23073414781E+02  0.00000000000E+00 0.  1.
<mgrwt>
<rscale>  0 0.27163326E+03</rscale>
<asrwt>0</asrwt>
<pdfrwt beam="1">  1        1 0.17180641E+00 0.27163326E+03</pdfrwt>
<pdfrwt beam="2">  1       -1 0.29743474E-01 0.27163326E+03</pdfrwt>
<totfact> 0.13755935E+02</totfact>
</mgrwt>
</event>
<event>
12    1  0.1338445E-007  0.8264054E+03  0.7818608E-02  0.9522564E-01
         -1   -1    0    0    0  501 -0.00000000000E+00  0.00000000000E+00  0.42735333268E+03  0.42735333268E+03  0.00000000000E+00 0.  1.
          1   -1    0    0  501    0  0.00000000000E+00 -0.00000000000E+00 -0.26078396802E+04  0.26078396802E+04  0.00000000000E+00 0. -1.
         23    2    1    2    0    0 -0.36563328478E+03  0.70840463205E+03 -0.21471079356E+03  0.83067283481E+03  0.91606833565E+02 0.  0.
    5000000    2    1    2    0    0  0.36563328478E+03 -0.70840463205E+03 -0.19657755539E+04  0.22045201780E+04  0.60009238063E+03 0.  0.
         23    2    4    4    0    0  0.26961981282E+02 -0.28418246570E+03 -0.13301958578E+04  0.13635663308E+04  0.91681492375E+02 0.  0.
         23    2    4    4    0    0  0.33867130350E+03 -0.42422216636E+03 -0.63557969611E+03  0.84095384725E+03  0.92623565367E+02 0.  0.
          1    1    3    3  502    0 -0.23148367440E+03  0.34873971675E+03 -0.11110289497E+03  0.43306804872E+03  0.00000000000E+00 0. -1.
         -1    1    3    3    0  502 -0.13414961038E+03  0.35966491531E+03 -0.10360789859E+03  0.39760478609E+03  0.00000000000E+00 0.  1.
         11    1    5    5    0    0  0.54065394335E+02 -0.25167799173E+03 -0.11530092796E+04  0.11813954787E+04  0.00000000000E+00 0. -1.
        -11    1    5    5    0    0 -0.27103413053E+02 -0.32504473973E+02 -0.17718657823E+03  0.18217085204E+03  0.00000000000E+00 0.  1.
          4    1    6    6  503    0  0.24775635618E+03 -0.36833759445E+03 -0.50802785669E+03  0.67464664728E+03  0.00000000000E+00 0. -1.
         -4    1    6    6    0  503  0.90914947323E+02 -0.55884571903E+02 -0.12755183942E+03  0.16630719998E+03  0.00000000000E+00 0.  1.
<mgrwt>
<rscale>  0 0.82640544E+03</rscale>
<asrwt>0</asrwt>
<pdfrwt beam="1">  1        1 0.40120611E+00 0.82640544E+03</pdfrwt>
<pdfrwt beam="2">  1       -1 0.65746666E-01 0.82640544E+03</pdfrwt>
<totfact> 0.28033829E+00</totfact>
</mgrwt>
</event>
<event>
12    1  0.1338445E-007  0.4928376E+03  0.7818608E-02  0.1015666E+00
          1   -1    0    0  501    0  0.00000000000E+00  0.00000000000E+00  0.18302763631E+04  0.18302763631E+04  0.00000000000E+00 0. -1.
         -1   -1    0    0    0  501 -0.00000000000E+00 -0.00000000000E+00 -0.20895274593E+03  0.20895274593E+03  0.00000000000E+00 0.  1.
         23    2    1    2    0    0 -0.36511745107E+03 -0.29245344477E+03  0.60844851235E+03  0.77242441769E+03  0.87121285768E+02 0.  0.
    5000000    2    1    2    0    0  0.36511745107E+03  0.29245344477E+03  0.10128751048E+04  0.12668046913E+04  0.60003198049E+03 0.  0.
         23    2    4    4    0    0  0.12328741756E+03  0.41152608770E+02 -0.31498901404E+02  0.16229616717E+03  0.91948575581E+02 0.  0.
         23    2    4    4    0    0  0.24183003350E+03  0.25130083600E+03  0.10443740062E+04  0.11045085241E+04  0.87109929443E+02 0.  0.
          2    1    3    3  502    0 -0.25432844597E+03 -0.17331504187E+03  0.45112341277E+03  0.54610749465E+03  0.00000000000E+00 0. -1.
         -2    1    3    3    0  502 -0.11078900509E+03 -0.11913840290E+03  0.15732509959E+03  0.22631692304E+03  0.00000000000E+00 0.  1.
         11    1    5    5    0    0  0.47553955301E+02  0.63757142980E+02 -0.23049728545E+02  0.82810880515E+02  0.00000000000E+00 0. -1.
        -11    1    5    5    0    0  0.75733462263E+02 -0.22604534210E+02 -0.84491728586E+01  0.79485286658E+02  0.00000000000E+00 0.  1.
          1    1    6    6  503    0  0.19282926657E+03  0.23712638225E+03  0.93797979653E+03  0.98651819339E+03  0.00000000000E+00 0. -1.
         -1    1    6    6    0  503  0.49000766934E+02  0.14174453754E+02  0.10639420967E+03  0.11799033075E+03  0.00000000000E+00 0.  1.
<mgrwt>
<rscale>  0 0.49283756E+03</rscale>
<asrwt>0</asrwt>
<pdfrwt beam="1">  1        1 0.28158097E+00 0.49283756E+03</pdfrwt>
<pdfrwt beam="2">  1       -1 0.32146578E-01 0.49283756E+03</pdfrwt>
<totfact> 0.37721618E+01</totfact>
</mgrwt>
</event>
<event>
12    1  0.1338445E-007  0.1002446E+04  0.7818608E-02  0.9305866E-01
         -2   -1    0    0    0  501 -0.00000000000E+00  0.00000000000E+00  0.54625170038E+03  0.54625170038E+03  0.00000000000E+00 0. -1.
          2   -1    0    0  501    0  0.00000000000E+00 -0.00000000000E+00 -0.19059387727E+04  0.19059387727E+04  0.00000000000E+00 0.  1.
         23    2    1    2    0    0 -0.73098635415E+03  0.57405035858E+03 -0.58922436280E+03  0.11041815636E+04  0.90314514250E+02 0.  0.
    5000000    2    1    2    0    0  0.73098635415E+03 -0.57405035858E+03 -0.77046270948E+03  0.13480089095E+04  0.59970023276E+03 0.  0.
         23    2    4    4    0    0  0.59541843991E+02  0.10011720751E+03 -0.77072511285E+02  0.16702977753E+03  0.91597424417E+02 0.  0.
         23    2    4    4    0    0  0.67144451016E+03 -0.67416756609E+03 -0.69339019819E+03  0.11809791319E+04  0.92639655283E+02 0.  0.
          3    1    3    3  502    0 -0.12090102174E+03  0.63696329859E+02 -0.63097631004E+02  0.15051774159E+03  0.00000000000E+00 0. -1.
         -3    1    3    3    0  502 -0.61008533241E+03  0.51035402872E+03 -0.52612673180E+03  0.95366382198E+03  0.00000000000E+00 0.  1.
         13    1    5    5    0    0  0.54268402381E+02  0.95523254293E+02 -0.22666770516E+02  0.11217635265E+03  0.00000000000E+00 0. -1.
        -13    1    5    5    0    0  0.52734416091E+01  0.45939532194E+01 -0.54405740769E+02  0.54853424882E+02  0.00000000000E+00 0.  1.
          1    1    6    6  503    0  0.39035983967E+01 -0.23386618432E+02 -0.18153824756E+02  0.29861904752E+02  0.00000000000E+00 0. -1.
         -1    1    6    6    0  503  0.66754091176E+03 -0.65078094766E+03 -0.67523637343E+03  0.11511172272E+04  0.00000000000E+00 0.  1.
<mgrwt>
<rscale>  0 0.10024463E+04</rscale>
<asrwt>0</asrwt>
<pdfrwt beam="1">  1        2 0.29322135E+00 0.10024463E+04</pdfrwt>
<pdfrwt beam="2">  1       -2 0.84038724E-01 0.10024463E+04</pdfrwt>
<totfact> 0.93216998E+00</totfact>
</mgrwt>
</event>
<event>
12    1  0.1338445E-007  0.6466943E+03  0.7818608E-02  0.9813002E-01
         -2   -1    0    0    0  501 -0.00000000000E+00  0.00000000000E+00  0.44312883343E+03  0.44312883343E+03  0.00000000000E+00 0.  1.
          2   -1    0    0  501    0  0.00000000000E+00 -0.00000000000E+00 -0.99187687711E+03  0.99187687711E+03  0.00000000000E+00 0. -1.
         23    2    1    2    0    0  0.25044359508E+03 -0.45759213492E+03 -0.18947333996E+03  0.56252147878E+03  0.91748085905E+02 0.  0.
    5000000    2    1    2    0    0 -0.25044359508E+03  0.45759213492E+03 -0.35927470372E+03  0.87248423176E+03  0.60003155390E+03 0.  0.
         23    2    4    4    0    0 -0.31938218162E+03  0.15476700027E+02 -0.86446691423E+02  0.34057068604E+03  0.79188733761E+02 0.  0.
         23    2    4    4    0    0  0.68938586534E+02  0.44211543490E+03 -0.27282801230E+03  0.53191354572E+03  0.90985214948E+02 0.  0.
          3    1    3    3  502    0  0.66689532457E+02 -0.73881061168E+02 -0.66371511791E+02  0.11962893678E+03  0.00000000000E+00 0. -1.
         -3    1    3    3    0  502  0.18375406263E+03 -0.38371107375E+03 -0.12310182817E+03  0.44289254199E+03  0.00000000000E+00 0.  1.
         13    1    5    5    0    0 -0.78549953644E+02  0.13217660868E+02 -0.56970535643E+02  0.97930810819E+02  0.00000000000E+00 0. -1.
        -13    1    5    5    0    0 -0.24083222797E+03  0.22590391588E+01 -0.29476155781E+02  0.24263987522E+03  0.00000000000E+00 0.  1.
          3    1    6    6  503    0  0.38597009514E+02  0.18228850799E+03 -0.63417358433E+02  0.19682629560E+03  0.00000000000E+00 0. -1.
         -3    1    6    6    0  503  0.30341577020E+02  0.25982692691E+03 -0.20941065387E+03  0.33508725012E+03  0.00000000000E+00 0.  1.
<mgrwt>
<rscale>  0 0.64669428E+03</rscale>
<asrwt>0</asrwt>
<pdfrwt beam="1">  1        2 0.15259644E+00 0.64669428E+03</pdfrwt>
<pdfrwt beam="2">  1       -2 0.68173667E-01 0.64669428E+03</pdfrwt>
<totfact> 0.51465273E+01</totfact>
</mgrwt>
</event>
<event>
12    1  0.1658944E-007  0.1070724E+04  0.7818608E-02  0.9234206E-01
          1   -1    0    0  501    0  0.00000000000E+00  0.00000000000E+00  0.24185567163E+04  0.24185567163E+04  0.00000000000E+00 0. -1.
         -1   -1    0    0    0  501 -0.00000000000E+00 -0.00000000000E+00 -0.52407407135E+03  0.52407407135E+03  0.00000000000E+00 0.  1.
         23    2    1    2    0    0  0.68668071244E+03 -0.78204522065E+03  0.77593133634E+03  0.13013131056E+04  0.90671010089E+02 0.  0.
    5000000    2    1    2    0    0 -0.68668071244E+03  0.78204522065E+03  0.11185513086E+04  0.16413176820E+04  0.59970123851E+03 0.  0.
         23    2    4    4    0    0 -0.48541974177E+03  0.72512603418E+03  0.56747595665E+03  0.10449116244E+04  0.91494536500E+02 0.  0.
         23    2    4    4    0    0 -0.20126097066E+03  0.56919186477E+02  0.55107535191E+03  0.59640605766E+03  0.90941574844E+02 0.  0.
          2    1    3    3  502    0  0.34855059115E+03 -0.39558103694E+03  0.44950055970E+03  0.69283665070E+03  0.00000000000E+00 0. -1.
         -2    1    3    3    0  502  0.33813012129E+03 -0.38646418371E+03  0.32643077664E+03  0.60847645489E+03  0.00000000000E+00 0.  1.
         13    1    5    5    0    0 -0.28695811063E+03  0.41186024627E+03  0.37862982122E+03  0.62875620174E+03  0.00000000000E+00 0. -1.
        -13    1    5    5    0    0 -0.19846163114E+03  0.31326578791E+03  0.18884613543E+03  0.41615542262E+03  0.00000000000E+00 0.  1.
          4    1    6    6  503    0 -0.14768103540E+03  0.81805756121E+02  0.39799670867E+03  0.43232308527E+03  0.00000000000E+00 0. -1.
         -4    1    6    6    0  503 -0.53579935265E+02 -0.24886569644E+02  0.15307864324E+03  0.16408297239E+03  0.00000000000E+00 0.  1.
<mgrwt>
<rscale>  0 0.10707236E+04</rscale>
<asrwt>0</asrwt>
<pdfrwt beam="1">  1        1 0.37208564E+00 0.10707236E+04</pdfrwt>
<pdfrwt beam="2">  1       -1 0.80626782E-01 0.10707236E+04</pdfrwt>
<totfact> 0.23841016E+00</totfact>
</mgrwt>
</event>
<event>
12    1  0.1338445E-007  0.1078204E+04  0.7818608E-02  0.9226700E-01
          1   -1    0    0  501    0  0.00000000000E+00  0.00000000000E+00  0.81293871699E+03  0.81293871699E+03  0.00000000000E+00 0. -1.
         -1   -1    0    0    0  501 -0.00000000000E+00 -0.00000000000E+00 -0.18365271252E+04  0.18365271252E+04  0.00000000000E+00 0.  1.
         23    2    1    2    0    0  0.10521373871E+04 -0.17157751697E+03 -0.25463782284E+02  0.10702188643E+04  0.91038934598E+02 0.  0.
    5000000    2    1    2    0    0 -0.10521373871E+04  0.17157751697E+03 -0.99812462589E+03  0.15792469779E+04  0.60111257067E+03 0.  0.
         23    2    4    4    0    0 -0.58532965933E+03  0.19087222533E+03 -0.20568271380E+03  0.65482191261E+03  0.86274805115E+02 0.  0.
         23    2    4    4    0    0 -0.46680772777E+03 -0.19294708358E+02 -0.79244191209E+03  0.92442506525E+03  0.91190880778E+02 0.  0.
          4    1    3    3  502    0  0.78217512476E+03 -0.15364047946E+03  0.11118294696E+02  0.79719943502E+03  0.00000000000E+00 0. -1.
         -4    1    3    3    0  502  0.26996226234E+03 -0.17937037511E+02 -0.36582076980E+02  0.27301942927E+03  0.00000000000E+00 0.  1.
         11    1    5    5    0    0 -0.18623848406E+03  0.77524897073E+02 -0.10709052605E+03  0.22839278312E+03  0.00000000000E+00 0. -1.
        -11    1    5    5    0    0 -0.39909117527E+03  0.11334732825E+03 -0.98592187744E+02  0.42642912949E+03  0.00000000000E+00 0.  1.
          1    1    6    6  503    0 -0.34218233629E+03  0.16124808637E+02 -0.51925983935E+03  0.62207679710E+03  0.00000000000E+00 0. -1.
         -1    1    6    6    0  503 -0.12462539148E+03 -0.35419516995E+02 -0.27318207274E+03  0.30234826815E+03  0.00000000000E+00 0.  1.
<mgrwt>
<rscale>  0 0.10782036E+04</rscale>
<asrwt>0</asrwt>
<pdfrwt beam="1">  1        1 0.12506750E+00 0.10782036E+04</pdfrwt>
<pdfrwt beam="2">  1       -1 0.28254263E+00 0.10782036E+04</pdfrwt>
<totfact> 0.92387684E-01</totfact>
</mgrwt>
</event>
<event>
12    1  0.1338445E-007  0.1191238E+04  0.7818608E-02  0.9120561E-01
          2   -1    0    0  501    0  0.00000000000E+00  0.00000000000E+00  0.21388626565E+04  0.21388626565E+04  0.00000000000E+00 0. -1.
         -2   -1    0    0    0  501 -0.00000000000E+00 -0.00000000000E+00 -0.92190276025E+03  0.92190276025E+03  0.00000000000E+00 0.  1.
         23    2    1    2    0    0 -0.90637900810E+03 -0.66508743594E+03 -0.21052571494E+03  0.11471908319E+04  0.88665237464E+02 0.  0.
    5000000    2    1    2    0    0  0.90637900810E+03  0.66508743594E+03  0.14274856112E+04  0.19135745849E+04  0.60015691113E+03 0.  0.
         23    2    4    4    0    0  0.39139731354E+03  0.61968924408E+03  0.95510607010E+03  0.12073986977E+04  0.91528104400E+02 0.  0.
         23    2    4    4    0    0  0.51498169455E+03  0.45398191855E+02  0.47237954111E+03  0.70617588715E+03  0.90965989145E+02 0.  0.
          2    1    3    3  502    0 -0.78569328285E+03 -0.60890013130E+03 -0.19730907513E+03  0.10134121451E+04  0.00000000000E+00 0. -1.
         -2    1    3    3    0  502 -0.12068572525E+03 -0.56187304637E+02 -0.13216639811E+02  0.13377868683E+03  0.00000000000E+00 0.  1.
         11    1    5    5    0    0  0.18565614509E+03  0.26503844196E+03  0.35218809982E+03  0.47827820104E+03  0.00000000000E+00 0.  1.
        -11    1    5    5    0    0  0.20574116845E+03  0.35465080212E+03  0.60291797028E+03  0.72912049671E+03  0.00000000000E+00 0. -1.
          3    1    6    6  503    0  0.40349441601E+03  0.61670952084E+01  0.33117694343E+03  0.52203825978E+03  0.00000000000E+00 0. -1.
         -3    1    6    6    0  503  0.11148727854E+03  0.39231096647E+02  0.14120259768E+03  0.18413762737E+03  0.00000000000E+00 0.  1.
<mgrwt>
<rscale>  0 0.11912379E+04</rscale>
<asrwt>0</asrwt>
<pdfrwt beam="1">  1        2 0.32905579E+00 0.11912379E+04</pdfrwt>
<pdfrwt beam="2">  1       -2 0.14183119E+00 0.11912379E+04</pdfrwt>
<totfact> 0.18937512E+00</totfact>
</mgrwt>
</event>
<event>
12    1  0.1338445E-007  0.5652305E+03  0.7818608E-02  0.9980289E-01
         -1   -1    0    0    0  501 -0.00000000000E+00  0.00000000000E+00  0.61551607312E+03  0.61551607312E+03  0.00000000000E+00 0.  1.
          1   -1    0    0  501    0  0.00000000000E+00 -0.00000000000E+00 -0.10200166484E+04  0.10200166484E+04  0.00000000000E+00 0. -1.
         23    2    1    2    0    0  0.50368301563E+03 -0.10299535056E+03 -0.62594090158E+03  0.81494910148E+03  0.89640410833E+02 0.  0.
    5000000    2    1    2    0    0 -0.50368301563E+03  0.10299535056E+03  0.22144032634E+03  0.82058362000E+03  0.60001419718E+03 0.  0.
         23    2    4    4    0    0 -0.22529652897E+03 -0.10926226586E+03  0.34662880803E+03  0.43712933838E+03  0.90740063934E+02 0.  0.
         23    2    4    4    0    0 -0.27838648666E+03  0.21225761643E+03 -0.12518848170E+03  0.38345428162E+03  0.93875973825E+02 0.  0.
          1    1    3    3  502    0  0.29522104523E+03 -0.65301731356E+02 -0.43497299568E+03  0.52973699950E+03  0.00000000000E+00 0. -1.
         -1    1    3    3    0  502  0.20846197040E+03 -0.37693619208E+02 -0.19096790590E+03  0.28521210198E+03  0.00000000000E+00 0.  1.
         11    1    5    5    0    0 -0.21441855500E+02  0.15809322998E+02  0.43539347990E+02  0.51042753495E+02  0.00000000000E+00 0.  1.
        -11    1    5    5    0    0 -0.20385467347E+03 -0.12507158886E+03  0.30308946004E+03  0.38608658488E+03  0.00000000000E+00 0. -1.
          2    1    6    6  503    0 -0.60887625980E+02  0.55139668776E+02 -0.73460839263E+02  0.11020063963E+03  0.00000000000E+00 0. -1.
         -2    1    6    6    0  503 -0.21749886068E+03  0.15711794765E+03 -0.51727642434E+02  0.27325364199E+03  0.00000000000E+00 0.  1.
<mgrwt>
<rscale>  0 0.56523052E+03</rscale>
<asrwt>0</asrwt>
<pdfrwt beam="1">  1        1 0.15692564E+00 0.56523052E+03</pdfrwt>
<pdfrwt beam="2">  1       -1 0.94694782E-01 0.56523052E+03</pdfrwt>
<totfact> 0.16665184E+01</totfact>
</mgrwt>
</event>
<event>
12    1  0.1346947E-007  0.7546661E+03  0.7818608E-02  0.9628058E-01
          2   -1    0    0  501    0  0.00000000000E+00  0.00000000000E+00  0.17184464858E+04  0.17184464858E+04  0.00000000000E+00 0. -1.
         -2   -1    0    0    0  501 -0.00000000000E+00 -0.00000000000E+00 -0.51348632880E+03  0.51348632880E+03  0.00000000000E+00 0.  1.
         23    2    1    2    0    0 -0.27572111829E+03  0.64153977733E+03 -0.13905603657E+02  0.70446457572E+03  0.92095340072E+02 0.  0.
    5000000    2    1    2    0    0  0.27572111829E+03 -0.64153977733E+03  0.12188657607E+04  0.15274682389E+04  0.59994171160E+03 0.  0.
         23    2    4    4    0    0  0.34109993495E+03 -0.32899866716E+03  0.34474982914E+03  0.59233115888E+03  0.86107307889E+02 0.  0.
         23    2    4    4    0    0 -0.65378816660E+02 -0.31254111016E+03  0.87411593153E+03  0.93513708000E+03  0.91904088267E+02 0.  0.
          2    1    3    3  502    0 -0.11252534403E+03  0.35949166859E+03 -0.32395361631E+02  0.37808156830E+03  0.00000000000E+00 0. -1.
         -2    1    3    3    0  502 -0.16319577427E+03  0.28204810874E+03  0.18489757975E+02  0.32638300742E+03  0.00000000000E+00 0.  1.
         13    1    5    5    0    0  0.13667262105E+03 -0.76830431168E+02  0.12143480096E+03  0.19831472810E+03  0.00000000000E+00 0. -1.
        -13    1    5    5    0    0  0.20442731391E+03 -0.25216823600E+03  0.22331502817E+03  0.39401643078E+03  0.00000000000E+00 0.  1.
          1    1    6    6  503    0  0.47944747477E+01 -0.12565579363E+03  0.24950335296E+03  0.27939987223E+03  0.00000000000E+00 0. -1.
         -1    1    6    6    0  503 -0.70173291408E+02 -0.18688531653E+03  0.62461257856E+03  0.65573720778E+03  0.00000000000E+00 0.  1.
<mgrwt>
<rscale>  0 0.75466613E+03</rscale>
<asrwt>0</asrwt>
<pdfrwt beam="1">  1        2 0.26437638E+00 0.75466613E+03</pdfrwt>
<pdfrwt beam="2">  1       -2 0.78997898E-01 0.75466613E+03</pdfrwt>
<totfact> 0.14001245E+01</totfact>
</mgrwt>
</event>
<event>
12    1  0.1400671E-007  0.9166979E+03  0.7818608E-02  0.9404946E-01
          1   -1    0    0  501    0  0.00000000000E+00  0.00000000000E+00  0.93848314258E+03  0.93848314258E+03  0.00000000000E+00 0. -1.
         -1   -1    0    0    0  501 -0.00000000000E+00 -0.00000000000E+00 -0.14334363314E+04  0.14334363314E+04  0.00000000000E+00 0.  1.
         23    2    1    2    0    0  0.79724780073E+03 -0.21236338410E+03  0.48097138937E+03  0.96010950295E+03  0.98866159946E+02 0.  0.
    5000000    2    1    2    0    0 -0.79724780073E+03  0.21236338410E+03 -0.97592457820E+03  0.14118099710E+04  0.60006362106E+03 0.  0.
         23    2    4    4    0    0 -0.97031252292E+02 -0.16275990734E+03 -0.28934235988E+03  0.35779567958E+03  0.91612748810E+02 0.  0.
         23    2    4    4    0    0 -0.70021654844E+03  0.37512329144E+03 -0.68658221832E+03  0.10540142915E+04  0.92359545333E+02 0.  0.
          3    1    3    3  502    0  0.43189651837E+03 -0.76934915155E+02  0.29258970450E+03  0.52731614704E+03  0.00000000000E+00 0. -1.
         -3    1    3    3    0  502  0.36535128236E+03 -0.13542846895E+03  0.18838168487E+03  0.43279335591E+03  0.00000000000E+00 0.  1.
         11    1    5    5    0    0  0.87700158228E+01 -0.67215075201E+02 -0.99185276306E+02  0.12013533430E+03  0.00000000000E+00 0. -1.
        -11    1    5    5    0    0 -0.10580126811E+03 -0.95544832135E+02 -0.19015708358E+03  0.23766034527E+03  0.00000000000E+00 0.  1.
          1    1    6    6  503    0 -0.54705545551E+03  0.28195886106E+03 -0.57869691784E+03  0.84478434730E+03  0.00000000000E+00 0. -1.
         -1    1    6    6    0  503 -0.15316109292E+03  0.93164430373E+02 -0.10788530049E+03  0.20922994416E+03  0.00000000000E+00 0.  1.
<mgrwt>
<rscale>  0 0.91669788E+03</rscale>
<asrwt>0</asrwt>
<pdfrwt beam="1">  1        1 0.14438202E+00 0.91669788E+03</pdfrwt>
<pdfrwt beam="2">  1       -1 0.22052867E+00 0.91669788E+03</pdfrwt>
<totfact> 0.18798957E+00</totfact>
</mgrwt>
</event>
<event>
12    1  0.1338445E-007  0.4614159E+03  0.7818608E-02  0.1024371E+00
          3   -1    0    0  501    0  0.00000000000E+00  0.00000000000E+00  0.66294318170E+03  0.66294318170E+03  0.00000000000E+00 0. -1.
         -3   -1    0    0    0  501 -0.00000000000E+00 -0.00000000000E+00 -0.45965842058E+03  0.45965842058E+03  0.00000000000E+00 0.  1.
         23    2    1    2    0    0  0.13807141670E+03  0.24825487284E+03 -0.18711882520E+03  0.35227689078E+03  0.91604339618E+02 0.  0.
    5000000    2    1    2    0    0 -0.13807141670E+03 -0.24825487284E+03  0.39040358632E+03  0.77032471149E+03  0.60024245345E+03 0.  0.
         23    2    4    4    0    0  0.13792962555E+03 -0.30920022365E+03  0.29512988241E+03  0.45818363626E+03  0.90560682066E+02 0.  0.
         23    2    4    4    0    0 -0.27600104224E+03  0.60945350811E+02  0.95273703911E+02  0.31214107523E+03  0.92000331989E+02 0.  0.
          2    1    3    3  502    0  0.80348602961E+02  0.18362346723E+03 -0.83321330592E+02  0.21706201843E+03  0.00000000000E+00 0. -1.
         -2    1    3    3    0  502  0.57722813738E+02  0.64631405611E+02 -0.10379749461E+03  0.13521487235E+03  0.00000000000E+00 0.  1.
         11    1    5    5    0    0  0.54326617574E+02 -0.62557331019E+02  0.34528264477E+02  0.89760804860E+02  0.00000000000E+00 0. -1.
        -11    1    5    5    0    0  0.83603007971E+02 -0.24664289263E+03  0.26060161793E+03  0.36842283140E+03  0.00000000000E+00 0.  1.
          3    1    6    6  503    0 -0.13878627670E+03  0.69037599998E+02  0.78242707793E+02  0.17363681100E+03  0.00000000000E+00 0. -1.
         -3    1    6    6    0  503 -0.13721476555E+03 -0.80922491870E+01  0.17030996118E+02  0.13850426423E+03  0.00000000000E+00 0.  1.
<mgrwt>
<rscale>  0 0.46141591E+03</rscale>
<asrwt>0</asrwt>
<pdfrwt beam="1">  1        3 0.10199126E+00 0.46141591E+03</pdfrwt>
<pdfrwt beam="2">  1       -3 0.70716680E-01 0.46141591E+03</pdfrwt>
<totfact> 0.41663304E+00</totfact>
</mgrwt>
</event>
<event>
12    1  0.1338445E-007  0.4895275E+03  0.7818608E-02  0.1016549E+00
         -1   -1    0    0    0  501 -0.00000000000E+00  0.00000000000E+00  0.12998774073E+03  0.12998774073E+03  0.00000000000E+00 0.  1.
          1   -1    0    0  501    0  0.00000000000E+00 -0.00000000000E+00 -0.20842671451E+04  0.20842671451E+04  0.00000000000E+00 0. -1.
         23    2    1    2    0    0  0.25908557981E+03  0.20554629878E+03 -0.76220420955E+03  0.83925764997E+03  0.11842097519E+03 0.  0.
    5000000    2    1    2    0    0 -0.25908557981E+03 -0.20554629878E+03 -0.11920751948E+04  0.13749972359E+04  0.60016623525E+03 0.  0.
         23    2    4    4    0    0 -0.16743092328E+03 -0.39342243006E+03 -0.61053298355E+03  0.75083279385E+03  0.90471198599E+02 0.  0.
         23    2    4    4    0    0 -0.91654656529E+02  0.18787613128E+03 -0.58154221127E+03  0.62416444202E+03  0.87703423054E+02 0.  0.
          1    1    3    3  502    0  0.19068862315E+03  0.17167015743E+03 -0.68139074550E+03  0.72809761846E+03  0.00000000000E+00 0. -1.
         -1    1    3    3    0  502  0.68396956661E+02  0.33876141350E+02 -0.80813464049E+02  0.11116003151E+03  0.00000000000E+00 0.  1.
         11    1    5    5    0    0 -0.33080233777E+02 -0.18949874138E+03 -0.28633485131E+03  0.34495176754E+03  0.00000000000E+00 0. -1.
        -11    1    5    5    0    0 -0.13435068951E+03 -0.20392368868E+03 -0.32419813223E+03  0.40588102631E+03  0.00000000000E+00 0.  1.
          4    1    6    6  503    0 -0.42321563012E+02  0.10387975331E+03 -0.42696530246E+03  0.44145383377E+03  0.00000000000E+00 0. -1.
         -4    1    6    6    0  503 -0.49333093517E+02  0.83996377968E+02 -0.15457690881E+03  0.18271060825E+03  0.00000000000E+00 0.  1.
<mgrwt>
<rscale>  0 0.48952750E+03</rscale>
<asrwt>0</asrwt>
<pdfrwt beam="1">  1        1 0.32065645E+00 0.48952750E+03</pdfrwt>
<pdfrwt beam="2">  1       -1 0.19998116E-01 0.48952750E+03</pdfrwt>
<totfact> 0.57347392E+01</totfact>
</mgrwt>
</event>
<event>
12    1  0.1338445E-007  0.1032265E+04  0.7818608E-02  0.9273848E-01
         -2   -1    0    0    0  501 -0.00000000000E+00  0.00000000000E+00  0.19548239486E+04  0.19548239486E+04  0.00000000000E+00 0.  1.
          2   -1    0    0  501    0  0.00000000000E+00 -0.00000000000E+00 -0.56105031850E+03  0.56105031850E+03  0.00000000000E+00 0. -1.
         23    2    1    2    0    0  0.94789156552E+03 -0.18130013503E+02  0.81626586618E+03  0.12539958785E+04  0.85956858635E+02 0.  0.
    5000000    2    1    2    0    0 -0.94789156552E+03  0.18130013503E+02  0.57750776387E+03  0.12618783886E+04  0.59999561073E+03 0.  0.
         23    2    4    4    0    0 -0.70231284034E+02  0.18776132984E+03  0.16014834098E+03  0.27154372516E+03  0.88891806796E+02 0.  0.
         23    2    4    4    0    0 -0.87766028148E+03 -0.16963131634E+03  0.41735942289E+03  0.99033466343E+03  0.86668936371E+02 0.  0.
          4    1    3    3  502    0  0.38422441924E+03 -0.45457378474E+02  0.30816297187E+03  0.49463036181E+03  0.00000000000E+00 0. -1.
         -4    1    3    3    0  502  0.56366714628E+03  0.27327364971E+02  0.50810289432E+03  0.75936551665E+03  0.00000000000E+00 0.  1.
         13    1    5    5    0    0 -0.91697633505E+02  0.15000357080E+03  0.13063173931E+03  0.21903008597E+03  0.00000000000E+00 0.  1.
        -13    1    5    5    0    0  0.21466349472E+02  0.37757759041E+02  0.29516601673E+02  0.52513639197E+02  0.00000000000E+00 0. -1.
          4    1    6    6  503    0 -0.27933965498E+03 -0.61768834369E+02  0.17803268188E+03  0.33695944498E+03  0.00000000000E+00 0.  1.
         -4    1    6    6    0  503 -0.59832062651E+03 -0.10786248197E+03  0.23932674100E+03  0.65337521845E+03  0.00000000000E+00 0. -1.
<mgrwt>
<rscale>  0 0.10322652E+04</rscale>
<asrwt>0</asrwt>
<pdfrwt beam="1">  1        2 0.86315435E-01 0.10322652E+04</pdfrwt>
<pdfrwt beam="2">  1       -2 0.30074214E+00 0.10322652E+04</pdfrwt>
<totfact> 0.16955966E+00</totfact>
</mgrwt>
</event>
<event>
12    1  0.1338445E-007  0.8029334E+03  0.7818608E-02  0.9555781E-01
         -1   -1    0    0    0  501 -0.00000000000E+00  0.00000000000E+00  0.51395611529E+03  0.51395611529E+03  0.00000000000E+00 0.  1.
          1   -1    0    0  501    0  0.00000000000E+00 -0.00000000000E+00 -0.15317057533E+04  0.15317057533E+04  0.00000000000E+00 0. -1.
         23    2    1    2    0    0 -0.77603652227E+03  0.85265502918E+01 -0.33337844431E+03  0.84952863263E+03  0.90842306082E+02 0.  0.
    5000000    2    1    2    0    0  0.77603652227E+03 -0.85265502918E+01 -0.68437119374E+03  0.11961332360E+04  0.60005449877E+03 0.  0.
         23    2    4    4    0    0  0.30800189275E+02 -0.23386220115E+02  0.77127416590E+02  0.12610496213E+03  0.91968778040E+02 0.  0.
         23    2    4    4    0    0  0.74523633299E+03  0.14859669823E+02 -0.76149861033E+03  0.10700282739E+04  0.97377469402E+02 0.  0.
          1    1    3    3  502    0 -0.24087409354E+03  0.44201108436E+02 -0.97179861051E+02  0.26347294419E+03  0.00000000000E+00 0. -1.
         -1    1    3    3    0  502 -0.53516242872E+03 -0.35674558144E+02 -0.23619858326E+03  0.58605568844E+03  0.00000000000E+00 0.  1.
         13    1    5    5    0    0 -0.83393212837E+01  0.17584245261E+02  0.65411535931E+02  0.68245285506E+02  0.00000000000E+00 0.  1.
        -13    1    5    5    0    0  0.39139510559E+02 -0.40970465375E+02  0.11715880659E+02  0.57859676628E+02  0.00000000000E+00 0. -1.
          2    1    6    6  503    0  0.26847820421E+03 -0.27388906427E+02 -0.22794396169E+03  0.35325507498E+03  0.00000000000E+00 0. -1.
         -2    1    6    6    0  503  0.47675812878E+03  0.42248576250E+02 -0.53355464864E+03  0.71677319889E+03  0.00000000000E+00 0.  1.
<mgrwt>
<rscale>  0 0.80293343E+03</rscale>
<asrwt>0</asrwt>
<pdfrwt beam="1">  1        1 0.23564704E+00 0.80293343E+03</pdfrwt>
<pdfrwt beam="2">  1       -1 0.79070172E-01 0.80293343E+03</pdfrwt>
<totfact> 0.10252676E+01</totfact>
</mgrwt>
</event>
<event>
12    1  0.1653720E-007  0.8112012E+03  0.7818608E-02  0.9543944E-01
          1   -1    0    0  501    0  0.00000000000E+00  0.00000000000E+00  0.16180461236E+04  0.16180461236E+04  0.00000000000E+00 0. -1.
         -1   -1    0    0    0  501 -0.00000000000E+00 -0.00000000000E+00 -0.50235594557E+03  0.50235594557E+03  0.00000000000E+00 0.  1.
         23    2    1    2    0    0 -0.26677435851E+03  0.72982769615E+03  0.71692304890E+03  0.10609048714E+04  0.87883239291E+02 0.  0.
    5000000    2    1    2    0    0  0.26677435851E+03 -0.72982769615E+03  0.39876712915E+03  0.10594971978E+04  0.59975166892E+03 0.  0.
         23    2    4    4    0    0 -0.45983417751E+02 -0.20910695011E+03  0.37967867552E+03  0.44486144400E+03  0.88913533411E+02 0.  0.
         23    2    4    4    0    0  0.31275777626E+03 -0.52072074604E+03  0.19088453626E+02  0.61463575377E+03  0.91897871486E+02 0.  0.
          3    1    3    3  502    0 -0.18574698302E+03  0.38120265496E+03  0.39440135638E+03  0.57911124645E+03  0.00000000000E+00 0. -1.
         -3    1    3    3    0  502 -0.81027375490E+02  0.34862504119E+03  0.32252169252E+03  0.48179362497E+03  0.00000000000E+00 0.  1.
         13    1    5    5    0    0 -0.55785212681E+02 -0.60078231620E+02  0.14871719851E+03  0.16981810563E+03  0.00000000000E+00 0. -1.
        -13    1    5    5    0    0  0.98017949301E+01 -0.14902871849E+03  0.23096147701E+03  0.27504333837E+03  0.00000000000E+00 0.  1.
          3    1    6    6  503    0  0.19802948773E+03 -0.28633152029E+03 -0.28752659117E+02  0.34932525378E+03  0.00000000000E+00 0. -1.
         -3    1    6    6    0  503  0.11472828853E+03 -0.23438922574E+03  0.47841112744E+02  0.26531049999E+03  0.00000000000E+00 0.  1.
<mgrwt>
<rscale>  0 0.81120119E+03</rscale>
<asrwt>0</asrwt>
<pdfrwt beam="1">  1        1 0.24893017E+00 0.81120119E+03</pdfrwt>
<pdfrwt beam="2">  1       -1 0.77285531E-01 0.81120119E+03</pdfrwt>
<totfact> 0.93861232E+00</totfact>
</mgrwt>
</event>
<event>
12    1  0.1338445E-007  0.2145813E+04  0.7818608E-02  0.8541326E-01
          2   -1    0    0  501    0  0.00000000000E+00  0.00000000000E+00  0.56219985288E+04  0.56219985288E+04  0.00000000000E+00 0. -1.
         -2   -1    0    0    0  501 -0.00000000000E+00 -0.00000000000E+00 -0.10150004971E+04  0.10150004971E+04  0.00000000000E+00 0.  1.
         23    2    1    2    0    0 -0.12145502056E+03 -0.21037730998E+04  0.37134096925E+04  0.42706576187E+04  0.92154077804E+02 0.  0.
    5000000    2    1    2    0    0  0.12145502056E+03  0.21037730998E+04  0.89358833922E+03  0.23663414072E+04  0.60038234292E+03 0.  0.
         23    2    4    4    0    0 -0.22179509964E+03  0.84949754396E+03  0.43954173424E+03  0.98603209058E+03  0.90681884059E+02 0.  0.
         23    2    4    4    0    0  0.34325012020E+03  0.12542755559E+04  0.45404660498E+03  0.13803093166E+04  0.89820236518E+02 0.  0.
          1    1    3    3  502    0 -0.70258288556E+02 -0.17891205367E+04  0.31528476107E+04  0.36257877183E+04  0.00000000000E+00 0. -1.
         -1    1    3    3    0  502 -0.51196732001E+02 -0.31465256312E+03  0.56056208180E+03  0.64486990036E+03  0.00000000000E+00 0.  1.
         13    1    5    5    0    0 -0.19511119882E+03  0.63537159580E+03  0.30124545953E+03  0.72973575460E+03  0.00000000000E+00 0.  1.
        -13    1    5    5    0    0 -0.26683900826E+02  0.21412594816E+03  0.13829627471E+03  0.25629633598E+03  0.00000000000E+00 0. -1.
          2    1    6    6  503    0  0.31079547625E+03  0.10489266113E+04  0.40618405693E+03  0.11669731582E+04  0.00000000000E+00 0. -1.
         -2    1    6    6    0  503  0.32454643951E+02  0.20534894463E+03  0.47862548052E+02  0.21333615840E+03  0.00000000000E+00 0.  1.
<mgrwt>
<rscale>  0 0.21458133E+04</rscale>
<asrwt>0</asrwt>
<pdfrwt beam="1">  1        2 0.86492283E+00 0.21458133E+04</pdfrwt>
<pdfrwt beam="2">  1       -2 0.15615393E+00 0.21458133E+04</pdfrwt>
<totfact> 0.84414712E-04</totfact>
</mgrwt>
</event>
<event>
12    1  0.1536926E-007  0.1031055E+04  0.7818608E-02  0.9275125E-01
          1   -1    0    0  501    0  0.00000000000E+00  0.00000000000E+00  0.81705722786E+03  0.81705722786E+03  0.00000000000E+00 0. -1.
         -1   -1    0    0    0  501 -0.00000000000E+00 -0.00000000000E+00 -0.16911618785E+04  0.16911618785E+04  0.00000000000E+00 0.  1.
         23    2    1    2    0    0 -0.70116231275E+03 -0.69547580695E+03 -0.91831055548E+03  0.13515764491E+04  0.90274218181E+02 0.  0.
    5000000    2    1    2    0    0  0.70116231275E+03  0.69547580695E+03  0.44205904875E+02  0.11566426573E+04  0.60046056300E+03 0.  0.
         23    2    4    4    0    0  0.16927175924E+03 -0.28533276815E+02 -0.13371209262E+03  0.23609379379E+03  0.91620300107E+02 0.  0.
         23    2    4    4    0    0  0.53189055351E+03  0.72400908376E+03  0.17791799749E+03  0.92054886348E+03  0.93052038884E+02 0.  0.
          4    1    3    3  502    0 -0.42271466429E+03 -0.40228943826E+03 -0.48358229145E+03  0.75787618524E+03  0.00000000000E+00 0. -1.
         -4    1    3    3    0  502 -0.27844764847E+03 -0.29318636868E+03 -0.43472826402E+03  0.59370026382E+03  0.00000000000E+00 0.  1.
         13    1    5    5    0    0  0.11209758986E+03 -0.23559019775E+02 -0.31379373908E+02  0.11876683953E+03  0.00000000000E+00 0. -1.
        -13    1    5    5    0    0  0.57174169383E+02 -0.49742570400E+01 -0.10233271871E+03  0.11732695426E+03  0.00000000000E+00 0.  1.
          1    1    6    6  503    0  0.35460459461E+03  0.41344256157E+03  0.87231588039E+02  0.55162353121E+03  0.00000000000E+00 0. -1.
         -1    1    6    6    0  503  0.17728595890E+03  0.31056652219E+03  0.90686409453E+02  0.36892533227E+03  0.00000000000E+00 0.  1.
<mgrwt>
<rscale>  0 0.10310552E+04</rscale>
<asrwt>0</asrwt>
<pdfrwt beam="1">  1        1 0.12570111E+00 0.10310552E+04</pdfrwt>
<pdfrwt beam="2">  1       -1 0.26017875E+00 0.10310552E+04</pdfrwt>
<totfact> 0.12848208E+00</totfact>
</mgrwt>
</event>
<event>
12    1  0.1338445E-007  0.4159989E+03  0.7818608E-02  0.1038376E+00
          2   -1    0    0  501    0  0.00000000000E+00  0.00000000000E+00  0.90251109968E+03  0.90251109968E+03  0.00000000000E+00 0. -1.
         -2   -1    0    0    0  501 -0.00000000000E+00 -0.00000000000E+00 -0.78437794256E+03  0.78437794256E+03  0.00000000000E+00 0.  1.
         23    2    1    2    0    0 -0.22106673657E+03  0.19804593956E+03 -0.61819488885E+03  0.69180049751E+03  0.91270540514E+02 0.  0.
    5000000    2    1    2    0    0  0.22106673657E+03 -0.19804593956E+03  0.73632804597E+03  0.99508854473E+03  0.59994126743E+03 0.  0.
         23    2    4    4    0    0 -0.12191833701E+03 -0.49997772658E+02  0.53923326604E+03  0.56283125116E+03  0.92965821195E+02 0.  0.
         23    2    4    4    0    0  0.34298507357E+03 -0.14804816690E+03  0.19709477994E+03  0.43225729357E+03  0.91885772289E+02 0.  0.
          1    1    3    3  502    0 -0.84134812467E+02  0.65786892042E+02 -0.13287391906E+03  0.17047598130E+03  0.00000000000E+00 0. -1.
         -1    1    3    3    0  502 -0.13693192410E+03  0.13225904751E+03 -0.48532096979E+03  0.52132451621E+03  0.00000000000E+00 0.  1.
         13    1    5    5    0    0 -0.87100723113E+02 -0.77700638240E+02  0.38408558799E+03  0.40142952563E+03  0.00000000000E+00 0.  1.
        -13    1    5    5    0    0 -0.34817613892E+02  0.27702865582E+02  0.15514767805E+03  0.16140172552E+03  0.00000000000E+00 0. -1.
          4    1    6    6  503    0  0.21203466180E+03 -0.88938591494E+02  0.17024202950E+03  0.28609634648E+03  0.00000000000E+00 0. -1.
         -4    1    6    6    0  503  0.13095041178E+03 -0.59109575404E+02  0.26852750443E+02  0.14616094709E+03  0.00000000000E+00 0.  1.
<mgrwt>
<rscale>  0 0.41599889E+03</rscale>
<asrwt>0</asrwt>
<pdfrwt beam="1">  1        2 0.13884786E+00 0.41599889E+03</pdfrwt>
<pdfrwt beam="2">  1       -2 0.12067353E+00 0.41599889E+03</pdfrwt>
<totfact> 0.16286861E+01</totfact>
</mgrwt>
</event>
<event>
12    1  0.1338445E-007  0.8259517E+03  0.7818608E-02  0.9523195E-01
         -1   -1    0    0    0  501 -0.00000000000E+00  0.00000000000E+00  0.45910162523E+03  0.45910162523E+03  0.00000000000E+00 0.  1.
          1   -1    0    0  501    0  0.00000000000E+00 -0.00000000000E+00 -0.38613561778E+04  0.38613561778E+04  0.00000000000E+00 0. -1.
         23    2    1    2    0    0 -0.64764214469E+03 -0.41657033017E+03  0.55116561869E+01  0.77563711535E+03  0.92797461125E+02 0.  0.
    5000000    2    1    2    0    0  0.64764214469E+03  0.41657033017E+03 -0.34077662088E+04  0.35448206877E+04  0.59992665116E+03 0.  0.
         23    2    4    4    0    0 -0.24577303423E+02 -0.46333777044E+02 -0.91371399108E+03  0.91898950672E+03  0.83172070074E+02 0.  0.
         23    2    4    4    0    0  0.67221944811E+03  0.46290410721E+03 -0.24940522177E+04  0.26258311810E+04  0.92378176669E+02 0.  0.
          3    1    3    3  502    0 -0.43796026166E+03 -0.33175191235E+03  0.51300585324E+01  0.54944957880E+03  0.00000000000E+00 0. -1.
         -3    1    3    3    0  502 -0.20968188303E+03 -0.84818417820E+02  0.38159765448E+00  0.22618753655E+03  0.00000000000E+00 0.  1.
         13    1    5    5    0    0 -0.19436230395E+02 -0.18902646754E+02 -0.83559703937E+03  0.83603677509E+03  0.00000000000E+00 0.  1.
        -13    1    5    5    0    0 -0.51410730282E+01 -0.27431130289E+02 -0.78116951707E+02  0.82952731629E+02  0.00000000000E+00 0. -1.
          1    1    6    6  503    0  0.12137119799E+03  0.12900432409E+03 -0.55713704386E+03  0.58461506051E+03  0.00000000000E+00 0. -1.
         -1    1    6    6    0  503  0.55084825012E+03  0.33389978313E+03 -0.19369151738E+04  0.20412161205E+04  0.00000000000E+00 0.  1.
<mgrwt>
<rscale>  0 0.82595172E+03</rscale>
<asrwt>0</asrwt>
<pdfrwt beam="1">  1        1 0.59405480E+00 0.82595172E+03</pdfrwt>
<pdfrwt beam="2">  1       -1 0.70631019E-01 0.82595172E+03</pdfrwt>
<totfact> 0.27916808E-01</totfact>
</mgrwt>
</event>
<event>
12    1  0.1338445E-007  0.6819117E+03  0.7818608E-02  0.9748676E-01
         -1   -1    0    0    0  501 -0.00000000000E+00  0.00000000000E+00  0.21212209600E+03  0.21212209600E+03  0.00000000000E+00 0.  1.
          1   -1    0    0  501    0  0.00000000000E+00 -0.00000000000E+00 -0.27962258489E+04  0.27962258489E+04  0.00000000000E+00 0. -1.
         23    2    1    2    0    0  0.42496397417E+03  0.37199092456E+03 -0.47338562229E+03  0.74248443526E+03  0.90650768997E+02 0.  0.
    5000000    2    1    2    0    0 -0.42496397417E+03 -0.37199092456E+03 -0.21107181306E+04  0.22658635097E+04  0.60002899111E+03 0.  0.
         23    2    4    4    0    0  0.89212769121E+02 -0.23846316959E+03 -0.51795962133E+03  0.58427836092E+03  0.90969403051E+02 0.  0.
         23    2    4    4    0    0 -0.51417674329E+03 -0.13352775497E+03 -0.15927585093E+04  0.16815851487E+04  0.92959985108E+02 0.  0.
          4    1    3    3  502    0  0.33914490687E+03  0.33444887704E+03 -0.37130579027E+03  0.60393982242E+03  0.00000000000E+00 0. -1.
         -4    1    3    3    0  502  0.85819067299E+02  0.37542047518E+02 -0.10207983202E+03  0.13854461285E+03  0.00000000000E+00 0.  1.
         11    1    5    5    0    0  0.40485423062E+02 -0.10602100567E+03 -0.13628746757E+03  0.17735218336E+03  0.00000000000E+00 0.  1.
        -11    1    5    5    0    0  0.48727346059E+02 -0.13244216392E+03 -0.38167215375E+03  0.40692617756E+03  0.00000000000E+00 0. -1.
          1    1    6    6  503    0 -0.17501954182E+03 -0.79069241563E+00 -0.53025304961E+03  0.55839122650E+03  0.00000000000E+00 0. -1.
         -1    1    6    6    0  503 -0.33915720147E+03 -0.13273706255E+03 -0.10625054597E+04  0.11231939222E+04  0.00000000000E+00 0.  1.
<mgrwt>
<rscale>  0 0.68191173E+03</rscale>
<asrwt>0</asrwt>
<pdfrwt beam="1">  1        1 0.43018858E+00 0.68191173E+03</pdfrwt>
<pdfrwt beam="2">  1       -1 0.32634170E-01 0.68191173E+03</pdfrwt>
<totfact> 0.79155123E+00</totfact>
</mgrwt>
</event>
<event>
12    1  0.1338445E-007  0.2113970E+04  0.7818608E-02  0.8555114E-01
         -2   -1    0    0    0  501 -0.00000000000E+00  0.00000000000E+00  0.15898318585E+04  0.15898318585E+04  0.00000000000E+00 0.  1.
          2   -1    0    0  501    0  0.00000000000E+00 -0.00000000000E+00 -0.35988891788E+04  0.35988891788E+04  0.00000000000E+00 0. -1.
         23    2    1    2    0    0 -0.97638307528E+03  0.18719427663E+04 -0.21169856732E+04  0.29911799312E+04  0.89640450291E+02 0.  0.
    5000000    2    1    2    0    0  0.97638307528E+03 -0.18719427663E+04  0.10792835298E+03  0.21975411061E+04  0.60003729346E+03 0.  0.
         23    2    4    4    0    0  0.40546274092E+03 -0.73241464502E+03  0.32256846005E+03  0.90175448772E+03  0.90991747852E+02 0.  0.
         23    2    4    4    0    0  0.57092033435E+03 -0.11395281213E+04 -0.21464010707E+03  0.12957866184E+04  0.92294189452E+02 0.  0.
          1    1    3    3  502    0 -0.25474669726E+03  0.56825932749E+03 -0.59934709541E+03  0.86430983092E+03  0.00000000000E+00 0.  1.
         -1    1    3    3    0  502 -0.72163637802E+03  0.13036834388E+04 -0.15176385778E+04  0.21268701003E+04  0.00000000000E+00 0. -1.
         13    1    5    5    0    0  0.34909188705E+03 -0.59632768253E+03  0.23230323463E+03  0.72899701191E+03  0.00000000000E+00 0. -1.
        -13    1    5    5    0    0  0.56370853872E+02 -0.13608696250E+03  0.90265225415E+02  0.17275747581E+03  0.00000000000E+00 0.  1.
          1    1    6    6  503    0  0.31342090897E+03 -0.54071055582E+03 -0.13157924121E+03  0.63868119439E+03  0.00000000000E+00 0. -1.
         -1    1    6    6    0  503  0.25749942539E+03 -0.59881756545E+03 -0.83060865855E+02  0.65710542396E+03  0.00000000000E+00 0.  1.
<mgrwt>
<rscale>  0 0.21139700E+04</rscale>
<asrwt>0</asrwt>
<pdfrwt beam="1">  1        2 0.55367525E+00 0.21139700E+04</pdfrwt>
<pdfrwt beam="2">  1       -2 0.24458952E+00 0.21139700E+04</pdfrwt>
<totfact> 0.42157232E-02</totfact>
</mgrwt>
</event>
<event>
12    1  0.1338445E-007  0.5778463E+03  0.7818608E-02  0.9952465E-01
          1   -1    0    0  501    0  0.00000000000E+00  0.00000000000E+00  0.20584861345E+04  0.20584861345E+04  0.00000000000E+00 0. -1.
         -1   -1    0    0    0  501 -0.00000000000E+00 -0.00000000000E+00 -0.27328489317E+03  0.27328489317E+03  0.00000000000E+00 0.  1.
         23    2    1    2    0    0 -0.49785836899E+03 -0.36311500461E+02  0.13410927006E+04  0.14338227928E+04  0.90203596577E+02 0.  0.
    5000000    2    1    2    0    0  0.49785836899E+03  0.36311500461E+02  0.44410854064E+03  0.89794823482E+03  0.59991429047E+03 0.  0.
         23    2    4    4    0    0  0.26352716899E+03  0.22299051247E+03  0.46253721646E+03  0.58441193894E+03  0.91789434671E+02 0.  0.
         23    2    4    4    0    0  0.23433119999E+03 -0.18667901201E+03 -0.18428675815E+02  0.31353629588E+03  0.90582713191E+02 0.  0.
          2    1    3    3  502    0 -0.35436548426E+03 -0.20197770566E+02  0.82963469511E+03  0.90237274654E+03  0.00000000000E+00 0. -1.
         -2    1    3    3    0  502 -0.14349288473E+03 -0.16113729895E+02  0.51145800553E+03  0.53145004627E+03  0.00000000000E+00 0.  1.
         11    1    5    5    0    0  0.17029884259E+03  0.12801102859E+03  0.35178788215E+03  0.41127026790E+03  0.00000000000E+00 0. -1.
        -11    1    5    5    0    0  0.93228326402E+02  0.94979483875E+02  0.11074933430E+03  0.17314167104E+03  0.00000000000E+00 0.  1.
          3    1    6    6  503    0  0.13173366695E+03 -0.53683563975E+02  0.12282460620E+02  0.14278145149E+03  0.00000000000E+00 0. -1.
         -3    1    6    6    0  503  0.10259753304E+03 -0.13299544803E+03 -0.30711136435E+02  0.17075484439E+03  0.00000000000E+00 0.  1.
<mgrwt>
<rscale>  0 0.57784629E+03</rscale>
<asrwt>0</asrwt>
<pdfrwt beam="1">  1        1 0.31669016E+00 0.57784629E+03</pdfrwt>
<pdfrwt beam="2">  1       -1 0.42043831E-01 0.57784629E+03</pdfrwt>
<totfact> 0.16232353E+01</totfact>
</mgrwt>
</event>
<event>
12    1  0.1338445E-007  0.9051969E+03  0.7818608E-02  0.9419108E-01
          2   -1    0    0  501    0  0.00000000000E+00  0.00000000000E+00  0.24523715332E+04  0.24523715332E+04  0.00000000000E+00 0. -1.
         -2   -1    0    0    0  501 -0.00000000000E+00 -0.00000000000E+00 -0.38310844122E+03  0.38310844122E+03  0.00000000000E+00 0.  1.
         23    2    1    2    0    0 -0.84812504960E+03 -0.16877643962E+03  0.11233817597E+04  0.14203334480E+04  0.86942159641E+02 0.  0.
    5000000    2    1    2    0    0  0.84812504960E+03  0.16877643962E+03  0.94588133225E+03  0.14151465264E+04  0.60012216271E+03 0.  0.
         23    2    4    4    0    0 -0.17691475524E+02  0.17901551135E+02 -0.28766657280E+02  0.99347942075E+02  0.91700813433E+02 0.  0.
         23    2    4    4    0    0  0.86581652513E+03  0.15087488849E+03  0.97464798953E+03  0.13157985843E+04  0.94793058214E+02 0.  0.
          1    1    3    3  502    0 -0.65042608989E+03 -0.91900896514E+02  0.83944972534E+03  0.10659154350E+04  0.00000000000E+00 0. -1.
         -1    1    3    3    0  502 -0.19769895971E+03 -0.76875543108E+02  0.28393203440E+03  0.35441801303E+03  0.00000000000E+00 0.  1.
         13    1    5    5    0    0 -0.38336590608E+02  0.70638071734E+01  0.21080563821E+02  0.44316833396E+02  0.00000000000E+00 0. -1.
        -13    1    5    5    0    0  0.20645115084E+02  0.10837743962E+02 -0.49847221101E+02  0.55031108680E+02  0.00000000000E+00 0.  1.
          2    1    6    6  503    0  0.47180436546E+03  0.92265180247E+02  0.46381674957E+03  0.66801062861E+03  0.00000000000E+00 0. -1.
         -2    1    6    6    0  503  0.39401215967E+03  0.58609708241E+02  0.51083123996E+03  0.64778795573E+03  0.00000000000E+00 0.  1.
<mgrwt>
<rscale>  0 0.90519685E+03</rscale>
<asrwt>0</asrwt>
<pdfrwt beam="1">  1        2 0.37728792E+00 0.90519685E+03</pdfrwt>
<pdfrwt beam="2">  1       -2 0.58939762E-01 0.90519685E+03</pdfrwt>
<totfact> 0.10207028E+01</totfact>
</mgrwt>
</event>
<event>
12    1  0.1338445E-007  0.8147589E+03  0.7818608E-02  0.9538896E-01
         -2   -1    0    0    0  501 -0.00000000000E+00  0.00000000000E+00  0.31193239145E+03  0.31193239145E+03  0.00000000000E+00 0. -1.
          2   -1    0    0  501    0  0.00000000000E+00 -0.00000000000E+00 -0.26251554386E+04  0.26251554386E+04  0.00000000000E+00 0.  1.
         23    2    1    2    0    0  0.67719598026E+03 -0.26211937907E+03 -0.15877272987E+04  0.17482250753E+04  0.90066499536E+02 0.  0.
    5000000    2    1    2    0    0 -0.67719598026E+03  0.26211937907E+03 -0.72549574844E+03  0.11888627547E+04  0.59979130038E+03 0.  0.
         23    2    4    4    0    0 -0.23459721610E+03  0.36289305907E+03 -0.19087375817E+03  0.48165781342E+03  0.93990592828E+02 0.  0.
         23    2    4    4    0    0 -0.44259876415E+03 -0.10077368000E+03 -0.53462199027E+03  0.70720494131E+03  0.90934899387E+02 0.  0.
          2    1    3    3  502    0  0.48982337129E+03 -0.15781816455E+03 -0.11861724516E+04  0.12929959756E+04  0.00000000000E+00 0.  1.
         -2    1    3    3    0  502  0.18737260896E+03 -0.10430121453E+03 -0.40155484709E+03  0.45522909965E+03  0.00000000000E+00 0. -1.
         13    1    5    5    0    0 -0.77060340028E+02  0.18410301487E+03 -0.12073005310E+03  0.23325514316E+03  0.00000000000E+00 0. -1.
        -13    1    5    5    0    0 -0.15753687607E+03  0.17879004421E+03 -0.70143705075E+02  0.24840267026E+03  0.00000000000E+00 0.  1.
          1    1    6    6  503    0 -0.32524768467E+03 -0.32638406960E+02 -0.36479833038E+03  0.48982562596E+03  0.00000000000E+00 0. -1.
         -1    1    6    6    0  503 -0.11735107948E+03 -0.68135273038E+02 -0.16982365989E+03  0.21737931536E+03  0.00000000000E+00 0.  1.
<mgrwt>
<rscale>  0 0.81475894E+03</rscale>
<asrwt>0</asrwt>
<pdfrwt beam="1">  1        2 0.40387004E+00 0.81475894E+03</pdfrwt>
<pdfrwt beam="2">  1       -2 0.47989602E-01 0.81475894E+03</pdfrwt>
<totfact> 0.12589802E+01</totfact>
</mgrwt>
</event>
<event>
12    1  0.1338445E-007  0.3850296E+03  0.7818608E-02  0.1049090E+00
          1   -1    0    0  501    0  0.00000000000E+00  0.00000000000E+00  0.17105630035E+04  0.17105630035E+04  0.00000000000E+00 0. -1.
         -1   -1    0    0    0  501 -0.00000000000E+00 -0.00000000000E+00 -0.26337062355E+03  0.26337062355E+03  0.00000000000E+00 0.  1.
         23    2    1    2    0    0 -0.30019862965E+03  0.41353659600E+02 -0.59241859889E+02  0.32439210485E+03  0.99455001506E+02 0.  0.
    5000000    2    1    2    0    0  0.30019862965E+03 -0.41353659600E+02  0.15064342398E+04  0.16495415222E+04  0.59984479002E+03 0.  0.
         23    2    4    4    0    0  0.81390824936E+02 -0.15955552448E+03  0.12938108746E+04  0.13093466204E+04  0.91430636863E+02 0.  0.
         23    2    4    4    0    0  0.21880780471E+03  0.11820186488E+03  0.21262336522E+03  0.34019490178E+03  0.93141502546E+02 0.  0.
          2    1    3    3  502    0 -0.11303769434E+03  0.47714261170E+01 -0.70587241927E+02  0.13335233621E+03  0.00000000000E+00 0. -1.
         -2    1    3    3    0  502 -0.18716093531E+03  0.36582233483E+02  0.11345382038E+02  0.19103976865E+03  0.00000000000E+00 0.  1.
         13    1    5    5    0    0 -0.13916528734E+02 -0.64752643327E+02  0.46882128687E+03  0.47347647630E+03  0.00000000000E+00 0.  1.
        -13    1    5    5    0    0  0.95307353669E+02 -0.94802881148E+02  0.82498958776E+03  0.83587014413E+03  0.00000000000E+00 0. -1.
          2    1    6    6  503    0  0.10450852082E+03  0.49073647699E+01  0.82752663172E+02  0.13339458915E+03  0.00000000000E+00 0. -1.
         -2    1    6    6    0  503  0.11429928389E+03  0.11329450011E+03  0.12987070204E+03  0.20680031262E+03  0.00000000000E+00 0.  1.
<mgrwt>
<rscale>  0 0.38502961E+03</rscale>
<asrwt>0</asrwt>
<pdfrwt beam="1">  1        1 0.26316353E+00 0.38502961E+03</pdfrwt>
<pdfrwt beam="2">  1       -1 0.40518558E-01 0.38502961E+03</pdfrwt>
<totfact> 0.30756740E+01</totfact>
</mgrwt>
</event>
<event>
12    1  0.1338445E-007  0.1171829E+04  0.7818608E-02  0.9137878E-01
         -1   -1    0    0    0  501 -0.00000000000E+00  0.00000000000E+00  0.24253465352E+04  0.24253465352E+04  0.00000000000E+00 0.  1.
          1   -1    0    0  501    0  0.00000000000E+00 -0.00000000000E+00 -0.65871154848E+03  0.65871154848E+03  0.00000000000E+00 0. -1.
         23    2    1    2    0    0 -0.11256974735E+04  0.12675489915E+02  0.13101033330E+04  0.17291729955E+04  0.79454611604E+02 0.  0.
    5000000    2    1    2    0    0  0.11256974735E+04 -0.12675489915E+02  0.45653165370E+03  0.13548850882E+04  0.59994748219E+03 0.  0.
         23    2    4    4    0    0  0.34320024348E+03  0.20380706872E+03  0.33446181168E+03  0.52902952596E+03  0.93186949132E+02 0.  0.
         23    2    4    4    0    0  0.78249723003E+03 -0.21648255863E+03  0.12206984203E+03  0.82585556220E+03  0.89273456774E+02 0.  0.
          2    1    3    3  502    0 -0.93782259125E+03  0.40092607491E+02  0.10939932890E+04  0.14415061381E+04  0.00000000000E+00 0. -1.
         -2    1    3    3    0  502 -0.18787488227E+03 -0.27417117576E+02  0.21611004400E+03  0.28766685739E+03  0.00000000000E+00 0.  1.
         11    1    5    5    0    0  0.15689237823E+03  0.11709442365E+03  0.10940628198E+03  0.22426782411E+03  0.00000000000E+00 0.  1.
        -11    1    5    5    0    0  0.18630786525E+03  0.86712645072E+02  0.22505552969E+03  0.30476170185E+03  0.00000000000E+00 0. -1.
          4    1    6    6  503    0  0.43818177057E+03 -0.92136971933E+02  0.10194386621E+03  0.45922220930E+03  0.00000000000E+00 0. -1.
         -4    1    6    6    0  503  0.34431545946E+03 -0.12434558670E+03  0.20125975819E+02  0.36663335290E+03  0.00000000000E+00 0.  1.
<mgrwt>
<rscale>  0 0.11718291E+04</rscale>
<asrwt>0</asrwt>
<pdfrwt beam="1">  1        1 0.10134024E+00 0.11718291E+04</pdfrwt>
<pdfrwt beam="2">  1       -1 0.37313023E+00 0.11718291E+04</pdfrwt>
<totfact> 0.32430030E-01</totfact>
</mgrwt>
</event>
<event>
12    1  0.1338445E-007  0.9656062E+03  0.7818608E-02  0.9347093E-01
          2   -1    0    0  501    0  0.00000000000E+00  0.00000000000E+00  0.11992837265E+04  0.11992837265E+04  0.00000000000E+00 0. -1.
         -2   -1    0    0    0  501 -0.00000000000E+00 -0.00000000000E+00 -0.84688174218E+03  0.84688174218E+03  0.00000000000E+00 0.  1.
         23    2    1    2    0    0  0.58057987942E+03  0.65964563041E+03 -0.10137357733E+03  0.88933399821E+03  0.91831389465E+02 0.  0.
    5000000    2    1    2    0    0 -0.58057987942E+03 -0.65964563041E+03  0.45377556163E+03  0.11568314704E+04  0.60011785224E+03 0.  0.
         23    2    4    4    0    0 -0.14944548224E+03  0.82283536856E+02  0.13941491856E+03  0.23869248516E+03  0.91831641364E+02 0.  0.
         23    2    4    4    0    0 -0.43113439718E+03 -0.74192916726E+03  0.31436064307E+03  0.91813898529E+03  0.88435426859E+02 0.  0.
          1    1    3    3  502    0  0.47268299691E+03  0.47982620366E+03 -0.86922927220E+02  0.67913032369E+03  0.00000000000E+00 0. -1.
         -1    1    3    3    0  502  0.10789688251E+03  0.17981942675E+03 -0.14450650113E+02  0.21020367452E+03  0.00000000000E+00 0.  1.
         11    1    5    5    0    0 -0.12407475890E+03  0.25938444594E+02  0.11831769278E+03  0.17339672756E+03  0.00000000000E+00 0.  1.
        -11    1    5    5    0    0 -0.25370723335E+02  0.56345092262E+02  0.21097225780E+02  0.65295757597E+02  0.00000000000E+00 0. -1.
          2    1    6    6  503    0 -0.38095611415E+02 -0.96227346303E+02  0.12766799421E+02  0.10427832446E+03  0.00000000000E+00 0. -1.
         -2    1    6    6    0  503 -0.39303878577E+03 -0.64570182096E+03  0.30159384365E+03  0.81386066082E+03  0.00000000000E+00 0.  1.
<mgrwt>
<rscale>  0 0.96560618E+03</rscale>
<asrwt>0</asrwt>
<pdfrwt beam="1">  1        2 0.18450519E+00 0.96560618E+03</pdfrwt>
<pdfrwt beam="2">  1       -2 0.13028950E+00 0.96560618E+03</pdfrwt>
<totfact> 0.81507837E+00</totfact>
</mgrwt>
</event>
<event>
12    1  0.1338445E-007  0.1846248E+04  0.7818608E-02  0.8682085E-01
         -1   -1    0    0    0  501 -0.00000000000E+00  0.00000000000E+00  0.15015611851E+04  0.15015611851E+04  0.00000000000E+00 0.  1.
          1   -1    0    0  501    0  0.00000000000E+00 -0.00000000000E+00 -0.23963010608E+04  0.23963010608E+04  0.00000000000E+00 0. -1.
         23    2    1    2    0    0  0.90631512422E+03  0.15528125853E+04 -0.87554476889E+03  0.20023598457E+04  0.10115473240E+03 0.  0.
    5000000    2    1    2    0    0 -0.90631512422E+03 -0.15528125853E+04 -0.19195106847E+02  0.18955024002E+04  0.59993905299E+03 0.  0.
         23    2    4    4    0    0 -0.14297768377E+03 -0.90866584751E+01 -0.12917942393E+02  0.17095924750E+03  0.92385094322E+02 0.  0.
         23    2    4    4    0    0 -0.76333744046E+03 -0.15437259269E+04 -0.62771644544E+01  0.17245431527E+04  0.90751844661E+02 0.  0.
          4    1    3    3  502    0  0.65268029693E+03  0.11642762772E+04 -0.60728839083E+03  0.14664003578E+04  0.00000000000E+00 0. -1.
         -4    1    3    3    0  502  0.25363482729E+03  0.38853630812E+03 -0.26825637806E+03  0.53595948794E+03  0.00000000000E+00 0.  1.
         13    1    5    5    0    0 -0.55185595260E+02 -0.48144526500E+02 -0.15410089689E+02  0.74838601138E+02  0.00000000000E+00 0. -1.
        -13    1    5    5    0    0 -0.87792088507E+02  0.39057868025E+02  0.24921472962E+01  0.96120646363E+02  0.00000000000E+00 0.  1.
          2    1    6    6  503    0 -0.27911595566E+03 -0.47105964169E+03 -0.10351099731E+02  0.54764043678E+03  0.00000000000E+00 0. -1.
         -2    1    6    6    0  503 -0.48422148480E+03 -0.10726662852E+04  0.40739352764E+01  0.11769027159E+04  0.00000000000E+00 0.  1.
<mgrwt>
<rscale>  0 0.18462481E+04</rscale>
<asrwt>0</asrwt>
<pdfrwt beam="1">  1        1 0.36866170E+00 0.18462481E+04</pdfrwt>
<pdfrwt beam="2">  1       -1 0.23100941E+00 0.18462481E+04</pdfrwt>
<totfact> 0.13480407E-01</totfact>
</mgrwt>
</event>
<event>
12    1  0.1338445E-007  0.8781574E+03  0.7818608E-02  0.9453305E-01
          2   -1    0    0  501    0  0.00000000000E+00  0.00000000000E+00  0.41319194162E+04  0.41319194162E+04  0.00000000000E+00 0. -1.
         -2   -1    0    0    0  501 -0.00000000000E+00 -0.00000000000E+00 -0.36996762055E+03  0.36996762055E+03  0.00000000000E+00 0.  1.
         23    2    1    2    0    0  0.77206227522E+03  0.17117206878E+03  0.22027592177E+03  0.82365762583E+03  0.67159280339E+02 0.  0.
    5000000    2    1    2    0    0 -0.77206227522E+03 -0.17117206878E+03  0.35416758739E+04  0.36782294109E+04  0.60043614958E+03 0.  0.
         23    2    4    4    0    0 -0.52539817757E+03  0.15968562944E+03  0.23365725183E+04  0.24019018659E+04  0.89547164230E+02 0.  0.
         23    2    4    4    0    0 -0.24666409765E+03 -0.33085769822E+03  0.12051033555E+04  0.12763275450E+04  0.80174254786E+02 0.  0.
          4    1    3    3  502    0  0.14899885768E+03  0.90309394186E+01  0.29362866332E+02  0.15213282149E+03  0.00000000000E+00 0. -1.
         -4    1    3    3    0  502  0.62306341754E+03  0.16214112936E+03  0.19091305544E+03  0.67152480434E+03  0.00000000000E+00 0.  1.
         11    1    5    5    0    0 -0.20397706496E+03  0.77793911726E+02  0.75533186662E+03  0.78624726675E+03  0.00000000000E+00 0. -1.
        -11    1    5    5    0    0 -0.32142111260E+03  0.81891717712E+02  0.15812406517E+04  0.16156545991E+04  0.00000000000E+00 0.  1.
          3    1    6    6  503    0 -0.13292945176E+03 -0.19583635936E+03  0.57112311214E+03  0.61822627574E+03  0.00000000000E+00 0. -1.
         -3    1    6    6    0  503 -0.11373464588E+03 -0.13502133886E+03  0.63398024339E+03  0.65810126928E+03  0.00000000000E+00 0.  1.
<mgrwt>
<rscale>  0 0.87815738E+03</rscale>
<asrwt>0</asrwt>
<pdfrwt beam="1">  1        2 0.63567988E+00 0.87815738E+03</pdfrwt>
<pdfrwt beam="2">  1       -2 0.56918098E-01 0.87815738E+03</pdfrwt>
<totfact> 0.83624303E-01</totfact>
</mgrwt>
</event>
<event>
12    1  0.1338445E-007  0.7478796E+03  0.7818608E-02  0.9638683E-01
          1   -1    0    0  501    0  0.00000000000E+00  0.00000000000E+00  0.20919499126E+03  0.20919499126E+03  0.00000000000E+00 0. -1.
         -1   -1    0    0    0  501 -0.00000000000E+00 -0.00000000000E+00 -0.27907697136E+04  0.27907697136E+04  0.00000000000E+00 0.  1.
         23    2    1    2    0    0  0.46779678880E+03  0.42741291598E+03 -0.88510641902E+03  0.10921969244E+04  0.89247477624E+02 0.  0.
    5000000    2    1    2    0    0 -0.46779678880E+03 -0.42741291598E+03 -0.16964683033E+04  0.19077677805E+04  0.60004796788E+03 0.  0.
         23    2    4    4    0    0 -0.40366226808E+03  0.15211221252E+02 -0.72937693982E+03  0.83859079729E+03  0.89828709461E+02 0.  0.
         23    2    4    4    0    0 -0.64134520720E+02 -0.44262413723E+03 -0.96709136349E+03  0.10691769832E+04  0.88568348969E+02 0.  0.
          3    1    3    3  502    0  0.10632679728E+03  0.11534314209E+03 -0.28444952669E+03  0.32483990131E+03  0.00000000000E+00 0. -1.
         -3    1    3    3    0  502  0.36146999152E+03  0.31206977389E+03 -0.60065689232E+03  0.76735702306E+03  0.00000000000E+00 0.  1.
         11    1    5    5    0    0 -0.12652405018E+03 -0.35388099637E+02 -0.20944293468E+03  0.24723874242E+03  0.00000000000E+00 0. -1.
        -11    1    5    5    0    0 -0.27713821790E+03  0.50599320888E+02 -0.51993400514E+03  0.59135205487E+03  0.00000000000E+00 0.  1.
          4    1    6    6  503    0 -0.38562465408E+02 -0.16516553915E+03 -0.27493369942E+03  0.32304064472E+03  0.00000000000E+00 0. -1.
         -4    1    6    6    0  503 -0.25572055312E+02 -0.27745859808E+03 -0.69215766407E+03  0.74613633848E+03  0.00000000000E+00 0.  1.
<mgrwt>
<rscale>  0 0.74787957E+03</rscale>
<asrwt>0</asrwt>
<pdfrwt beam="1">  1        1 0.32183846E-01 0.74787957E+03</pdfrwt>
<pdfrwt beam="2">  1       -1 0.42934917E+00 0.74787957E+03</pdfrwt>
<totfact> 0.67364922E-01</totfact>
</mgrwt>
</event>
<event>
12    1  0.1338445E-007  0.1038020E+04  0.7818608E-02  0.9267801E-01
         -2   -1    0    0    0  501 -0.00000000000E+00  0.00000000000E+00  0.57799647247E+03  0.57799647247E+03  0.00000000000E+00 0.  1.
          2   -1    0    0  501    0  0.00000000000E+00 -0.00000000000E+00 -0.31653985593E+04  0.31653985593E+04  0.00000000000E+00 0. -1.
         23    2    1    2    0    0  0.13353168972E+03 -0.95019751103E+03 -0.24129883771E+04  0.25983631818E+04  0.90952152244E+02 0.  0.
    5000000    2    1    2    0    0 -0.13353168972E+03  0.95019751103E+03 -0.17441370965E+03  0.11450318500E+04  0.59997647719E+03 0.  0.
         23    2    4    4    0    0 -0.35117472316E+03  0.56096345053E+03 -0.17454617679E+03  0.68994221407E+03  0.86891955345E+02 0.  0.
         23    2    4    4    0    0  0.21764303344E+03  0.38923406050E+03  0.13246713801E+00  0.45508963589E+03  0.90746434044E+02 0.  0.
          3    1    3    3  502    0  0.11471586002E+02 -0.38204830752E+03 -0.99867378921E+03  0.10693184015E+04  0.00000000000E+00 0. -1.
         -3    1    3    3    0  502  0.12206010372E+03 -0.56814920351E+03 -0.14143145879E+04  0.15290447803E+04  0.00000000000E+00 0.  1.
         13    1    5    5    0    0 -0.11580168282E+03  0.25639488338E+03 -0.52939855087E+02  0.28627084068E+03  0.00000000000E+00 0. -1.
        -13    1    5    5    0    0 -0.23537304034E+03  0.30456856715E+03 -0.12160632170E+03  0.40367137339E+03  0.00000000000E+00 0.  1.
          2    1    6    6  503    0  0.70041518812E+02  0.10565952752E+03  0.39993517559E+02  0.13292566178E+03  0.00000000000E+00 0. -1.
         -2    1    6    6    0  503  0.14760151463E+03  0.28357453297E+03 -0.39861050421E+02  0.32216397410E+03  0.00000000000E+00 0.  1.
<mgrwt>
<rscale>  0 0.10380202E+04</rscale>
<asrwt>0</asrwt>
<pdfrwt beam="1">  1        2 0.48698440E+00 0.10380202E+04</pdfrwt>
<pdfrwt beam="2">  1       -2 0.88922533E-01 0.10380202E+04</pdfrwt>
<totfact> 0.15114813E+00</totfact>
</mgrwt>
</event>
<event>
12    1  0.1338445E-007  0.7850131E+03  0.7818608E-02  0.9581967E-01
         -1   -1    0    0    0  501 -0.00000000000E+00  0.00000000000E+00  0.68265489278E+03  0.68265489278E+03  0.00000000000E+00 0.  1.
          1   -1    0    0  501    0  0.00000000000E+00 -0.00000000000E+00 -0.10616919387E+04  0.10616919387E+04  0.00000000000E+00 0. -1.
         23    2    1    2    0    0 -0.71601672181E+03  0.12421284646E+03 -0.32302537890E+03  0.80048351176E+03  0.91212280092E+02 0.  0.
    5000000    2    1    2    0    0  0.71601672181E+03 -0.12421284646E+03 -0.56011667054E+02  0.94386331976E+03  0.59969315688E+03 0.  0.
         23    2    4    4    0    0  0.11284819990E+03 -0.19370276067E+03  0.16266382567E+03  0.29186060424E+03  0.92019652321E+02 0.  0.
         23    2    4    4    0    0  0.60316852191E+03  0.69489914208E+02 -0.21867549272E+03  0.65200271553E+03  0.92991698203E+02 0.  0.
          1    1    3    3  502    0 -0.24186777800E+03  0.12959703260E+02 -0.14282906463E+03  0.28119053619E+03  0.00000000000E+00 0. -1.
         -1    1    3    3    0  502 -0.47414894381E+03  0.11125314320E+03 -0.18019631428E+03  0.51929297556E+03  0.00000000000E+00 0.  1.
         13    1    5    5    0    0  0.55547284897E+02 -0.52693659720E+02  0.10308586284E+03  0.12840879157E+03  0.00000000000E+00 0. -1.
        -13    1    5    5    0    0  0.57300914999E+02 -0.14100910095E+03  0.59577962828E+02  0.16345181267E+03  0.00000000000E+00 0.  1.
          1    1    6    6  503    0  0.50400563736E+03  0.86582814935E+02 -0.16158208733E+03  0.53630871453E+03  0.00000000000E+00 0. -1.
         -1    1    6    6    0  503  0.99162884557E+02 -0.17092900727E+02 -0.57093405391E+02  0.11569400100E+03  0.00000000000E+00 0.  1.
<mgrwt>
<rscale>  0 0.78501310E+03</rscale>
<asrwt>0</asrwt>
<pdfrwt beam="1">  1        1 0.16333722E+00 0.78501310E+03</pdfrwt>
<pdfrwt beam="2">  1       -1 0.10502383E+00 0.78501310E+03</pdfrwt>
<totfact> 0.11853561E+01</totfact>
</mgrwt>
</event>
<event>
12    1  0.1338445E-007  0.6040372E+03  0.7818608E-02  0.9897065E-01
          2   -1    0    0  501    0  0.00000000000E+00  0.00000000000E+00  0.32239685900E+04  0.32239685900E+04  0.00000000000E+00 0.  1.
         -2   -1    0    0    0  501 -0.00000000000E+00 -0.00000000000E+00 -0.11715990738E+03  0.11715990738E+03  0.00000000000E+00 0. -1.
         23    2    1    2    0    0 -0.37130710404E+03  0.27464240482E+03  0.12525445296E+04  0.13382383266E+04  0.93362755073E+02 0.  0.
    5000000    2    1    2    0    0  0.37130710404E+03 -0.27464240482E+03  0.18542641530E+04  0.20028901708E+04  0.59998005896E+03 0.  0.
         23    2    4    4    0    0 -0.13736375007E+03 -0.22809677061E+02  0.28220788882E+03  0.32898368310E+03  0.95916057222E+02 0.  0.
         23    2    4    4    0    0  0.50867085411E+03 -0.25183272776E+03  0.15720562642E+04  0.16739064877E+04  0.91849176477E+02 0.  0.
          4    1    3    3  502    0 -0.81188454861E+02  0.10394231810E+03  0.29153369579E+03  0.31998041577E+03  0.00000000000E+00 0. -1.
         -4    1    3    3    0  502 -0.29011864918E+03  0.17070008672E+03  0.96101083384E+03  0.10182579108E+04  0.00000000000E+00 0.  1.
         13    1    5    5    0    0 -0.14622396156E+03 -0.68642534645E+01  0.22074976924E+03  0.26487549062E+03  0.00000000000E+00 0.  1.
        -13    1    5    5    0    0  0.88602114876E+01 -0.15945423597E+02  0.61458119583E+02  0.64108192487E+02  0.00000000000E+00 0. -1.
          3    1    6    6  503    0  0.22009057734E+03 -0.16000528452E+03  0.75340271403E+03  0.80103508213E+03  0.00000000000E+00 0. -1.
         -3    1    6    6    0  503  0.28858027676E+03 -0.91827443240E+02  0.81865355019E+03  0.87287140560E+03  0.00000000000E+00 0.  1.
<mgrwt>
<rscale>  0 0.60403716E+03</rscale>
<asrwt>0</asrwt>
<pdfrwt beam="1">  1        2 0.49599510E+00 0.60403716E+03</pdfrwt>
<pdfrwt beam="2">  1       -2 0.18024604E-01 0.60403716E+03</pdfrwt>
<totfact> 0.34950804E+01</totfact>
</mgrwt>
</event>
<event>
12    1  0.1338445E-007  0.7998790E+03  0.7818608E-02  0.9560192E-01
          2   -1    0    0  501    0  0.00000000000E+00  0.00000000000E+00  0.11249628307E+04  0.11249628307E+04  0.00000000000E+00 0. -1.
         -2   -1    0    0    0  501 -0.00000000000E+00 -0.00000000000E+00 -0.79682658942E+03  0.79682658942E+03  0.00000000000E+00 0.  1.
         23    2    1    2    0    0 -0.55960171000E+03 -0.40296034376E+03 -0.35484324456E+03  0.78072072788E+03  0.89888899501E+02 0.  0.
    5000000    2    1    2    0    0  0.55960171000E+03  0.40296034376E+03  0.68297948589E+03  0.11410686923E+04  0.60003805704E+03 0.  0.
         23    2    4    4    0    0  0.60448445562E+03  0.48677441036E+03  0.56789758266E+03  0.96607131547E+03  0.91844099010E+02 0.  0.
         23    2    4    4    0    0 -0.44882745618E+02 -0.83814066599E+02  0.11508190323E+03  0.17499737681E+03  0.91328959411E+02 0.  0.
          2    1    3    3  502    0 -0.23749134719E+03 -0.19704780197E+03 -0.11452706206E+03  0.32916018015E+03  0.00000000000E+00 0.  1.
         -2    1    3    3    0  502 -0.32211036281E+03 -0.20591254179E+03 -0.24031618250E+03  0.45156054773E+03  0.00000000000E+00 0. -1.
         13    1    5    5    0    0  0.91700466329E+02  0.36534035929E+02  0.82552536993E+02  0.12868035075E+03  0.00000000000E+00 0.  1.
        -13    1    5    5    0    0  0.51278398929E+03  0.45024037443E+03  0.48534504567E+03  0.83739096472E+03  0.00000000000E+00 0. -1.
          3    1    6    6  503    0 -0.67985427787E+02 -0.41795600681E+02  0.91968641478E+02  0.12176666885E+03  0.00000000000E+00 0. -1.
         -3    1    6    6    0  503  0.23102682169E+02 -0.42018465918E+02  0.23113261748E+02  0.53230707962E+02  0.00000000000E+00 0.  1.
<mgrwt>
<rscale>  0 0.79987897E+03</rscale>
<asrwt>0</asrwt>
<pdfrwt beam="1">  1        2 0.17307121E+00 0.79987897E+03</pdfrwt>
<pdfrwt beam="2">  1       -2 0.12258871E+00 0.79987897E+03</pdfrwt>
<totfact> 0.10722920E+01</totfact>
</mgrwt>
</event>
<event>
12    1  0.1338445E-007  0.1038136E+04  0.7818608E-02  0.9267679E-01
          2   -1    0    0  501    0  0.00000000000E+00  0.00000000000E+00  0.15438115370E+04  0.15438115370E+04  0.00000000000E+00 0. -1.
         -2   -1    0    0    0  501 -0.00000000000E+00 -0.00000000000E+00 -0.82165479066E+03  0.82165479066E+03  0.00000000000E+00 0.  1.
         23    2    1    2    0    0 -0.44431229659E+03 -0.84164706795E+03  0.78737212267E+03  0.12385844506E+04  0.91396815668E+02 0.  0.
    5000000    2    1    2    0    0  0.44431229659E+03  0.84164706795E+03 -0.65215376334E+02  0.11268818770E+04  0.59985541220E+03 0.  0.
         23    2    4    4    0    0 -0.51598798310E+02  0.51469784099E+03 -0.22835152318E+02  0.52458139328E+03  0.84189610331E+02 0.  0.
         23    2    4    4    0    0  0.49591109490E+03  0.32694922696E+03 -0.42380224016E+02  0.60230048374E+03  0.90256181306E+02 0.  0.
          2    1    3    3  502    0 -0.21173943117E+03 -0.46947419849E+03  0.46706266333E+03  0.69526048444E+03  0.00000000000E+00 0.  1.
         -2    1    3    3    0  502 -0.23257286543E+03 -0.37217286946E+03  0.32030945934E+03  0.54332396620E+03  0.00000000000E+00 0. -1.
         11    1    5    5    0    0 -0.35891077530E+02  0.91299724595E+02  0.14853123363E+02  0.99219072920E+02  0.00000000000E+00 0.  1.
        -11    1    5    5    0    0 -0.15707720780E+02  0.42339811639E+03 -0.37688275680E+02  0.42536232036E+03  0.00000000000E+00 0. -1.
          3    1    6    6  503    0  0.25466033847E+03  0.22071529166E+03 -0.15962180233E+02  0.33737504229E+03  0.00000000000E+00 0. -1.
         -3    1    6    6    0  503  0.24125075643E+03  0.10623393530E+03 -0.26418043783E+02  0.26492544145E+03  0.00000000000E+00 0.  1.
<mgrwt>
<rscale>  0 0.10381361E+04</rscale>
<asrwt>0</asrwt>
<pdfrwt beam="1">  1        2 0.23750947E+00 0.10381361E+04</pdfrwt>
<pdfrwt beam="2">  1       -2 0.12640843E+00 0.10381361E+04</pdfrwt>
<totfact> 0.55332555E+00</totfact>
</mgrwt>
</event>
<event>
12    1  0.1338445E-007  0.1066570E+04  0.7818608E-02  0.9238402E-01
          1   -1    0    0  501    0  0.00000000000E+00  0.00000000000E+00  0.22135548637E+04  0.22135548637E+04  0.00000000000E+00 0. -1.
         -1   -1    0    0    0  501 -0.00000000000E+00 -0.00000000000E+00 -0.58419823579E+03  0.58419823579E+03  0.00000000000E+00 0.  1.
         23    2    1    2    0    0  0.38184783295E+03 -0.93503909129E+03  0.38042807509E+03  0.10831351290E+04  0.91380071829E+02 0.  0.
    5000000    2    1    2    0    0 -0.38184783295E+03  0.93503909129E+03  0.12489285528E+04  0.17146179705E+04  0.59998865403E+03 0.  0.
         23    2    4    4    0    0 -0.39162492666E+03  0.98550867344E+03  0.11811365419E+04  0.15898359776E+04  0.88867747216E+02 0.  0.
         23    2    4    4    0    0  0.97770937083E+01 -0.50469582146E+02  0.67792010950E+02  0.12478199292E+03  0.91279892224E+02 0.  0.
          2    1    3    3  502    0  0.19219710572E+03 -0.43836747221E+03  0.13335299237E+03  0.49687904837E+03  0.00000000000E+00 0. -1.
         -2    1    3    3    0  502  0.18965072723E+03 -0.49667161909E+03  0.24707508271E+03  0.58625608060E+03  0.00000000000E+00 0.  1.
         13    1    5    5    0    0 -0.26031687467E+03  0.56784190260E+03  0.64989003782E+03  0.90142462960E+03  0.00000000000E+00 0.  1.
        -13    1    5    5    0    0 -0.13130805198E+03  0.41766677084E+03  0.53124650404E+03  0.68841134799E+03  0.00000000000E+00 0. -1.
          3    1    6    6  503    0 -0.86268328803E+01 -0.35779960841E+02  0.86954232239E+02  0.94422806290E+02  0.00000000000E+00 0. -1.
         -3    1    6    6    0  503  0.18403926589E+02 -0.14689621306E+02 -0.19162221289E+02  0.30359186628E+02  0.00000000000E+00 0.  1.
<mgrwt>
<rscale>  0 0.10665699E+04</rscale>
<asrwt>0</asrwt>
<pdfrwt beam="1">  1        1 0.34054690E+00 0.10665699E+04</pdfrwt>
<pdfrwt beam="2">  1       -1 0.89876653E-01 0.10665699E+04</pdfrwt>
<totfact> 0.25968317E+00</totfact>
</mgrwt>
</event>
<event>
12    1  0.1338445E-007  0.1393879E+04  0.7818608E-02  0.8958261E-01
         -1   -1    0    0    0  501 -0.00000000000E+00  0.00000000000E+00  0.17546514651E+04  0.17546514651E+04  0.00000000000E+00 0.  1.
          1   -1    0    0  501    0  0.00000000000E+00 -0.00000000000E+00 -0.15760781236E+04  0.15760781236E+04  0.00000000000E+00 0. -1.
         23    2    1    2    0    0 -0.13695872924E+04  0.13418739015E+03 -0.74533439201E+03  0.15677170246E+04  0.91856988146E+02 0.  0.
    5000000    2    1    2    0    0  0.13695872924E+04 -0.13418739015E+03  0.92390773356E+03  0.17630125640E+04  0.60069309432E+03 0.  0.
         23    2    4    4    0    0  0.59892144717E+03  0.67895106529E+02  0.70503473218E+03  0.93208251758E+03  0.91581661048E+02 0.  0.
         23    2    4    4    0    0  0.77066584523E+03 -0.20208249668E+03  0.21887300138E+03  0.83093004643E+03  0.88182599501E+02 0.  0.
          2    1    3    3  502    0 -0.39510402445E+03  0.54097076482E+02 -0.26059254507E+03  0.47638446486E+03  0.00000000000E+00 0. -1.
         -2    1    3    3    0  502 -0.97448326795E+03  0.80090313671E+02 -0.48474184694E+03  0.10913325598E+04  0.00000000000E+00 0.  1.
         13    1    5    5    0    0  0.27139462712E+03 -0.14969763865E+02  0.31820788645E+03  0.41849181170E+03  0.00000000000E+00 0.  1.
        -13    1    5    5    0    0  0.32752682005E+03  0.82864870394E+02  0.38682684573E+03  0.51359070589E+03  0.00000000000E+00 0. -1.
          1    1    6    6  503    0  0.51966586261E+03 -0.93249839364E+02  0.14021158097E+03  0.54626681094E+03  0.00000000000E+00 0. -1.
         -1    1    6    6    0  503  0.25099998262E+03 -0.10883265732E+03  0.78661420411E+02  0.28466323549E+03  0.00000000000E+00 0.  1.
<mgrwt>
<rscale>  0 0.13938791E+04</rscale>
<asrwt>0</asrwt>
<pdfrwt beam="1">  1        1 0.24247356E+00 0.13938791E+04</pdfrwt>
<pdfrwt beam="2">  1       -1 0.26994638E+00 0.13938791E+04</pdfrwt>
<totfact> 0.28682557E-01</totfact>
</mgrwt>
</event>
<event>
12    1  0.1338445E-007  0.5916309E+03  0.7818608E-02  0.9922923E-01
          2   -1    0    0  501    0  0.00000000000E+00  0.00000000000E+00  0.16955621531E+04  0.16955621531E+04  0.00000000000E+00 0. -1.
         -2   -1    0    0    0  501 -0.00000000000E+00 -0.00000000000E+00 -0.33636237209E+03  0.33636237209E+03  0.00000000000E+00 0.  1.
         23    2    1    2    0    0  0.50558135510E+03 -0.79526926382E+02  0.10739450851E+04  0.11932116472E+04  0.91972554413E+02 0.  0.
    5000000    2    1    2    0    0 -0.50558135510E+03  0.79526926382E+02  0.28525469595E+03  0.83871287794E+03  0.60010999943E+03 0.  0.
         23    2    4    4    0    0  0.56246761493E+02 -0.51795760009E+02 -0.84795207877E+02  0.14697818891E+03  0.92551941117E+02 0.  0.
         23    2    4    4    0    0 -0.56182811660E+03  0.13132268639E+03  0.37004990382E+03  0.69173468903E+03  0.93077753113E+02 0.  0.
          3    1    3    3  502    0  0.28638276883E+03 -0.14756718261E+02  0.67576896772E+03  0.73409573541E+03  0.00000000000E+00 0. -1.
         -3    1    3    3    0  502  0.21919858628E+03 -0.64770208121E+02  0.39817611734E+03  0.45911591184E+03  0.00000000000E+00 0.  1.
         13    1    5    5    0    0  0.29483118372E+02 -0.23649443257E+01  0.14450759082E+02  0.32919168712E+02  0.00000000000E+00 0. -1.
        -13    1    5    5    0    0  0.26763643121E+02 -0.49430815683E+02 -0.99245966959E+02  0.11405902020E+03  0.00000000000E+00 0.  1.
          3    1    6    6  503    0 -0.21820720816E+03  0.90025505627E+02  0.12028796027E+03  0.26493050172E+03  0.00000000000E+00 0. -1.
         -3    1    6    6    0  503 -0.34362090844E+03  0.41297180763E+02  0.24976194356E+03  0.42680418731E+03  0.00000000000E+00 0.  1.
<mgrwt>
<rscale>  0 0.59163086E+03</rscale>
<asrwt>0</asrwt>
<pdfrwt beam="1">  1        2 0.26085571E+00 0.59163086E+03</pdfrwt>
<pdfrwt beam="2">  1       -2 0.51748058E-01 0.59163086E+03</pdfrwt>
<totfact> 0.36448945E+01</totfact>
</mgrwt>
</event>
<event>
12    1  0.1338445E-007  0.1145963E+04  0.7818608E-02  0.9161516E-01
         -1   -1    0    0    0  501 -0.00000000000E+00  0.00000000000E+00  0.18033085788E+04  0.18033085788E+04  0.00000000000E+00 0.  1.
          1   -1    0    0  501    0  0.00000000000E+00 -0.00000000000E+00 -0.76174586804E+03  0.76174586804E+03  0.00000000000E+00 0. -1.
         23    2    1    2    0    0 -0.10205553569E+04 -0.33638213695E+03  0.70732558860E+03  0.12897266988E+04  0.91647644831E+02 0.  0.
    5000000    2    1    2    0    0  0.10205553569E+04  0.33638213695E+03  0.33423712221E+03  0.12753277481E+04  0.60005019188E+03 0.  0.
         23    2    4    4    0    0  0.73156275220E+03  0.49387706360E+03  0.21218209070E+03  0.91242674558E+03  0.91666308341E+02 0.  0.
         23    2    4    4    0    0  0.28899260465E+03 -0.15749492665E+03  0.12205503151E+03  0.36290100252E+03  0.92077844545E+02 0.  0.
          1    1    3    3  502    0 -0.40890762506E+03 -0.18115036728E+03  0.28151159097E+03  0.52845972150E+03  0.00000000000E+00 0. -1.
         -1    1    3    3    0  502 -0.61164773179E+03 -0.15523176967E+03  0.42581399763E+03  0.76126697728E+03  0.00000000000E+00 0.  1.
         13    1    5    5    0    0  0.17460384919E+03  0.97924578545E+02  0.12912810944E+02  0.20060525397E+03  0.00000000000E+00 0.  1.
        -13    1    5    5    0    0  0.55695890301E+03  0.39595248505E+03  0.19926927976E+03  0.71182149161E+03  0.00000000000E+00 0. -1.
          4    1    6    6  503    0  0.21260724159E+03 -0.12833725150E+03  0.13078961503E+03  0.28067456725E+03  0.00000000000E+00 0. -1.
         -4    1    6    6    0  503  0.76385363055E+02 -0.29157675146E+02 -0.87345835210E+01  0.82226435276E+02  0.00000000000E+00 0.  1.
<mgrwt>
<rscale>  0 0.11459628E+04</rscale>
<asrwt>0</asrwt>
<pdfrwt beam="1">  1        1 0.11719167E+00 0.11459628E+04</pdfrwt>
<pdfrwt beam="2">  1       -1 0.27743209E+00 0.11459628E+04</pdfrwt>
<totfact> 0.10966127E+00</totfact>
</mgrwt>
</event>
<event>
12    1  0.1338445E-007  0.6421016E+03  0.7818608E-02  0.9821714E-01
          1   -1    0    0  501    0  0.00000000000E+00  0.00000000000E+00  0.20291581068E+04  0.20291581068E+04  0.00000000000E+00 0. -1.
         -1   -1    0    0    0  501 -0.00000000000E+00 -0.00000000000E+00 -0.36708539684E+03  0.36708539684E+03  0.00000000000E+00 0.  1.
         23    2    1    2    0    0  0.34986895525E+03 -0.51257871901E+03  0.13320297730E+04  0.14719993060E+04  0.85635342290E+02 0.  0.
    5000000    2    1    2    0    0 -0.34986895525E+03  0.51257871901E+03  0.33004293694E+03  0.92424419756E+03  0.60012812588E+03 0.  0.
         23    2    4    4    0    0 -0.14190797982E+03  0.71909566597E+02  0.38175922905E+03  0.42543888553E+03  0.99746056834E+02 0.  0.
         23    2    4    4    0    0 -0.20796097543E+03  0.44066915242E+03 -0.51716292111E+02  0.49880531203E+03  0.93247494573E+02 0.  0.
          1    1    3    3  502    0  0.18531369690E+03 -0.20413901578E+03  0.54269440880E+03  0.60871267883E+03  0.00000000000E+00 0. -1.
         -1    1    3    3    0  502  0.16455525834E+03 -0.30843970324E+03  0.78933536417E+03  0.86328662721E+03  0.00000000000E+00 0.  1.
         11    1    5    5    0    0 -0.59169985691E+02 -0.37440049352E+01  0.22522583485E+03  0.23289865063E+03  0.00000000000E+00 0. -1.
        -11    1    5    5    0    0 -0.82737994128E+02  0.75653571532E+02  0.15653339420E+03  0.19254023490E+03  0.00000000000E+00 0.  1.
          4    1    6    6  503    0 -0.73120904231E+02  0.13851200991E+03  0.26383250164E+02  0.15883425139E+03  0.00000000000E+00 0.  1.
         -4    1    6    6    0  503 -0.13484007120E+03  0.30215714251E+03 -0.78099542275E+02  0.33997106064E+03  0.00000000000E+00 0. -1.
<mgrwt>
<rscale>  0 0.64210161E+03</rscale>
<asrwt>0</asrwt>
<pdfrwt beam="1">  1        1 0.31217816E+00 0.64210161E+03</pdfrwt>
<pdfrwt beam="2">  1       -1 0.56474678E-01 0.64210161E+03</pdfrwt>
<totfact> 0.96345238E+00</totfact>
</mgrwt>
</event>
<event>
12    1  0.1338445E-007  0.1060001E+04  0.7818608E-02  0.9245079E-01
          1   -1    0    0  501    0  0.00000000000E+00  0.00000000000E+00  0.11362493256E+04  0.11362493256E+04  0.00000000000E+00 0. -1.
         -1   -1    0    0    0  501 -0.00000000000E+00 -0.00000000000E+00 -0.13863513197E+04  0.13863513197E+04  0.00000000000E+00 0.  1.
         23    2    1    2    0    0  0.19027968804E+03 -0.97335529991E+03 -0.76335515950E+03  0.12547760793E+04  0.90138837207E+02 0.  0.
    5000000    2    1    2    0    0 -0.19027968804E+03  0.97335529991E+03  0.51325316537E+03  0.12678245661E+04  0.60026945540E+03 0.  0.
         23    2    4    4    0    0  0.16470070463E+03  0.20374572638E+03  0.93126693946E+01  0.27778834720E+03  0.91874898117E+02 0.  0.
         23    2    4    4    0    0 -0.35498039267E+03  0.76960957354E+03  0.50394049597E+03  0.99003621890E+03  0.88914095540E+02 0.  0.
          2    1    3    3  502    0  0.62796414839E+02 -0.46437702457E+03 -0.31532191233E+03  0.56481618166E+03  0.00000000000E+00 0. -1.
         -2    1    3    3    0  502  0.12748327320E+03 -0.50897827534E+03 -0.44803324717E+03  0.68995989760E+03  0.00000000000E+00 0.  1.
         13    1    5    5    0    0  0.73822763024E+02  0.15570872932E+03  0.23877682505E+02  0.17396882609E+03  0.00000000000E+00 0. -1.
        -13    1    5    5    0    0  0.90877941608E+02  0.48036997055E+02 -0.14565013110E+02  0.10381952111E+03  0.00000000000E+00 0.  1.
          2    1    6    6  503    0 -0.29992976957E+03  0.56472652377E+03  0.39429272160E+03  0.75122610686E+03  0.00000000000E+00 0. -1.
         -2    1    6    6    0  503 -0.55050623106E+02  0.20488304977E+03  0.10964777437E+03  0.23881011204E+03  0.00000000000E+00 0.  1.
<mgrwt>
<rscale>  0 0.10600011E+04</rscale>
<asrwt>0</asrwt>
<pdfrwt beam="1">  1        1 0.17480759E+00 0.10600011E+04</pdfrwt>
<pdfrwt beam="2">  1       -1 0.21328482E+00 0.10600011E+04</pdfrwt>
<totfact> 0.14507886E+00</totfact>
</mgrwt>
</event>
<event>
12    1  0.1338445E-007  0.1636110E+04  0.7818608E-02  0.8798666E-01
         -1   -1    0    0    0  501 -0.00000000000E+00  0.00000000000E+00  0.12589567556E+04  0.12589567556E+04  0.00000000000E+00 0.  1.
          1   -1    0    0  501    0  0.00000000000E+00 -0.00000000000E+00 -0.22644910391E+04  0.22644910391E+04  0.00000000000E+00 0. -1.
         23    2    1    2    0    0 -0.51877318573E+03 -0.15358594568E+04 -0.28047402317E+03  0.16484867615E+04  0.10417790519E+03 0.  0.
    5000000    2    1    2    0    0  0.51877318573E+03  0.15358594568E+04 -0.72506026031E+03  0.18749610332E+04  0.60147868266E+03 0.  0.
         23    2    4    4    0    0  0.14999782236E+03  0.14213904195E+03 -0.28917615617E+03  0.36647166811E+03  0.89307224069E+02 0.  0.
         23    2    4    4    0    0  0.36877536338E+03  0.13937204149E+04 -0.43588410415E+03  0.15084893651E+04  0.84222021932E+02 0.  0.
          1    1    3    3  502    0 -0.39992125334E+03 -0.11637892796E+04 -0.25737181338E+03  0.12572122917E+04  0.00000000000E+00 0. -1.
         -1    1    3    3    0  502 -0.11885193239E+03 -0.37207017725E+03 -0.23102209788E+02  0.39127446982E+03  0.00000000000E+00 0.  1.
         11    1    5    5    0    0  0.13361765192E+03  0.11199811931E+03 -0.17409530643E+03  0.24638675158E+03  0.00000000000E+00 0. -1.
        -11    1    5    5    0    0  0.16380170439E+02  0.30140922643E+02 -0.11508084974E+03  0.12008491653E+03  0.00000000000E+00 0.  1.
          4    1    6    6  503    0  0.12385626771E+03  0.38866598168E+03 -0.90036680371E+02  0.41774181521E+03  0.00000000000E+00 0. -1.
         -4    1    6    6    0  503  0.24491909567E+03  0.10050544332E+04 -0.34584742378E+03  0.10907475499E+04  0.00000000000E+00 0.  1.
<mgrwt>
<rscale>  0 0.16361100E+04</rscale>
<asrwt>0</asrwt>
<pdfrwt beam="1">  1        1 0.34838324E+00 0.16361100E+04</pdfrwt>
<pdfrwt beam="2">  1       -1 0.19368566E+00 0.16361100E+04</pdfrwt>
<totfact> 0.30528842E-01</totfact>
</mgrwt>
</event>
<event>
12    1  0.1338445E-007  0.1194623E+04  0.7818608E-02  0.9117576E-01
          1   -1    0    0  501    0  0.00000000000E+00  0.00000000000E+00  0.20309579349E+04  0.20309579349E+04  0.00000000000E+00 0. -1.
         -1   -1    0    0    0  501 -0.00000000000E+00 -0.00000000000E+00 -0.75635843524E+03  0.75635843524E+03  0.00000000000E+00 0.  1.
         23    2    1    2    0    0 -0.54911739309E+03 -0.10199872130E+04  0.73622273935E+03  0.13755468887E+04  0.90562106215E+02 0.  0.
    5000000    2    1    2    0    0  0.54911739309E+03  0.10199872130E+04  0.53837676029E+03  0.14117694814E+04  0.60111538529E+03 0.  0.
         23    2    4    4    0    0  0.11512060864E+03  0.84221144365E+01 -0.53698445463E+02  0.15860421644E+03  0.94594333243E+02 0.  0.
         23    2    4    4    0    0  0.43399678446E+03  0.10115650986E+04  0.59207520575E+03  0.12531652649E+04  0.90845882781E+02 0.  0.
          2    1    3    3  502    0 -0.42061335977E+03 -0.79478292512E+03  0.52615144891E+03  0.10418401239E+04  0.00000000000E+00 0. -1.
         -2    1    3    3    0  502 -0.12850403332E+03 -0.22520428790E+03  0.21007129044E+03  0.33370676489E+03  0.00000000000E+00 0.  1.
         13    1    5    5    0    0  0.18289966665E+02 -0.18944946387E+02 -0.51631831716E+02  0.57959295376E+02  0.00000000000E+00 0. -1.
        -13    1    5    5    0    0  0.96830641972E+02  0.27367060823E+02 -0.20666137472E+01  0.10064492106E+03  0.00000000000E+00 0.  1.
          1    1    6    6  503    0  0.38279570700E+03  0.94656684073E+03  0.55910281755E+03  0.11640950553E+04  0.00000000000E+00 0. -1.
         -1    1    6    6    0  503  0.51201077455E+02  0.64998257846E+02  0.32972388206E+02  0.89070209608E+02  0.00000000000E+00 0.  1.
<mgrwt>
<rscale>  0 0.11946230E+04</rscale>
<asrwt>0</asrwt>
<pdfrwt beam="1">  1        1 0.31245506E+00 0.11946230E+04</pdfrwt>
<pdfrwt beam="2">  1       -1 0.11636284E+00 0.11946230E+04</pdfrwt>
<totfact> 0.18672967E+00</totfact>
</mgrwt>
</event>
<event>
12    1  0.1338445E-007  0.5645559E+03  0.7818608E-02  0.9981799E-01
         -3   -1    0    0    0  501 -0.00000000000E+00  0.00000000000E+00  0.10325143732E+04  0.10325143732E+04  0.00000000000E+00 0.  1.
          3   -1    0    0  501    0  0.00000000000E+00 -0.00000000000E+00 -0.35765481640E+03  0.35765481640E+03  0.00000000000E+00 0. -1.
         23    2    1    2    0    0 -0.30267610434E+03  0.28585446643E+03  0.50604238542E+02  0.42941286585E+03  0.92244351003E+02 0.  0.
    5000000    2    1    2    0    0  0.30267610434E+03 -0.28585446643E+03  0.62425531822E+03  0.96075632371E+03  0.60002700866E+03 0.  0.
         23    2    4    4    0    0  0.55907965316E+02  0.17080516778E+03  0.17772278011E+03  0.26877466623E+03  0.91402017007E+02 0.  0.
         23    2    4    4    0    0  0.24676813902E+03 -0.45665963420E+03  0.44653253811E+03  0.69198165748E+03  0.10007382654E+03 0.  0.
          3    1    3    3  502    0 -0.28925992121E+03  0.23200346892E+03  0.47404775450E+02  0.37382365407E+03  0.00000000000E+00 0.  1.
         -3    1    3    3    0  502 -0.13416183121E+02  0.53850997509E+02  0.31994630920E+01  0.55589211780E+02  0.00000000000E+00 0. -1.
         11    1    5    5    0    0  0.14339547279E+02  0.62272189894E+02  0.99393502991E+01  0.64670232215E+02  0.00000000000E+00 0.  1.
        -11    1    5    5    0    0  0.41568418037E+02  0.10853297788E+03  0.16778342981E+03  0.20410443402E+03  0.00000000000E+00 0. -1.
          1    1    6    6  503    0  0.22287090133E+03 -0.36242397364E+03  0.31979573870E+03  0.53225171660E+03  0.00000000000E+00 0. -1.
         -1    1    6    6    0  503  0.23897237685E+02 -0.94235660559E+02  0.12673679941E+03  0.15972994088E+03  0.00000000000E+00 0.  1.
<mgrwt>
<rscale>  0 0.56455588E+03</rscale>
<asrwt>0</asrwt>
<pdfrwt beam="1">  1        3 0.55023818E-01 0.56455588E+03</pdfrwt>
<pdfrwt beam="2">  1       -3 0.15884836E+00 0.56455588E+03</pdfrwt>
<totfact> 0.23713551E+00</totfact>
</mgrwt>
</event>
<event>
12    1  0.1338445E-007  0.9636740E+03  0.7818608E-02  0.9349309E-01
          2   -1    0    0  501    0  0.00000000000E+00  0.00000000000E+00  0.45565224650E+03  0.45565224650E+03  0.00000000000E+00 0.  1.
         -2   -1    0    0    0  501 -0.00000000000E+00 -0.00000000000E+00 -0.23582020791E+04  0.23582020791E+04  0.00000000000E+00 0. -1.
         23    2    1    2    0    0 -0.22551271216E+03 -0.84755416674E+03 -0.13597895861E+04  0.16206409829E+04  0.90804339955E+02 0.  0.
    5000000    2    1    2    0    0  0.22551271216E+03  0.84755416674E+03 -0.54276024656E+03  0.11932133427E+04  0.59997112192E+03 0.  0.
         23    2    4    4    0    0  0.41200131303E+03  0.63108402055E+03 -0.41760439464E+03  0.86643392496E+03  0.91116370496E+02 0.  0.
         23    2    4    4    0    0 -0.18648860087E+03  0.21647014619E+03 -0.12515585192E+03  0.32677941777E+03  0.97383151347E+02 0.  0.
          3    1    3    3  502    0 -0.89512690952E+02 -0.48086941440E+03 -0.70827925068E+03  0.86075978791E+03  0.00000000000E+00 0. -1.
         -3    1    3    3    0  502 -0.13600002121E+03 -0.36668475234E+03 -0.65151033537E+03  0.75988119497E+03  0.00000000000E+00 0.  1.
         11    1    5    5    0    0  0.15067053478E+03  0.31333434656E+03 -0.19692766132E+03  0.39957543291E+03  0.00000000000E+00 0. -1.
        -11    1    5    5    0    0  0.26133077825E+03  0.31774967399E+03 -0.22067673332E+03  0.46685849206E+03  0.00000000000E+00 0.  1.
          3    1    6    6  503    0 -0.14840099321E+03  0.14741710675E+03 -0.13244776398E+03  0.24758244755E+03  0.00000000000E+00 0. -1.
         -3    1    6    6    0  503 -0.38087607661E+02  0.69053039432E+02  0.72919120564E+01  0.79196970230E+02  0.00000000000E+00 0.  1.
<mgrwt>
<rscale>  0 0.96367401E+03</rscale>
<asrwt>0</asrwt>
<pdfrwt beam="1">  1        2 0.70100344E-01 0.96367401E+03</pdfrwt>
<pdfrwt beam="2">  1       -2 0.36280033E+00 0.96367401E+03</pdfrwt>
<totfact> 0.90426984E-01</totfact>
</mgrwt>
</event>
<event>
12    1  0.1338445E-007  0.2790817E+03  0.7818608E-02  0.1096192E+00
          1   -1    0    0  501    0  0.00000000000E+00  0.00000000000E+00  0.18672626103E+04  0.18672626103E+04  0.00000000000E+00 0. -1.
         -1   -1    0    0    0  501 -0.00000000000E+00 -0.00000000000E+00 -0.14988542418E+03  0.14988542418E+03  0.00000000000E+00 0.  1.
         23    2    1    2    0    0 -0.16563031478E+03  0.89679945835E+02  0.23238159597E+02  0.20999880047E+03  0.89908788671E+02 0.  0.
    5000000    2    1    2    0    0  0.16563031478E+03 -0.89679945835E+02  0.16941390266E+04  0.18071492341E+04  0.60017115804E+03 0.  0.
         23    2    4    4    0    0  0.19602499565E+03  0.44417895901E+02  0.17941922360E+03  0.28317390267E+03  0.87163369396E+02 0.  0.
         23    2    4    4    0    0 -0.30394680869E+02 -0.13409784174E+03  0.15147198030E+04  0.15239753314E+04  0.96013860201E+02 0.  0.
          4    1    3    3  502    0 -0.12892796252E+03  0.91042786650E+02  0.48853685873E+02  0.16522073461E+03  0.00000000000E+00 0. -1.
         -4    1    3    3    0  502 -0.36702352260E+02 -0.13628408148E+01 -0.25615526276E+02  0.44778065868E+02  0.00000000000E+00 0.  1.
         11    1    5    5    0    0  0.38906207957E+01 -0.13731442822E+00 -0.93720116626E+01  0.10148418006E+02  0.00000000000E+00 0. -1.
        -11    1    5    5    0    0  0.19213437485E+03  0.44555210329E+02  0.18879123526E+03  0.27302548467E+03  0.00000000000E+00 0.  1.
          3    1    6    6  503    0 -0.59855844488E+02 -0.71168703016E+02  0.67332065399E+03  0.67971200482E+03  0.00000000000E+00 0. -1.
         -3    1    6    6    0  503  0.29461163619E+02 -0.62929138720E+02  0.84139914898E+03  0.84426332656E+03  0.00000000000E+00 0.  1.
<mgrwt>
<rscale>  0 0.27908174E+03</rscale>
<asrwt>0</asrwt>
<pdfrwt beam="1">  1        1 0.28727115E+00 0.27908174E+03</pdfrwt>
<pdfrwt beam="2">  1       -1 0.23059297E-01 0.27908174E+03</pdfrwt>
<totfact> 0.65998654E+01</totfact>
</mgrwt>
</event>
<event>
12    1  0.1338445E-007  0.2393416E+04  0.7818608E-02  0.8441973E-01
         -2   -1    0    0    0  501 -0.00000000000E+00  0.00000000000E+00  0.23225815144E+04  0.23225815144E+04  0.00000000000E+00 0. -1.
          2   -1    0    0  501    0  0.00000000000E+00 -0.00000000000E+00 -0.24912331913E+04  0.24912331913E+04  0.00000000000E+00 0.  1.
         23    2    1    2    0    0  0.17867277838E+04 -0.15379094200E+04 -0.29696575674E+03  0.23778431001E+04  0.91583788373E+02 0.  0.
    5000000    2    1    2    0    0 -0.17867277838E+04  0.15379094200E+04  0.12831407985E+03  0.24359716056E+04  0.59994299925E+03 0.  0.
         23    2    4    4    0    0 -0.12496691624E+04  0.70759711697E+03  0.92914687599E+02  0.14422499381E+04  0.95315526661E+02 0.  0.
         23    2    4    4    0    0 -0.53705862147E+03  0.83031230304E+03  0.35399392246E+02  0.99372166741E+03  0.91537707196E+02 0.  0.
          3    1    3    3  502    0  0.33901339157E+02 -0.15550416551E+02 -0.94406801397E+01  0.38473922247E+02  0.00000000000E+00 0. -1.
         -3    1    3    3    0  502  0.17528264447E+04 -0.15223590035E+04 -0.28752507660E+03  0.23393691778E+04  0.00000000000E+00 0.  1.
         11    1    5    5    0    0 -0.37415993094E+03  0.16437383501E+03  0.38179199595E+02  0.41045348438E+03  0.00000000000E+00 0. -1.
        -11    1    5    5    0    0 -0.87550923141E+03  0.54322328196E+03  0.54735488004E+02  0.10317964538E+04  0.00000000000E+00 0.  1.
          3    1    6    6  503    0 -0.80842876333E+02  0.12928453660E+03 -0.27561595583E+02  0.15495064895E+03  0.00000000000E+00 0. -1.
         -3    1    6    6    0  503 -0.45621574513E+03  0.70102776644E+03  0.62960987830E+02  0.83877101846E+03  0.00000000000E+00 0.  1.
<mgrwt>
<rscale>  0 0.23934161E+04</rscale>
<asrwt>0</asrwt>
<pdfrwt beam="1">  1        2 0.38326665E+00 0.23934161E+04</pdfrwt>
<pdfrwt beam="2">  1       -2 0.35732023E+00 0.23934161E+04</pdfrwt>
<totfact> 0.41933076E-02</totfact>
</mgrwt>
</event>
<event>
12    1  0.1338445E-007  0.3819171E+03  0.7818608E-02  0.1050227E+00
         -1   -1    0    0    0  501 -0.00000000000E+00  0.00000000000E+00  0.49213279961E+03  0.49213279961E+03  0.00000000000E+00 0.  1.
          1   -1    0    0  501    0  0.00000000000E+00 -0.00000000000E+00 -0.30554410018E+03  0.30554410018E+03  0.00000000000E+00 0. -1.
         23    2    1    2    0    0 -0.17792150561E+02 -0.13311765546E+03  0.30752691824E+02  0.16317760755E+03  0.87431874813E+02 0.  0.
    5000000    2    1    2    0    0  0.17792150561E+02  0.13311765546E+03  0.15583600760E+03  0.63449929224E+03  0.60022297505E+03 0.  0.
         23    2    4    4    0    0  0.22946072999E+03  0.25422165734E+03  0.87333330189E+02  0.36510670155E+03  0.91623770320E+02 0.  0.
         23    2    4    4    0    0 -0.21166857943E+03 -0.12110400188E+03  0.68502677412E+02  0.26939259069E+03  0.91705966651E+02 0.  0.
          2    1    3    3  502    0  0.31204850337E+02 -0.24685360502E+02 -0.17596673221E+01  0.39827203477E+02  0.00000000000E+00 0. -1.
         -2    1    3    3    0  502 -0.48997000898E+02 -0.10843229496E+03  0.32512359147E+02  0.12335040407E+03  0.00000000000E+00 0.  1.
         13    1    5    5    0    0  0.70695066454E+02  0.11509541660E+03  0.72962067835E+02  0.15351941469E+03  0.00000000000E+00 0. -1.
        -13    1    5    5    0    0  0.15876566354E+03  0.13912624073E+03  0.14371262354E+02  0.21158728686E+03  0.00000000000E+00 0.  1.
          3    1    6    6  503    0 -0.95642343007E+02 -0.65956844923E+01  0.10847833938E+02  0.96481274509E+02  0.00000000000E+00 0. -1.
         -3    1    6    6    0  503 -0.11602623642E+03 -0.11450831738E+03  0.57654843474E+02  0.17291131618E+03  0.00000000000E+00 0.  1.
<mgrwt>
<rscale>  0 0.38191710E+03</rscale>
<asrwt>0</asrwt>
<pdfrwt beam="1">  1        1 0.47006785E-01 0.38191710E+03</pdfrwt>
<pdfrwt beam="2">  1       -1 0.75712738E-01 0.38191710E+03</pdfrwt>
<totfact> 0.15604144E+02</totfact>
</mgrwt>
</event>
<event>
12    1  0.1338445E-007  0.9754990E+03  0.7818608E-02  0.9335833E-01
          2   -1    0    0  501    0  0.00000000000E+00  0.00000000000E+00  0.23049231285E+04  0.23049231285E+04  0.00000000000E+00 0. -1.
         -2   -1    0    0    0  501 -0.00000000000E+00 -0.00000000000E+00 -0.11187285311E+04  0.11187285311E+04  0.00000000000E+00 0.  1.
         23    2    1    2    0    0 -0.67609920418E+03 -0.65697086657E+03 -0.73652338413E+03  0.11997871621E+04  0.91113585824E+02 0.  0.
    5000000    2    1    2    0    0  0.67609920418E+03  0.65697086657E+03  0.19227179815E+04  0.22238644975E+04  0.60000667787E+03 0.  0.
         23    2    4    4    0    0  0.27922726354E+03  0.49889410946E+03  0.15331168552E+04  0.16387067161E+04  0.89717403937E+02 0.  0.
         23    2    4    4    0    0  0.39687194065E+03  0.15807675712E+03  0.38960112633E+03  0.58515778144E+03  0.90138743722E+02 0.  0.
          1    1    3    3  502    0 -0.49781557154E+03 -0.46789596807E+03 -0.48257806858E+03  0.83643802669E+03  0.00000000000E+00 0. -1.
         -1    1    3    3    0  502 -0.17828363264E+03 -0.18907489850E+03 -0.25394531555E+03  0.36334913540E+03  0.00000000000E+00 0.  1.
         13    1    5    5    0    0  0.10389959217E+03  0.11556252865E+03  0.47232126851E+03  0.49722952845E+03  0.00000000000E+00 0. -1.
        -13    1    5    5    0    0  0.17532767136E+03  0.38333158081E+03  0.10607955867E+04  0.11414771876E+04  0.00000000000E+00 0.  1.
          2    1    6    6  503    0  0.33920523980E+03  0.15585968416E+03  0.30154905553E+03  0.47987943147E+03  0.00000000000E+00 0.  1.
         -2    1    6    6    0  503  0.57666700843E+02  0.22170729560E+01  0.88052070799E+02  0.10527834996E+03  0.00000000000E+00 0. -1.
<mgrwt>
<rscale>  0 0.97549895E+03</rscale>
<asrwt>0</asrwt>
<pdfrwt beam="1">  1        2 0.35460356E+00 0.97549895E+03</pdfrwt>
<pdfrwt beam="2">  1       -2 0.17211208E+00 0.97549895E+03</pdfrwt>
<totfact> 0.93315996E-01</totfact>
</mgrwt>
</event>
<event>
12    1  0.1338445E-007  0.8696943E+03  0.7818608E-02  0.9464279E-01
         -1   -1    0    0    0  501 -0.00000000000E+00  0.00000000000E+00  0.12039891240E+04  0.12039891240E+04  0.00000000000E+00 0.  1.
          1   -1    0    0  501    0  0.00000000000E+00 -0.00000000000E+00 -0.12185385315E+04  0.12185385315E+04  0.00000000000E+00 0. -1.
         23    2    1    2    0    0  0.54526098031E+03  0.57652762262E+03  0.80444717923E+03  0.11340354208E+04  0.95955381251E+02 0.  0.
    5000000    2    1    2    0    0 -0.54526098031E+03 -0.57652762262E+03 -0.81899658667E+03  0.12884922347E+04  0.59980262884E+03 0.  0.
         23    2    4    4    0    0 -0.62350723677E+03 -0.39261045615E+03 -0.47584112604E+03  0.88138908308E+03  0.86704636315E+02 0.  0.
         23    2    4    4    0    0  0.78246256458E+02 -0.18391716646E+03 -0.34315546063E+03  0.40710315160E+03  0.89606389908E+02 0.  0.
          4    1    3    3  502    0  0.33214102822E+03  0.38770059042E+03  0.46053612834E+03  0.68754849715E+03  0.00000000000E+00 0. -1.
         -4    1    3    3    0  502  0.21311995209E+03  0.18882703220E+03  0.34391105089E+03  0.44648692365E+03  0.00000000000E+00 0.  1.
         11    1    5    5    0    0 -0.47607355436E+03 -0.33365740591E+03 -0.34813265884E+03  0.67762057365E+03  0.00000000000E+00 0.  1.
        -11    1    5    5    0    0 -0.14743368240E+03 -0.58953050242E+02 -0.12770846721E+03  0.20376850943E+03  0.00000000000E+00 0. -1.
          2    1    6    6  503    0  0.39165196335E+02 -0.44869344616E+02 -0.17799918663E+03  0.18769891084E+03  0.00000000000E+00 0. -1.
         -2    1    6    6    0  503  0.39081060123E+02 -0.13904782185E+03 -0.16515627400E+03  0.21940424076E+03  0.00000000000E+00 0.  1.
<mgrwt>
<rscale>  0 0.86969428E+03</rscale>
<asrwt>0</asrwt>
<pdfrwt beam="1">  1        1 0.18746747E+00 0.86969428E+03</pdfrwt>
<pdfrwt beam="2">  1       -1 0.18522910E+00 0.86969428E+03</pdfrwt>
<totfact> 0.20245329E+00</totfact>
</mgrwt>
</event>
<event>
12    1  0.1338445E-007  0.4959151E+03  0.7818608E-02  0.1014851E+00
          2   -1    0    0  501    0  0.00000000000E+00  0.00000000000E+00  0.23861783957E+04  0.23861783957E+04  0.00000000000E+00 0. -1.
         -2   -1    0    0    0  501 -0.00000000000E+00 -0.00000000000E+00 -0.16731916856E+03  0.16731916856E+03  0.00000000000E+00 0.  1.
         23    2    1    2    0    0  0.23235796352E+03  0.38246977803E+03  0.12386108988E+04  0.13201411193E+04  0.91335983642E+02 0.  0.
    5000000    2    1    2    0    0 -0.23235796352E+03 -0.38246977803E+03  0.98024832830E+03  0.12333564449E+04  0.60000665064E+03 0.  0.
         23    2    4    4    0    0  0.18487475382E+02 -0.21983534467E+03  0.86955876927E+03  0.90180061358E+03  0.91883229922E+02 0.  0.
         23    2    4    4    0    0 -0.25084543891E+03 -0.16263443336E+03  0.11068955904E+03  0.33155583136E+03  0.91124627258E+02 0.  0.
          1    1    3    3  502    0  0.12474141907E+03  0.12041432318E+03  0.48184823923E+03  0.51209155091E+03  0.00000000000E+00 0. -1.
         -1    1    3    3    0  502  0.10761654445E+03  0.26205545484E+03  0.75676265959E+03  0.80804956841E+03  0.00000000000E+00 0.  1.
         13    1    5    5    0    0  0.52276126445E+02 -0.12746835566E+03  0.57418994326E+03  0.59048714299E+03  0.00000000000E+00 0.  1.
        -13    1    5    5    0    0 -0.33788651063E+02 -0.92366989012E+02  0.29536882600E+03  0.31131347059E+03  0.00000000000E+00 0. -1.
          1    1    6    6  503    0 -0.12025350149E+03 -0.73814718161E+02  0.43690108875E+01  0.14116871287E+03  0.00000000000E+00 0. -1.
         -1    1    6    6    0  503 -0.13059193741E+03 -0.88819715197E+02  0.10632054815E+03  0.19038711848E+03  0.00000000000E+00 0.  1.
<mgrwt>
<rscale>  0 0.49591507E+03</rscale>
<asrwt>0</asrwt>
<pdfrwt beam="1">  1        2 0.36710434E+00 0.49591507E+03</pdfrwt>
<pdfrwt beam="2">  1       -2 0.25741412E-01 0.49591507E+03</pdfrwt>
<totfact> 0.59400339E+01</totfact>
</mgrwt>
</event>
<event>
12    1  0.1338445E-007  0.1615740E+04  0.7818608E-02  0.8810936E-01
          2   -1    0    0  501    0  0.00000000000E+00  0.00000000000E+00  0.15717510801E+04  0.15717510801E+04  0.00000000000E+00 0. -1.
         -2   -1    0    0    0  501 -0.00000000000E+00 -0.00000000000E+00 -0.17442577451E+04  0.17442577451E+04  0.00000000000E+00 0.  1.
         23    2    1    2    0    0 -0.10502973374E+04  0.11685182352E+04 -0.38591527493E+03  0.16206669395E+04  0.95243720562E+02 0.  0.
    5000000    2    1    2    0    0  0.10502973374E+04 -0.11685182352E+04  0.21340860993E+03  0.16953418857E+04  0.60006792258E+03 0.  0.
         23    2    4    4    0    0  0.72022796492E+03 -0.41543765424E+03  0.23094906748E+03  0.86778556364E+03  0.91638128925E+02 0.  0.
         23    2    4    4    0    0  0.33006937252E+03 -0.75308058097E+03 -0.17540457556E+02  0.82755632211E+03  0.92008947915E+02 0.  0.
          3    1    3    3  502    0 -0.96291452540E+03  0.10338572256E+04 -0.36103451585E+03  0.14582218857E+04  0.00000000000E+00 0. -1.
         -3    1    3    3    0  502 -0.87382812045E+02  0.13466100958E+03 -0.24880759085E+02  0.16244505383E+03  0.00000000000E+00 0.  1.
         13    1    5    5    0    0  0.36150895947E+03 -0.16071994342E+03  0.89171932326E+02  0.40555056591E+03  0.00000000000E+00 0.  1.
        -13    1    5    5    0    0  0.35871900545E+03 -0.25471771082E+03  0.14177713516E+03  0.46223499773E+03  0.00000000000E+00 0. -1.
          3    1    6    6  503    0  0.23375562454E+03 -0.55813872275E+03 -0.52263043141E+02  0.60736475986E+03  0.00000000000E+00 0. -1.
         -3    1    6    6    0  503  0.96313747976E+02 -0.19494185822E+03  0.34722585585E+02  0.22019156225E+03  0.00000000000E+00 0.  1.
<mgrwt>
<rscale>  0 0.16157396E+04</rscale>
<asrwt>0</asrwt>
<pdfrwt beam="1">  1        2 0.24180786E+00 0.16157396E+04</pdfrwt>
<pdfrwt beam="2">  1       -2 0.26834734E+00 0.16157396E+04</pdfrwt>
<totfact> 0.53311486E-01</totfact>
</mgrwt>
</event>
<event>
12    1  0.1338445E-007  0.5801608E+03  0.7818608E-02  0.9947443E-01
         -2   -1    0    0    0  501 -0.00000000000E+00  0.00000000000E+00  0.15049327465E+03  0.15049327465E+03  0.00000000000E+00 0. -1.
          2   -1    0    0  501    0  0.00000000000E+00 -0.00000000000E+00 -0.28475129886E+04  0.28475129886E+04  0.00000000000E+00 0.  1.
         23    2    1    2    0    0  0.40761994378E+03  0.25256025413E+03 -0.66058474979E+03  0.82185140624E+03  0.95534400866E+02 0.  0.
    5000000    2    1    2    0    0 -0.40761994378E+03 -0.25256025413E+03 -0.20364349641E+04  0.21761548570E+04  0.59886717885E+03 0.  0.
         23    2    4    4    0    0  0.75444493821E+02 -0.14065954765E+03 -0.10752261415E+04  0.10907480822E+04  0.90239367281E+02 0.  0.
         23    2    4    4    0    0 -0.48306443760E+03 -0.11190070648E+03 -0.96120882262E+03  0.10854067748E+04  0.91172622584E+02 0.  0.
          2    1    3    3  502    0  0.35117655670E+03  0.23376291958E+03 -0.61970173983E+03  0.74966680791E+03  0.00000000000E+00 0. -1.
         -2    1    3    3    0  502  0.56443387087E+02  0.18797334553E+02 -0.40883009965E+02  0.72184598329E+02  0.00000000000E+00 0.  1.
         13    1    5    5    0    0  0.87556948543E+02 -0.92067496136E+02 -0.88352949830E+03  0.89261806919E+03  0.00000000000E+00 0. -1.
        -13    1    5    5    0    0 -0.12112454722E+02 -0.48592051516E+02 -0.19169664322E+03  0.19813001301E+03  0.00000000000E+00 0.  1.
          4    1    6    6  503    0 -0.27505883304E+03 -0.24288714215E+02 -0.47653890595E+03  0.55076004953E+03  0.00000000000E+00 0. -1.
         -4    1    6    6    0  503 -0.20800560456E+03 -0.87611992264E+02 -0.48466991667E+03  0.53464672527E+03  0.00000000000E+00 0.  1.
<mgrwt>
<rscale>  0 0.58016084E+03</rscale>
<asrwt>0</asrwt>
<pdfrwt beam="1">  1        2 0.43807890E+00 0.58016084E+03</pdfrwt>
<pdfrwt beam="2">  1       -2 0.23152813E-01 0.58016084E+03</pdfrwt>
<totfact> 0.38539593E+01</totfact>
</mgrwt>
</event>
<event>
12    1  0.1338445E-007  0.9044194E+03  0.7818608E-02  0.9420074E-01
          1   -1    0    0  501    0  0.00000000000E+00  0.00000000000E+00  0.11664851810E+04  0.11664851810E+04  0.00000000000E+00 0. -1.
         -1   -1    0    0    0  501 -0.00000000000E+00 -0.00000000000E+00 -0.13877546065E+04  0.13877546065E+04  0.00000000000E+00 0.  1.
         23    2    1    2    0    0  0.56669701444E+03  0.57918956550E+03 -0.99231060870E+03  0.12848002947E+04  0.97084469638E+02 0.  0.
    5000000    2    1    2    0    0 -0.56669701444E+03 -0.57918956550E+03  0.77104118322E+03  0.12694394927E+04  0.60030497292E+03 0.  0.
         23    2    4    4    0    0 -0.78466764072E+02 -0.48357911570E+03  0.43746283783E+03  0.66308284313E+03  0.91100648514E+02 0.  0.
         23    2    4    4    0    0 -0.48823025037E+03 -0.95610449800E+02  0.33357834539E+03  0.60635664960E+03  0.94253586235E+02 0.  0.
          4    1    3    3  502    0  0.40185055243E+03  0.35513851617E+03 -0.69158035562E+03  0.87515176995E+03  0.00000000000E+00 0. -1.
         -4    1    3    3    0  502  0.16484646201E+03  0.22405104933E+03 -0.30073025307E+03  0.40964852478E+03  0.00000000000E+00 0.  1.
         13    1    5    5    0    0 -0.26643012701E+02 -0.11349916004E+03  0.56921284312E+02  0.12973797464E+03  0.00000000000E+00 0. -1.
        -13    1    5    5    0    0 -0.51823751371E+02 -0.37007995566E+03  0.38054155352E+03  0.53334486849E+03  0.00000000000E+00 0.  1.
          2    1    6    6  503    0 -0.30100156746E+03 -0.98967280619E+02  0.23682950803E+03  0.39558144815E+03  0.00000000000E+00 0. -1.
         -2    1    6    6    0  503 -0.18722868291E+03  0.33568308185E+01  0.96748837361E+02  0.21077520146E+03  0.00000000000E+00 0.  1.
<mgrwt>
<rscale>  0 0.90441935E+03</rscale>
<asrwt>0</asrwt>
<pdfrwt beam="1">  1        1 0.17945926E+00 0.90441935E+03</pdfrwt>
<pdfrwt beam="2">  1       -1 0.21350071E+00 0.90441935E+03</pdfrwt>
<totfact> 0.14044276E+00</totfact>
</mgrwt>
</event>
<event>
12    1  0.1338445E-007  0.1423328E+04  0.7818608E-02  0.8937103E-01
          2   -1    0    0  501    0  0.00000000000E+00  0.00000000000E+00  0.23987191272E+04  0.23987191272E+04  0.00000000000E+00 0. -1.
         -2   -1    0    0    0  501 -0.00000000000E+00 -0.00000000000E+00 -0.11939395613E+04  0.11939395613E+04  0.00000000000E+00 0.  1.
         23    2    1    2    0    0 -0.70573219476E+03 -0.11762581066E+04 -0.36585012234E+03  0.14227623362E+04  0.93623123959E+02 0.  0.
    5000000    2    1    2    0    0  0.70573219476E+03  0.11762581066E+04  0.15706296882E+04  0.21698963523E+04  0.59994291244E+03 0.  0.
         23    2    4    4    0    0  0.66277056021E+03  0.11900227767E+04  0.13360675551E+04  0.19101796652E+04  0.91053923401E+02 0.  0.
         23    2    4    4    0    0  0.42961634549E+02 -0.13764670073E+02  0.23456213308E+03  0.25971668711E+03  0.10197154064E+03 0.  0.
          3    1    3    3  502    0 -0.42490160706E+03 -0.74620027618E+03 -0.27104488948E+03  0.90045630653E+03  0.00000000000E+00 0. -1.
         -3    1    3    3    0  502 -0.28083058770E+03 -0.43005783041E+03 -0.94805232854E+02  0.52230602970E+03  0.00000000000E+00 0.  1.
         11    1    5    5    0    0  0.32580154887E+03  0.65011149661E+03  0.75792943792E+03  0.10503564348E+04  0.00000000000E+00 0.  1.
        -11    1    5    5    0    0  0.33696901134E+03  0.53991128005E+03  0.57813811716E+03  0.85982323035E+03  0.00000000000E+00 0. -1.
          1    1    6    6  503    0  0.69258360435E+02  0.15912563193E+02  0.16489497511E+03  0.17955579349E+03  0.00000000000E+00 0. -1.
         -1    1    6    6    0  503 -0.26296725885E+02 -0.29677233266E+02  0.69667157969E+02  0.80160893621E+02  0.00000000000E+00 0.  1.
<mgrwt>
<rscale>  0 0.14233283E+04</rscale>
<asrwt>0</asrwt>
<pdfrwt beam="1">  1        2 0.36903371E+00 0.14233283E+04</pdfrwt>
<pdfrwt beam="2">  1       -2 0.18368301E+00 0.14233283E+04</pdfrwt>
<totfact> 0.64618676E-01</totfact>
</mgrwt>
</event>
<event>
12    1  0.1338445E-007  0.4238823E+03  0.7818608E-02  0.1035810E+00
          2   -1    0    0  501    0  0.00000000000E+00  0.00000000000E+00  0.14098839841E+04  0.14098839841E+04  0.00000000000E+00 0. -1.
         -2   -1    0    0    0  501 -0.00000000000E+00 -0.00000000000E+00 -0.16948902490E+03  0.16948902490E+03  0.00000000000E+00 0.  1.
         23    2    1    2    0    0  0.25590128103E+03  0.89519242503E+02  0.20438940108E+03  0.35179707498E+03  0.92124884154E+02 0.  0.
    5000000    2    1    2    0    0 -0.25590128103E+03 -0.89519242503E+02  0.10360055581E+04  0.12275759340E+04  0.60011332006E+03 0.  0.
         23    2    4    4    0    0  0.14226822782E+03  0.34029100843E+02  0.57003076093E+03  0.59552092635E+03  0.91169495782E+02 0.  0.
         23    2    4    4    0    0 -0.39816950885E+03 -0.12354834335E+03  0.46597479719E+03  0.63205500767E+03  0.92508757329E+02 0.  0.
          1    1    3    3  502    0  0.73077353661E+02  0.47139133087E+01  0.10249569021E+03  0.12596780187E+03  0.00000000000E+00 0. -1.
         -1    1    3    3    0  502  0.18282392737E+03  0.84805329194E+02  0.10189371087E+03  0.22582927311E+03  0.00000000000E+00 0.  1.
         11    1    5    5    0    0  0.14174724513E+03  0.21750198195E+02  0.39792891080E+03  0.42298081597E+03  0.00000000000E+00 0. -1.
        -11    1    5    5    0    0  0.52098268872E+00  0.12278902648E+02  0.17210185012E+03  0.17254011038E+03  0.00000000000E+00 0.  1.
          1    1    6    6  503    0 -0.17675765675E+03 -0.64441702333E+02  0.14433376365E+03  0.23712494080E+03  0.00000000000E+00 0. -1.
         -1    1    6    6    0  503 -0.22141185210E+03 -0.59106641013E+02  0.32164103354E+03  0.39493006687E+03  0.00000000000E+00 0.  1.
<mgrwt>
<rscale>  0 0.42388229E+03</rscale>
<asrwt>0</asrwt>
<pdfrwt beam="1">  1        2 0.21690522E+00 0.42388229E+03</pdfrwt>
<pdfrwt beam="2">  1       -2 0.26075236E-01 0.42388229E+03</pdfrwt>
<totfact> 0.19833106E+02</totfact>
</mgrwt>
</event>
<event>
12    1  0.1338445E-007  0.6808576E+03  0.7818608E-02  0.9750540E-01
         -1   -1    0    0    0  501 -0.00000000000E+00  0.00000000000E+00  0.73554587013E+03  0.73554587013E+03  0.00000000000E+00 0.  1.
          1   -1    0    0  501    0  0.00000000000E+00 -0.00000000000E+00 -0.83223998269E+03  0.83223998269E+03  0.00000000000E+00 0. -1.
         23    2    1    2    0    0  0.40226704879E+03 -0.38292380360E+03  0.32295361294E+03  0.64883108855E+03  0.90737684867E+02 0.  0.
    5000000    2    1    2    0    0 -0.40226704879E+03  0.38292380360E+03 -0.41964772549E+03  0.91895476427E+03  0.59993685281E+03 0.  0.
         23    2    4    4    0    0 -0.48383014381E+03  0.10763222803E+03 -0.18155141175E+03  0.53493540610E+03  0.86710259038E+02 0.  0.
         23    2    4    4    0    0  0.81563095022E+02  0.27529157557E+03 -0.23809631374E+03  0.38401935817E+03  0.91340148807E+02 0.  0.
          3    1    3    3  502    0  0.19990748660E+03 -0.23724384293E+03  0.14469805309E+03  0.34232319637E+03  0.00000000000E+00 0. -1.
         -3    1    3    3    0  502  0.20235956219E+03 -0.14567996067E+03  0.17825555985E+03  0.30650789218E+03  0.00000000000E+00 0.  1.
         11    1    5    5    0    0 -0.22641624321E+03  0.13741617327E+02 -0.56602895077E+02  0.23378844062E+03  0.00000000000E+00 0. -1.
        -11    1    5    5    0    0 -0.25741390060E+03  0.93890610705E+02 -0.12494851667E+03  0.30114696549E+03  0.00000000000E+00 0.  1.
          1    1    6    6  503    0  0.10200773500E+03  0.23016430269E+03 -0.19912165966E+03  0.32098383072E+03  0.00000000000E+00 0. -1.
         -1    1    6    6    0  503 -0.20444639978E+02  0.45127272871E+02 -0.38974654079E+02  0.63035527452E+02  0.00000000000E+00 0.  1.
<mgrwt>
<rscale>  0 0.68085763E+03</rscale>
<asrwt>0</asrwt>
<pdfrwt beam="1">  1        1 0.12803692E+00 0.68085763E+03</pdfrwt>
<pdfrwt beam="2">  1       -1 0.11316090E+00 0.68085763E+03</pdfrwt>
<totfact> 0.15361832E+01</totfact>
</mgrwt>
</event>
<event>
12    1  0.1338445E-007  0.4796799E+03  0.7818608E-02  0.1019223E+00
         -2   -1    0    0    0  501 -0.00000000000E+00  0.00000000000E+00  0.47507613750E+03  0.47507613750E+03  0.00000000000E+00 0. -1.
          2   -1    0    0  501    0  0.00000000000E+00 -0.00000000000E+00 -0.90618090081E+03  0.90618090081E+03  0.00000000000E+00 0.  1.
         23    2    1    2    0    0 -0.33407679033E+03 -0.13127872738E+03 -0.55833433707E+03  0.67040519401E+03  0.94151399927E+02 0.  0.
    5000000    2    1    2    0    0  0.33407679033E+03  0.13127872738E+03  0.12722957376E+03  0.71085184429E+03  0.60023459913E+03 0.  0.
         23    2    4    4    0    0  0.38257161036E+03 -0.48297634064E+02 -0.96013738694E+02  0.40759779181E+03  0.90684195774E+02 0.  0.
         23    2    4    4    0    0 -0.48494820028E+02  0.17957636144E+03  0.22324331245E+03  0.30325405248E+03  0.86752675080E+02 0.  0.
          1    1    3    3  502    0 -0.16484329888E+03 -0.36320541988E+02 -0.19052138172E+03  0.25454055050E+03  0.00000000000E+00 0. -1.
         -1    1    3    3    0  502 -0.16923349145E+03 -0.94958185390E+02 -0.36781295535E+03  0.41586464351E+03  0.00000000000E+00 0.  1.
         13    1    5    5    0    0  0.15496951341E+03  0.14024655765E+02 -0.68519390610E+02  0.17002102207E+03  0.00000000000E+00 0. -1.
        -13    1    5    5    0    0  0.22760209694E+03 -0.62322289828E+02 -0.27494348084E+02  0.23757676974E+03  0.00000000000E+00 0.  1.
          4    1    6    6  503    0 -0.71274182924E+02  0.10467666414E+03  0.14609736583E+03  0.19334335642E+03  0.00000000000E+00 0. -1.
         -4    1    6    6    0  503  0.22779362896E+02  0.74899697297E+02  0.77145946620E+02  0.10991069606E+03  0.00000000000E+00 0.  1.
<mgrwt>
<rscale>  0 0.47967994E+03</rscale>
<asrwt>0</asrwt>
<pdfrwt beam="1">  1        2 0.13941245E+00 0.47967994E+03</pdfrwt>
<pdfrwt beam="2">  1       -2 0.73088637E-01 0.47967994E+03</pdfrwt>
<totfact> 0.51223022E+01</totfact>
</mgrwt>
</event>
<event>
12    1  0.1338445E-007  0.1246912E+04  0.7818608E-02  0.9072757E-01
          2   -1    0    0  501    0  0.00000000000E+00  0.00000000000E+00  0.24799712197E+04  0.24799712197E+04  0.00000000000E+00 0. -1.
         -2   -1    0    0    0  501 -0.00000000000E+00 -0.00000000000E+00 -0.80826853712E+03  0.80826853712E+03  0.00000000000E+00 0.  1.
         23    2    1    2    0    0  0.22907940094E+03  0.11584083680E+04  0.37880768616E+02  0.11849519045E+04  0.91042541576E+02 0.  0.
    5000000    2    1    2    0    0 -0.22907940094E+03 -0.11584083680E+04  0.16338219140E+04  0.21032878523E+04  0.60004868475E+03 0.  0.
         23    2    4    4    0    0  0.18584950973E+03 -0.31353908712E+03  0.53789204787E+03  0.65579536847E+03  0.88842054955E+02 0.  0.
         23    2    4    4    0    0 -0.41492891067E+03 -0.84486928089E+03  0.10959298661E+04  0.14474924838E+04  0.90565537865E+02 0.  0.
          1    1    3    3  502    0  0.12424934867E+03  0.47429960735E+03  0.49191328103E+02  0.49276546646E+03  0.00000000000E+00 0. -1.
         -1    1    3    3    0  502  0.10483005227E+03  0.68410876066E+03 -0.11310559488E+02  0.69218643805E+03  0.00000000000E+00 0.  1.
         13    1    5    5    0    0  0.16483402001E+03 -0.29558855280E+03  0.52651288811E+03  0.62590627737E+03  0.00000000000E+00 0.  1.
        -13    1    5    5    0    0  0.21015489714E+02 -0.17950534319E+02  0.11379159761E+02  0.29889091106E+02  0.00000000000E+00 0. -1.
          2    1    6    6  503    0 -0.21021973202E+03 -0.32995676178E+03  0.43687086184E+03  0.58644688617E+03  0.00000000000E+00 0. -1.
         -2    1    6    6    0  503 -0.20470917864E+03 -0.51491251911E+03  0.65905900427E+03  0.86104559767E+03  0.00000000000E+00 0.  1.
<mgrwt>
<rscale>  0 0.12469122E+04</rscale>
<asrwt>0</asrwt>
<pdfrwt beam="1">  1        2 0.38153403E+00 0.12469122E+04</pdfrwt>
<pdfrwt beam="2">  1       -2 0.12434901E+00 0.12469122E+04</pdfrwt>
<totfact> 0.16927008E+00</totfact>
</mgrwt>
</event>
<event>
12    1  0.1338445E-007  0.1030254E+04  0.7818608E-02  0.9275971E-01
         -2   -1    0    0    0  501 -0.00000000000E+00  0.00000000000E+00  0.78138364507E+03  0.78138364507E+03  0.00000000000E+00 0.  1.
          2   -1    0    0  501    0  0.00000000000E+00 -0.00000000000E+00 -0.17167221434E+04  0.17167221434E+04  0.00000000000E+00 0. -1.
         23    2    1    2    0    0 -0.83978478100E+03  0.58708466708E+03 -0.79993515508E+03  0.13030065835E+04  0.89571310006E+02 0.  0.
    5000000    2    1    2    0    0  0.83978478100E+03 -0.58708466708E+03 -0.13540334324E+03  0.11950992050E+04  0.60001763277E+03 0.  0.
         23    2    4    4    0    0  0.40078094598E+03 -0.23696563107E+03  0.21994769040E+03  0.52327223542E+03  0.93052506037E+02 0.  0.
         23    2    4    4    0    0  0.43900383502E+03 -0.35011903601E+03 -0.35535103365E+03  0.67182696955E+03  0.98840342758E+02 0.  0.
          1    1    3    3  502    0 -0.55217604456E+03  0.39139494856E+03 -0.58086957723E+03  0.89190686492E+03  0.00000000000E+00 0. -1.
         -1    1    3    3    0  502 -0.28760873644E+03  0.19568971852E+03 -0.21906557785E+03  0.41109971857E+03  0.00000000000E+00 0.  1.
         11    1    5    5    0    0  0.16600763392E+03 -0.62999893428E+02  0.12059376368E+03  0.21464011026E+03  0.00000000000E+00 0. -1.
        -11    1    5    5    0    0  0.23477331205E+03 -0.17396573764E+03  0.99353926722E+02  0.30863212516E+03  0.00000000000E+00 0.  1.
          2    1    6    6  503    0  0.11807998553E+03 -0.13673957429E+03 -0.15187595737E+03  0.23602309333E+03  0.00000000000E+00 0. -1.
         -2    1    6    6    0  503  0.32092384949E+03 -0.21337946172E+03 -0.20347507628E+03  0.43580387622E+03  0.00000000000E+00 0.  1.
<mgrwt>
<rscale>  0 0.10302543E+04</rscale>
<asrwt>0</asrwt>
<pdfrwt beam="1">  1        2 0.26411110E+00 0.10302543E+04</pdfrwt>
<pdfrwt beam="2">  1       -2 0.12021287E+00 0.10302543E+04</pdfrwt>
<totfact> 0.50357673E+00</totfact>
</mgrwt>
</event>
<event>
12    1  0.1338445E-007  0.6884103E+03  0.7818608E-02  0.9737260E-01
          2   -1    0    0  501    0  0.00000000000E+00  0.00000000000E+00  0.97572906106E+03  0.97572906106E+03  0.00000000000E+00 0. -1.
         -2   -1    0    0    0  501 -0.00000000000E+00 -0.00000000000E+00 -0.69652822468E+03  0.69652822468E+03  0.00000000000E+00 0.  1.
         23    2    1    2    0    0 -0.33193766574E+03  0.58827153243E+03 -0.10695778760E+03  0.68970474654E+03  0.89479937832E+02 0.  0.
    5000000    2    1    2    0    0  0.33193766574E+03 -0.58827153243E+03  0.38615862398E+03  0.98255253919E+03  0.60003749850E+03 0.  0.
         23    2    4    4    0    0  0.91353391444E+02 -0.10253447477E+03  0.39995317351E+03  0.43273698507E+03  0.91869454154E+02 0.  0.
         23    2    4    4    0    0  0.24058427430E+03 -0.48573705765E+03 -0.13794549528E+02  0.54981555412E+03  0.91025115978E+02 0.  0.
          1    1    3    3  502    0 -0.16343146206E+03  0.23773892752E+03 -0.90403814692E+01  0.28863708865E+03  0.00000000000E+00 0. -1.
         -1    1    3    3    0  502 -0.16850620368E+03  0.35053260491E+03 -0.97917406128E+02  0.40106765789E+03  0.00000000000E+00 0.  1.
         13    1    5    5    0    0  0.40691364061E+02 -0.90771963431E+02  0.33538956698E+03  0.34983067060E+03  0.00000000000E+00 0. -1.
        -13    1    5    5    0    0  0.50662027382E+02 -0.11762511343E+02  0.64563606528E+02  0.82906314473E+02  0.00000000000E+00 0.  1.
          2    1    6    6  503    0  0.11818441143E+03 -0.32536358750E+03 -0.29752809438E+02  0.34743956143E+03  0.00000000000E+00 0. -1.
         -2    1    6    6    0  503  0.12239986287E+03 -0.16037347016E+03  0.15958259910E+02  0.20237599269E+03  0.00000000000E+00 0.  1.
<mgrwt>
<rscale>  0 0.68841032E+03</rscale>
<asrwt>0</asrwt>
<pdfrwt beam="1">  1        2 0.15011216E+00 0.68841032E+03</pdfrwt>
<pdfrwt beam="2">  1       -2 0.10715819E+00 0.68841032E+03</pdfrwt>
<totfact> 0.18704840E+01</totfact>
</mgrwt>
</event>
<event>
12    1  0.1338445E-007  0.1841627E+04  0.7818608E-02  0.8684471E-01
         -1   -1    0    0    0  501 -0.00000000000E+00  0.00000000000E+00  0.30206313885E+04  0.30206313885E+04  0.00000000000E+00 0.  1.
          1   -1    0    0  501    0  0.00000000000E+00 -0.00000000000E+00 -0.16313076645E+04  0.16313076645E+04  0.00000000000E+00 0. -1.
         23    2    1    2    0    0  0.16564589643E+04  0.72740925828E+03  0.19535858152E+04  0.26641340945E+04  0.90179855792E+02 0.  0.
    5000000    2    1    2    0    0 -0.16564589643E+04 -0.72740925828E+03 -0.56426209125E+03  0.19878049585E+04  0.59999693000E+03 0.  0.
         23    2    4    4    0    0 -0.11938802581E+04 -0.73808582136E+03 -0.56970902149E+03  0.15177211366E+04  0.93746088206E+02 0.  0.
         23    2    4    4    0    0 -0.46257870621E+03  0.10676563085E+02  0.54469302315E+01  0.47008382188E+03  0.82801461981E+02 0.  0.
          3    1    3    3  502    0  0.67153991957E+03  0.32219071864E+03  0.85821572587E+03  0.11363568783E+04  0.00000000000E+00 0. -1.
         -3    1    3    3    0  502  0.98491904474E+03  0.40521853964E+03  0.10953700894E+04  0.15277772162E+04  0.00000000000E+00 0.  1.
         13    1    5    5    0    0 -0.21610321547E+03 -0.11893056158E+03 -0.64703159954E+02  0.25501289599E+03  0.00000000000E+00 0. -1.
        -13    1    5    5    0    0 -0.97777704263E+03 -0.61915525978E+03 -0.50500586153E+03  0.12627082406E+04  0.00000000000E+00 0.  1.
          4    1    6    6  503    0 -0.32471959084E+03 -0.28843947822E+02 -0.75369649846E+01  0.32608525242E+03  0.00000000000E+00 0.  1.
         -4    1    6    6    0  503 -0.13785911536E+03  0.39520510907E+02  0.12983895216E+02  0.14399856946E+03  0.00000000000E+00 0. -1.
<mgrwt>
<rscale>  0 0.18416269E+04</rscale>
<asrwt>0</asrwt>
<pdfrwt beam="1">  1        1 0.25097041E+00 0.18416269E+04</pdfrwt>
<pdfrwt beam="2">  1       -1 0.46471252E+00 0.18416269E+04</pdfrwt>
<totfact> 0.12293824E-02</totfact>
</mgrwt>
</event>
<event>
12    1  0.1338445E-007  0.7910226E+03  0.7818608E-02  0.9573103E-01
         -1   -1    0    0    0  501 -0.00000000000E+00  0.00000000000E+00  0.41087915914E+03  0.41087915914E+03  0.00000000000E+00 0. -1.
          1   -1    0    0  501    0  0.00000000000E+00 -0.00000000000E+00 -0.24236778362E+04  0.24236778362E+04  0.00000000000E+00 0.  1.
         23    2    1    2    0    0 -0.62712505703E+03 -0.36228601419E+03 -0.14642244167E+03  0.74440283242E+03  0.90327472365E+02 0.  0.
    5000000    2    1    2    0    0  0.62712505703E+03  0.36228601419E+03 -0.18663762354E+04  0.20901541629E+04  0.60070556806E+03 0.  0.
         23    2    4    4    0    0  0.38036871827E+03 -0.27902262412E+02 -0.44819859931E+03  0.59587601030E+03  0.93420218092E+02 0.  0.
         23    2    4    4    0    0  0.24675633876E+03  0.39018827661E+03 -0.14181776361E+04  0.14942781526E+04  0.92216093930E+02 0.  0.
          3    1    3    3  502    0 -0.15166631719E+03 -0.64023731792E+02 -0.11108381554E+01  0.16462971774E+03  0.00000000000E+00 0. -1.
         -3    1    3    3    0  502 -0.47545873984E+03 -0.29826228240E+03 -0.14531160351E+03  0.57977311468E+03  0.00000000000E+00 0.  1.
         11    1    5    5    0    0  0.11591938491E+03 -0.38333827584E+02 -0.95951353133E+02  0.15528505499E+03  0.00000000000E+00 0.  1.
        -11    1    5    5    0    0  0.26444933336E+03  0.10431565172E+02 -0.35224724617E+03  0.44059095531E+03  0.00000000000E+00 0. -1.
          2    1    6    6  503    0  0.18448343982E+03  0.21404663497E+03 -0.79685968513E+03  0.84547942571E+03  0.00000000000E+00 0. -1.
         -2    1    6    6    0  503  0.62272898936E+02  0.17614164164E+03 -0.62131795092E+03  0.64879872688E+03  0.00000000000E+00 0.  1.
<mgrwt>
<rscale>  0 0.79102258E+03</rscale>
<asrwt>0</asrwt>
<pdfrwt beam="1">  1        1 0.37287351E+00 0.79102258E+03</pdfrwt>
<pdfrwt beam="2">  1       -1 0.63212178E-01 0.79102258E+03</pdfrwt>
<totfact> 0.40810704E+00</totfact>
</mgrwt>
</event>
<event>
12    1  0.1338445E-007  0.5676001E+03  0.7818608E-02  0.9975003E-01
          1   -1    0    0  501    0  0.00000000000E+00  0.00000000000E+00  0.89804837083E+03  0.89804837083E+03  0.00000000000E+00 0. -1.
         -1   -1    0    0    0  501 -0.00000000000E+00 -0.00000000000E+00 -0.50693412230E+03  0.50693412230E+03  0.00000000000E+00 0.  1.
         23    2    1    2    0    0  0.90058248391E+02 -0.42871044269E+03 -0.16516257677E+03  0.47658669274E+03  0.89179970571E+02 0.  0.
    5000000    2    1    2    0    0 -0.90058248391E+02  0.42871044269E+03  0.55627682530E+03  0.92839580040E+03  0.60047624770E+03 0.  0.
         23    2    4    4    0    0 -0.20610321934E+03  0.50446753866E+03  0.52183735135E+03  0.75996616406E+03  0.90930273668E+02 0.  0.
         23    2    4    4    0    0  0.11604497095E+03 -0.75757095964E+02  0.34439473944E+02  0.16842963633E+03  0.89313448921E+02 0.  0.
          2    1    3    3  502    0 -0.82587693971E+01 -0.15531727867E+03 -0.42650009612E+02  0.16127829255E+03  0.00000000000E+00 0. -1.
         -2    1    3    3    0  502  0.98317017788E+02 -0.27339316402E+03 -0.12251256716E+03  0.31530840019E+03  0.00000000000E+00 0.  1.
         11    1    5    5    0    0 -0.10879452969E+03  0.34688156694E+03  0.38628591358E+03  0.53045252210E+03  0.00000000000E+00 0.  1.
        -11    1    5    5    0    0 -0.97308689650E+02  0.15758597172E+03  0.13555143777E+03  0.22951364196E+03  0.00000000000E+00 0. -1.
          2    1    6    6  503    0  0.78741408225E+02 -0.38477069407E+02  0.63488851466E+02  0.10821981565E+03  0.00000000000E+00 0.  1.
         -2    1    6    6    0  503  0.37303562727E+02 -0.37280026557E+02 -0.29049377522E+02  0.60209820682E+02  0.00000000000E+00 0. -1.
<mgrwt>
<rscale>  0 0.56760008E+03</rscale>
<asrwt>0</asrwt>
<pdfrwt beam="1">  1        1 0.13816129E+00 0.56760008E+03</pdfrwt>
<pdfrwt beam="2">  1       -1 0.77989865E-01 0.56760008E+03</pdfrwt>
<totfact> 0.31560726E+01</totfact>
</mgrwt>
</event>
<event>
12    1  0.1853468E-007  0.1649998E+04  0.7818608E-02  0.8790408E-01
         -4   -1    0    0    0  501 -0.00000000000E+00  0.00000000000E+00  0.12540193487E+04  0.12540193487E+04  0.00000000000E+00 0.  1.
          4   -1    0    0  501    0  0.00000000000E+00 -0.00000000000E+00 -0.22354811386E+04  0.22354811386E+04  0.00000000000E+00 0. -1.
         23    2    1    2    0    0  0.36844758953E+03 -0.15607728738E+04 -0.71052651921E+03  0.17561080759E+04  0.85452032223E+02 0.  0.
    5000000    2    1    2    0    0 -0.36844758953E+03  0.15607728738E+04 -0.27093527076E+03  0.17333924114E+04  0.59956462648E+03 0.  0.
         23    2    4    4    0    0 -0.46511196237E+03  0.83977327765E+03 -0.26865765037E+03  0.10001572557E+04  0.81174551004E+02 0.  0.
         23    2    4    4    0    0  0.96664372839E+02  0.72099959614E+03 -0.22776203854E+01  0.73323515570E+03  0.91892259648E+02 0.  0.
          1    1    3    3  502    0  0.91667668265E+02 -0.54812386927E+03 -0.22692637870E+03  0.60028186614E+03  0.00000000000E+00 0. -1.
         -1    1    3    3    0  502  0.27677992126E+03 -0.10126490045E+04 -0.48360014051E+03  0.11558262097E+04  0.00000000000E+00 0.  1.
         13    1    5    5    0    0 -0.25041616856E+03  0.38118243898E+03 -0.10503287131E+03  0.46801732160E+03  0.00000000000E+00 0.  1.
        -13    1    5    5    0    0 -0.21469579380E+03  0.45859083867E+03 -0.16362477907E+03  0.53213993414E+03  0.00000000000E+00 0. -1.
          3    1    6    6  503    0  0.53130815215E+02  0.61700915117E+03 -0.17108709553E+02  0.61952875970E+03  0.00000000000E+00 0. -1.
         -3    1    6    6    0  503  0.43533557624E+02  0.10399044497E+03  0.14831089168E+02  0.11370639600E+03  0.00000000000E+00 0.  1.
<mgrwt>
<rscale>  0 0.16499976E+04</rscale>
<asrwt>0</asrwt>
<pdfrwt beam="1">  1        4 0.34392017E+00 0.16499976E+04</pdfrwt>
<pdfrwt beam="2">  1       -4 0.19292605E+00 0.16499976E+04</pdfrwt>
<totfact> 0.43159247E-03</totfact>
</mgrwt>
</event>
<event>
12    1  0.1338445E-007  0.8902076E+03  0.7818608E-02  0.9437906E-01
          2   -1    0    0  501    0  0.00000000000E+00  0.00000000000E+00  0.21300989609E+04  0.21300989609E+04  0.00000000000E+00 0. -1.
         -2   -1    0    0    0  501 -0.00000000000E+00 -0.00000000000E+00 -0.81846101265E+03  0.81846101265E+03  0.00000000000E+00 0.  1.
         23    2    1    2    0    0 -0.80541414617E+03  0.27473814892E+03 -0.40030003371E+03  0.94480926007E+03  0.90837346985E+02 0.  0.
    5000000    2    1    2    0    0  0.80541414617E+03 -0.27473814892E+03  0.17119379820E+04  0.20037507135E+04  0.60009355138E+03 0.  0.
         23    2    4    4    0    0  0.10783279773E+03  0.80213725208E+02  0.59178236733E+02  0.17275522655E+03  0.90995332967E+02 0.  0.
         23    2    4    4    0    0  0.69758134844E+03 -0.35495187413E+03  0.16527597453E+04  0.18309954870E+04  0.91209248878E+02 0.  0.
          4    1    3    3  502    0 -0.15405918288E+02 -0.38287665919E+01  0.11154880411E+01  0.15913707471E+02  0.00000000000E+00 0. -1.
         -4    1    3    3    0  502 -0.79000822788E+03  0.27856691552E+03 -0.40141552175E+03  0.92889555260E+03  0.00000000000E+00 0.  1.
         11    1    5    5    0    0  0.55008142309E+02  0.10609399715E+02 -0.15154807100E+02  0.58035534466E+02  0.00000000000E+00 0. -1.
        -11    1    5    5    0    0  0.52824655417E+02  0.69604325493E+02  0.74333043833E+02  0.11471969209E+03  0.00000000000E+00 0.  1.
          2    1    6    6  503    0  0.43414702301E+03 -0.23958791270E+03  0.94896477967E+03  0.10707101188E+04  0.00000000000E+00 0.  1.
         -2    1    6    6    0  503  0.26343432543E+03 -0.11536396143E+03  0.70379496560E+03  0.76028536814E+03  0.00000000000E+00 0. -1.
<mgrwt>
<rscale>  0 0.89020764E+03</rscale>
<asrwt>0</asrwt>
<pdfrwt beam="1">  1        2 0.32770753E+00 0.89020764E+03</pdfrwt>
<pdfrwt beam="2">  1       -2 0.12591708E+00 0.89020764E+03</pdfrwt>
<totfact> 0.27040223E+00</totfact>
</mgrwt>
</event>
<event>
12    1  0.1338445E-007  0.1095567E+04  0.7818608E-02  0.9209523E-01
         -2   -1    0    0    0  501 -0.00000000000E+00  0.00000000000E+00  0.32352543091E+04  0.32352543091E+04  0.00000000000E+00 0. -1.
          2   -1    0    0  501    0  0.00000000000E+00 -0.00000000000E+00 -0.14812980372E+04  0.14812980372E+04  0.00000000000E+00 0.  1.
         23    2    1    2    0    0  0.43395071560E+03  0.93640337710E+03  0.28891313820E+04  0.30692573901E+04  0.89979308577E+02 0.  0.
    5000000    2    1    2    0    0 -0.43395071560E+03 -0.93640337710E+03 -0.11351751102E+04  0.16472949562E+04  0.59982800335E+03 0.  0.
         23    2    4    4    0    0  0.10953747325E+03 -0.72945975920E+02 -0.88961761152E+02  0.18319470166E+03  0.91249823683E+02 0.  0.
         23    2    4    4    0    0 -0.54348818884E+03 -0.86345740118E+03 -0.10462133490E+04  0.14641002545E+04  0.89939359915E+02 0.  0.
          2    1    3    3  502    0  0.41301148280E+02  0.70712606703E+02  0.30623143538E+03  0.31699171852E+03  0.00000000000E+00 0. -1.
         -2    1    3    3    0  502  0.39264956732E+03  0.86569077040E+03  0.25828999467E+04  0.27522656716E+04  0.00000000000E+00 0.  1.
         11    1    5    5    0    0  0.55925929472E+02 -0.56753460758E+02 -0.98173613618E+02  0.12643861477E+03  0.00000000000E+00 0.  1.
        -11    1    5    5    0    0  0.53611543773E+02 -0.16192515162E+02  0.92118524656E+01  0.56756086888E+02  0.00000000000E+00 0. -1.
          3    1    6    6  503    0 -0.26536058920E+03 -0.35225664328E+03 -0.48679825205E+03  0.65686644246E+03  0.00000000000E+00 0. -1.
         -3    1    6    6    0  503 -0.27812759965E+03 -0.51120075790E+03 -0.55941509699E+03  0.80723381204E+03  0.00000000000E+00 0.  1.
<mgrwt>
<rscale>  0 0.10955671E+04</rscale>
<asrwt>0</asrwt>
<pdfrwt beam="1">  1        2 0.22789201E+00 0.10955671E+04</pdfrwt>
<pdfrwt beam="2">  1       -2 0.49773143E+00 0.10955671E+04</pdfrwt>
<totfact> 0.22014693E-02</totfact>
</mgrwt>
</event>
<event>
12    1  0.1441962E-007  0.5882142E+03  0.7818608E-02  0.9930164E-01
          1   -1    0    0  501    0  0.00000000000E+00  0.00000000000E+00  0.89435724035E+03  0.89435724035E+03  0.00000000000E+00 0. -1.
         -1   -1    0    0    0  501 -0.00000000000E+00 -0.00000000000E+00 -0.80143458382E+03  0.80143458382E+03  0.00000000000E+00 0.  1.
         23    2    1    2    0    0  0.46723922001E+03  0.20020820217E+03 -0.49400936697E+03  0.71455147652E+03  0.90237159799E+02 0.  0.
    5000000    2    1    2    0    0 -0.46723922001E+03 -0.20020820217E+03  0.58693202350E+03  0.98124034765E+03  0.59995633734E+03 0.  0.
         23    2    4    4    0    0 -0.46714281671E+03 -0.28417315639E+03  0.22249618479E+03  0.59692112149E+03  0.88506943382E+02 0.  0.
         23    2    4    4    0    0 -0.96403301516E-01  0.83964954212E+02  0.36443583871E+03  0.38431922616E+03  0.88530583591E+02 0.  0.
          3    1    3    3  502    0  0.24629321669E+03  0.14264197478E+03 -0.23346770658E+03  0.36812260399E+03  0.00000000000E+00 0. -1.
         -3    1    3    3    0  502  0.22094600332E+03  0.57566227395E+02 -0.26054166039E+03  0.34642887252E+03  0.00000000000E+00 0.  1.
         13    1    5    5    0    0 -0.15888711852E+03 -0.14688807126E+03  0.91823840047E+02  0.23505922554E+03  0.00000000000E+00 0.  1.
        -13    1    5    5    0    0 -0.30825569818E+03 -0.13728508512E+03  0.13067234474E+03  0.36186189595E+03  0.00000000000E+00 0. -1.
          1    1    6    6  503    0 -0.31133999893E+02  0.67935099840E+02  0.15598857989E+03  0.17296514329E+03  0.00000000000E+00 0. -1.
         -1    1    6    6    0  503  0.31037596592E+02  0.16029854372E+02  0.20844725882E+03  0.21135408286E+03  0.00000000000E+00 0.  1.
<mgrwt>
<rscale>  0 0.58821417E+03</rscale>
<asrwt>0</asrwt>
<pdfrwt beam="1">  1        1 0.13759342E+00 0.58821417E+03</pdfrwt>
<pdfrwt beam="2">  1       -1 0.12329763E+00 0.58821417E+03</pdfrwt>
<totfact> 0.11253161E+01</totfact>
</mgrwt>
</event>
<event>
12    1  0.1338445E-007  0.8875753E+03  0.7818608E-02  0.9441248E-01
          1   -1    0    0  501    0  0.00000000000E+00  0.00000000000E+00  0.14935647211E+04  0.14935647211E+04  0.00000000000E+00 0. -1.
         -1   -1    0    0    0  501 -0.00000000000E+00 -0.00000000000E+00 -0.54107960255E+03  0.54107960255E+03  0.00000000000E+00 0.  1.
         23    2    1    2    0    0 -0.70842444922E+03  0.36062521419E+03  0.37881554065E+03  0.88527898522E+03  0.91114886101E+02 0.  0.
    5000000    2    1    2    0    0  0.70842444922E+03 -0.36062521419E+03  0.57366957788E+03  0.11493653384E+04  0.60002345887E+03 0.  0.
         23    2    4    4    0    0  0.46414846437E+03  0.76023305275E+02  0.20454100873E+03  0.52086113131E+03  0.90807235058E+02 0.  0.
         23    2    4    4    0    0  0.24427598485E+03 -0.43664851946E+03  0.36912856915E+03  0.62850420710E+03  0.91809321171E+02 0.  0.
          2    1    3    3  502    0 -0.17652575884E+03  0.82504766702E+02  0.13690137075E+03  0.23813938224E+03  0.00000000000E+00 0. -1.
         -2    1    3    3    0  502 -0.53189869038E+03  0.27812044749E+03  0.24191416990E+03  0.64713960297E+03  0.00000000000E+00 0.  1.
         11    1    5    5    0    0  0.38994014152E+03  0.91906015579E+02  0.15168265804E+03  0.42837793876E+03  0.00000000000E+00 0. -1.
        -11    1    5    5    0    0  0.74208322850E+02 -0.15882710304E+02  0.52858350689E+02  0.92483192551E+02  0.00000000000E+00 0.  1.
          3    1    6    6  503    0  0.19169174901E+03 -0.28870732504E+03  0.21134446424E+03  0.40591147894E+03  0.00000000000E+00 0. -1.
         -3    1    6    6    0  503  0.52584235836E+02 -0.14794119442E+03  0.15778410491E+03  0.22259272815E+03  0.00000000000E+00 0.  1.
<mgrwt>
<rscale>  0 0.88757529E+03</rscale>
<asrwt>0</asrwt>
<pdfrwt beam="1">  1        1 0.22977919E+00 0.88757529E+03</pdfrwt>
<pdfrwt beam="2">  1       -1 0.83243017E-01 0.88757529E+03</pdfrwt>
<totfact> 0.96481509E+00</totfact>
</mgrwt>
</event>
<event>
12    1  0.1338445E-007  0.1368283E+04  0.7818608E-02  0.8977103E-01
          1   -1    0    0  501    0  0.00000000000E+00  0.00000000000E+00  0.20495671455E+04  0.20495671455E+04  0.00000000000E+00 0. -1.
         -1   -1    0    0    0  501 -0.00000000000E+00 -0.00000000000E+00 -0.10750591033E+04  0.10750591033E+04  0.00000000000E+00 0.  1.
         23    2    1    2    0    0 -0.13007818966E+04 -0.13490935198E+03  0.10559793531E+04  0.16833998539E+04  0.92242061508E+02 0.  0.
    5000000    2    1    2    0    0  0.13007818966E+04  0.13490935198E+03 -0.81471310827E+02  0.14412263950E+04  0.60021818631E+03 0.  0.
         23    2    4    4    0    0  0.23969782784E+03 -0.19634100336E+03 -0.27853430354E+02  0.32434117322E+03  0.91741728728E+02 0.  0.
         23    2    4    4    0    0  0.10610840688E+04  0.33125035534E+03 -0.53617880473E+02  0.11168852217E+04  0.94506732491E+02 0.  0.
          4    1    3    3  502    0 -0.83572652656E+03 -0.13101797289E+03  0.68294755660E+03  0.10872083064E+04  0.00000000000E+00 0. -1.
         -4    1    3    3    0  502 -0.46505537007E+03 -0.38913790956E+01  0.37303179650E+03  0.59619154746E+03  0.00000000000E+00 0.  1.
         13    1    5    5    0    0  0.21927033463E+03 -0.17307410154E+03  0.47399380565E+01  0.27938609716E+03  0.00000000000E+00 0. -1.
        -13    1    5    5    0    0  0.20427493211E+02 -0.23266901820E+02 -0.32593368411E+02  0.44955076060E+02  0.00000000000E+00 0.  1.
          3    1    6    6  503    0  0.28374553450E+03  0.13104909180E+03 -0.25480548649E+01  0.31255701143E+03  0.00000000000E+00 0.  1.
         -3    1    6    6    0  503  0.77733853429E+03  0.20020126353E+03 -0.51069825608E+02  0.80432821031E+03  0.00000000000E+00 0. -1.
<mgrwt>
<rscale>  0 0.13682827E+04</rscale>
<asrwt>0</asrwt>
<pdfrwt beam="1">  1        1 0.31531802E+00 0.13682827E+04</pdfrwt>
<pdfrwt beam="2">  1       -1 0.16539371E+00 0.13682827E+04</pdfrwt>
<totfact> 0.70627551E-01</totfact>
</mgrwt>
</event>
<event>
12    1  0.1338445E-007  0.1891234E+04  0.7818608E-02  0.8659232E-01
          2   -1    0    0  501    0  0.00000000000E+00  0.00000000000E+00  0.30428672924E+04  0.30428672924E+04  0.00000000000E+00 0. -1.
         -2   -1    0    0    0  501 -0.00000000000E+00 -0.00000000000E+00 -0.13355060967E+04  0.13355060967E+04  0.00000000000E+00 0.  1.
         23    2    1    2    0    0 -0.33818077021E+03 -0.18364764923E+04  0.15374969567E+03  0.18759514852E+04  0.92427624613E+02 0.  0.
    5000000    2    1    2    0    0  0.33818077021E+03  0.18364764923E+04  0.15536115000E+04  0.25024219040E+04  0.60116100391E+03 0.  0.
         23    2    4    4    0    0  0.13232559769E+03  0.13147119158E+03  0.41574283749E+02  0.21229153199E+03  0.92436656508E+02 0.  0.
         23    2    4    4    0    0  0.20585517252E+03  0.17050053007E+04  0.15120372162E+04  0.22901303720E+04  0.94979734629E+02 0.  0.
          1    1    3    3  502    0 -0.25645501574E+03 -0.12599425010E+04  0.14132644733E+03  0.12935213356E+04  0.00000000000E+00 0. -1.
         -1    1    3    3    0  502 -0.81725754465E+02 -0.57653399128E+03  0.12423248336E+02  0.58243014959E+03  0.00000000000E+00 0.  1.
         13    1    5    5    0    0  0.12420039660E+03  0.13712700666E+03  0.57323470351E+02  0.19368927364E+03  0.00000000000E+00 0.  1.
        -13    1    5    5    0    0  0.81252010872E+01 -0.56558150806E+01 -0.15749186602E+02  0.18602258346E+02  0.00000000000E+00 0. -1.
          3    1    6    6  503    0  0.62403097564E+01  0.33025467069E+03  0.31317198405E+03  0.45517445070E+03  0.00000000000E+00 0. -1.
         -3    1    6    6    0  503  0.19961486276E+03  0.13747506300E+04  0.11988652322E+04  0.18349559213E+04  0.00000000000E+00 0.  1.
<mgrwt>
<rscale>  0 0.18912341E+04</rscale>
<asrwt>0</asrwt>
<pdfrwt beam="1">  1        2 0.46813343E+00 0.18912341E+04</pdfrwt>
<pdfrwt beam="2">  1       -2 0.20546248E+00 0.18912341E+04</pdfrwt>
<totfact> 0.18087840E-01</totfact>
</mgrwt>
</event>
<event>
12    1  0.1338445E-007  0.4516783E+03  0.7818608E-02  0.1027223E+00
          1   -1    0    0  501    0  0.00000000000E+00  0.00000000000E+00  0.10386484966E+04  0.10386484966E+04  0.00000000000E+00 0.  1.
         -1   -1    0    0    0  501 -0.00000000000E+00 -0.00000000000E+00 -0.38134714675E+03  0.38134714675E+03  0.00000000000E+00 0. -1.
         23    2    1    2    0    0 -0.27989122070E+03  0.32989199926E+03  0.49271323374E+03  0.66227256194E+03  0.93117071427E+02 0.  0.
    5000000    2    1    2    0    0  0.27989122070E+03 -0.32989199926E+03  0.16458811608E+03  0.75772308138E+03  0.59990598722E+03 0.  0.
         23    2    4    4    0    0  0.13055538668E+03 -0.20615675100E+03 -0.20310101319E+03  0.33173882294E+03  0.96204522309E+02 0.  0.
         23    2    4    4    0    0  0.14933583402E+03 -0.12373524826E+03  0.36768912927E+03  0.42598425845E+03  0.93035959049E+02 0.  0.
          1    1    3    3  502    0 -0.23852302828E+03  0.22173330312E+03  0.38316395685E+03  0.50286530061E+03  0.00000000000E+00 0. -1.
         -1    1    3    3    0  502 -0.41368192420E+02  0.10815869615E+03  0.10954927689E+03  0.15940726133E+03  0.00000000000E+00 0.  1.
         11    1    5    5    0    0 -0.17516450206E+01  0.41299541619E+00 -0.33409760565E+02  0.33458196701E+02  0.00000000000E+00 0.  1.
        -11    1    5    5    0    0  0.13230703170E+03 -0.20656974642E+03 -0.16969125262E+03  0.29828062624E+03  0.00000000000E+00 0. -1.
          3    1    6    6  503    0  0.14931794484E+03 -0.76918720527E+02  0.27769394448E+03  0.32454008229E+03  0.00000000000E+00 0. -1.
         -3    1    6    6    0  503  0.17889188105E-01 -0.46816527737E+02  0.89995184791E+02  0.10144417615E+03  0.00000000000E+00 0.  1.
<mgrwt>
<rscale>  0 0.45167835E+03</rscale>
<asrwt>0</asrwt>
<pdfrwt beam="1">  1        1 0.15979208E+00 0.45167835E+03</pdfrwt>
<pdfrwt beam="2">  1       -1 0.58668792E-01 0.45167835E+03</pdfrwt>
<totfact> 0.44340331E+01</totfact>
</mgrwt>
</event>
<event>
12    1  0.1338445E-007  0.9897925E+03  0.7818608E-02  0.9319812E-01
         -1   -1    0    0    0  501 -0.00000000000E+00  0.00000000000E+00  0.87361753059E+03  0.87361753059E+03  0.00000000000E+00 0.  1.
          1   -1    0    0  501    0  0.00000000000E+00 -0.00000000000E+00 -0.11714726418E+04  0.11714726418E+04  0.00000000000E+00 0. -1.
         23    2    1    2    0    0 -0.91403986811E+03 -0.40481902492E+01 -0.24377010130E+03  0.95028798978E+03  0.90211600723E+02 0.  0.
    5000000    2    1    2    0    0  0.91403986811E+03  0.40481902492E+01 -0.54085009928E+02  0.10948021826E+04  0.60015111634E+03 0.  0.
         23    2    4    4    0    0  0.22327366179E+03 -0.23496471095E+03 -0.11453446977E+03  0.35590415067E+03  0.92141609797E+02 0.  0.
         23    2    4    4    0    0  0.69076620632E+03  0.23901290120E+03  0.60449459844E+02  0.73889803196E+03  0.89616101786E+02 0.  0.
          2    1    3    3  502    0 -0.84998569939E+03  0.15725255891E+02 -0.21233685927E+03  0.87624763318E+03  0.00000000000E+00 0. -1.
         -2    1    3    3    0  502 -0.64054168718E+02 -0.19773446140E+02 -0.31433242025E+02  0.74040356608E+02  0.00000000000E+00 0.  1.
         13    1    5    5    0    0  0.11942739090E+03 -0.17402313273E+03 -0.10326848930E+03  0.23497092012E+03  0.00000000000E+00 0.  1.
        -13    1    5    5    0    0  0.10384627089E+03 -0.60941578222E+02 -0.11265980476E+02  0.12093323055E+03  0.00000000000E+00 0. -1.
          3    1    6    6  503    0  0.56366303561E+03  0.19485957661E+03  0.84057260302E+02  0.60228888029E+03  0.00000000000E+00 0. -1.
         -3    1    6    6    0  503  0.12710317070E+03  0.44153324590E+02 -0.23607800458E+02  0.13660915166E+03  0.00000000000E+00 0.  1.
<mgrwt>
<rscale>  0 0.98979247E+03</rscale>
<asrwt>0</asrwt>
<pdfrwt beam="1">  1        1 0.18022656E+00 0.98979247E+03</pdfrwt>
<pdfrwt beam="2">  1       -1 0.13440270E+00 0.98979247E+03</pdfrwt>
<totfact> 0.52475964E+00</totfact>
</mgrwt>
</event>
<event>
12    1  0.1338445E-007  0.5160346E+03  0.7818608E-02  0.1009676E+00
         -3   -1    0    0    0  501 -0.00000000000E+00  0.00000000000E+00  0.68412793611E+03  0.68412793611E+03  0.00000000000E+00 0.  1.
          3   -1    0    0  501    0  0.00000000000E+00 -0.00000000000E+00 -0.66938302866E+03  0.66938302866E+03  0.00000000000E+00 0. -1.
         23    2    1    2    0    0  0.30544774134E+03  0.22187499033E+03 -0.37885619153E+03  0.54259227181E+03  0.91364793758E+02 0.  0.
    5000000    2    1    2    0    0 -0.30544774134E+03 -0.22187499033E+03  0.39360109898E+03  0.81091869296E+03  0.60011704478E+03 0.  0.
         23    2    4    4    0    0  0.42311894930E+02  0.14012692271E+03  0.74089857845E+01  0.17130938808E+03  0.88691388838E+02 0.  0.
         23    2    4    4    0    0 -0.34775963627E+03 -0.36200191304E+03  0.38619211320E+03  0.63960930487E+03  0.89294820199E+02 0.  0.
          3    1    3    3  502    0  0.16751948210E+03  0.14389784870E+03 -0.27689716625E+03  0.35417708624E+03  0.00000000000E+00 0. -1.
         -3    1    3    3    0  502  0.13792825924E+03  0.77977141635E+02 -0.10195902528E+03  0.18841518556E+03  0.00000000000E+00 0.  1.
         13    1    5    5    0    0  0.42673411045E+02  0.10854265092E+03  0.42467014641E+02  0.12412080572E+03  0.00000000000E+00 0.  1.
        -13    1    5    5    0    0 -0.36151611503E+00  0.31584271788E+02 -0.35058028857E+02  0.47188582365E+02  0.00000000000E+00 0. -1.
          4    1    6    6  503    0 -0.29804227331E+03 -0.33346731845E+03  0.30963896926E+03  0.54397237103E+03  0.00000000000E+00 0. -1.
         -4    1    6    6    0  503 -0.49717362957E+02 -0.28534594590E+02  0.76553143938E+02  0.95636933842E+02  0.00000000000E+00 0.  1.
<mgrwt>
<rscale>  0 0.51603463E+03</rscale>
<asrwt>0</asrwt>
<pdfrwt beam="1">  1        3 0.10298200E+00 0.51603463E+03</pdfrwt>
<pdfrwt beam="2">  1       -3 0.10525045E+00 0.51603463E+03</pdfrwt>
<totfact> 0.16551380E+00</totfact>
</mgrwt>
</event>
<event>
12    1  0.1338445E-007  0.2572164E+04  0.7818608E-02  0.8377718E-01
         -1   -1    0    0    0  501 -0.00000000000E+00  0.00000000000E+00  0.17326332307E+04  0.17326332307E+04  0.00000000000E+00 0.  1.
          1   -1    0    0  501    0  0.00000000000E+00 -0.00000000000E+00 -0.42594082843E+04  0.42594082843E+04  0.00000000000E+00 0. -1.
         23    2    1    2    0    0  0.25624700547E+04 -0.13721458556E+03 -0.21109352591E+04  0.33240840346E+04  0.91686295950E+02 0.  0.
    5000000    2    1    2    0    0 -0.25624700547E+04  0.13721458556E+03 -0.41583979447E+03  0.26679574804E+04  0.59999479892E+03 0.  0.
         23    2    4    4    0    0 -0.12388859311E+04  0.16376138029E+03 -0.47404545724E+03  0.13401234900E+04  0.97753430656E+02 0.  0.
         23    2    4    4    0    0 -0.13235841237E+04 -0.26546794737E+02  0.58205662774E+02  0.13278339903E+04  0.84708571152E+02 0.  0.
          4    1    3    3  502    0  0.12114761839E+04 -0.19403018700E+02 -0.98859237365E+03  0.15637665755E+04  0.00000000000E+00 0. -1.
         -4    1    3    3    0  502  0.13509938708E+04 -0.11781156686E+03 -0.11223428855E+04  0.17603174591E+04  0.00000000000E+00 0.  1.
         11    1    5    5    0    0 -0.63387906177E+03  0.67813029183E+02 -0.19229889613E+03  0.66586795788E+03  0.00000000000E+00 0. -1.
        -11    1    5    5    0    0 -0.60500686929E+03  0.95948351110E+02 -0.28174656111E+03  0.67425553217E+03  0.00000000000E+00 0.  1.
          3    1    6    6  503    0 -0.45420266718E+03 -0.49022942239E+02  0.14841688363E+02  0.45708159824E+03  0.00000000000E+00 0. -1.
         -3    1    6    6    0  503 -0.86938145648E+03  0.22476147501E+02  0.43363974411E+02  0.87075239211E+03  0.00000000000E+00 0.  1.
<mgrwt>
<rscale>  0 0.25721645E+04</rscale>
<asrwt>0</asrwt>
<pdfrwt beam="1">  1        1 0.65529357E+00 0.25721645E+04</pdfrwt>
<pdfrwt beam="2">  1       -1 0.26655896E+00 0.25721645E+04</pdfrwt>
<totfact> 0.25246693E-03</totfact>
</mgrwt>
</event>
<event>
12    1  0.1338445E-007  0.3179737E+03  0.7818608E-02  0.1076586E+00
          2   -1    0    0  501    0  0.00000000000E+00  0.00000000000E+00  0.41080353373E+03  0.41080353373E+03  0.00000000000E+00 0. -1.
         -2   -1    0    0    0  501 -0.00000000000E+00 -0.00000000000E+00 -0.63372274293E+03  0.63372274293E+03  0.00000000000E+00 0.  1.
         23    2    1    2    0    0 -0.17701375305E+03 -0.20944413590E+03  0.10455164113E+03  0.30803032668E+03  0.93546361018E+02 0.  0.
    5000000    2    1    2    0    0  0.17701375305E+03  0.20944413590E+03 -0.32747085033E+03  0.73649594997E+03  0.59999034298E+03 0.  0.
         23    2    4    4    0    0  0.78364372172E+02  0.48795461273E+01 -0.44769955357E+03  0.46331151428E+03  0.89765718370E+02 0.  0.
         23    2    4    4    0    0  0.98649380882E+02  0.20456458978E+03  0.12022870324E+03  0.27318443569E+03  0.92716897511E+02 0.  0.
          3    1    3    3  502    0 -0.59277551138E+02 -0.14223752726E+03  0.59260055446E+02  0.16509723317E+03  0.00000000000E+00 0. -1.
         -3    1    3    3    0  502 -0.11773620192E+03 -0.67206608643E+02  0.45291585682E+02  0.14293309351E+03  0.00000000000E+00 0.  1.
         11    1    5    5    0    0  0.65402681359E+02 -0.25510614383E+02 -0.39442567669E+03  0.40062440841E+03  0.00000000000E+00 0. -1.
        -11    1    5    5    0    0  0.12961690813E+02  0.30390160510E+02 -0.53273876878E+02  0.62687105869E+02  0.00000000000E+00 0.  1.
          4    1    6    6  503    0 -0.23330850417E+01 -0.76662310514E+01 -0.20164620828E+01  0.82632017812E+01  0.00000000000E+00 0.  1.
         -4    1    6    6    0  503  0.10098246592E+03  0.21223082083E+03  0.12224516533E+03  0.26492123391E+03  0.00000000000E+00 0. -1.
<mgrwt>
<rscale>  0 0.31797372E+03</rscale>
<asrwt>0</asrwt>
<pdfrwt beam="1">  1        2 0.63200544E-01 0.31797372E+03</pdfrwt>
<pdfrwt beam="2">  1       -2 0.97495806E-01 0.31797372E+03</pdfrwt>
<totfact> 0.70857286E+01</totfact>
</mgrwt>
</event>
<event>
12    1  0.1338445E-007  0.1424656E+04  0.7818608E-02  0.8936162E-01
         -2   -1    0    0    0  501 -0.00000000000E+00  0.00000000000E+00  0.14236035822E+04  0.14236035822E+04  0.00000000000E+00 0.  1.
          2   -1    0    0  501    0  0.00000000000E+00 -0.00000000000E+00 -0.15123616592E+04  0.15123616592E+04  0.00000000000E+00 0. -1.
         23    2    1    2    0    0  0.13125086575E+04 -0.37293239311E+03 -0.37548686301E+03  0.14180881445E+04  0.90697604825E+02 0.  0.
    5000000    2    1    2    0    0 -0.13125086575E+04  0.37293239311E+03  0.28672878596E+03  0.15178770969E+04  0.59998328206E+03 0.  0.
         23    2    4    4    0    0 -0.11882119592E+03 -0.11800878232E+03  0.82091587654E+02  0.20776324549E+03  0.91553198257E+02 0.  0.
         23    2    4    4    0    0 -0.11936874615E+04  0.49094117542E+03  0.20463719830E+03  0.13101138514E+04  0.92784303941E+02 0.  0.
          2    1    3    3  502    0  0.10841783338E+04 -0.28234421499E+03 -0.33313582352E+03  0.11688200854E+04  0.00000000000E+00 0. -1.
         -2    1    3    3    0  502  0.22833032367E+03 -0.90588178114E+02 -0.42351039489E+02  0.24926805906E+03  0.00000000000E+00 0.  1.
         13    1    5    5    0    0 -0.20814876997E+02 -0.82487859218E+02  0.50055356558E+02  0.98706862694E+02  0.00000000000E+00 0.  1.
        -13    1    5    5    0    0 -0.98006318923E+02 -0.35520923098E+02  0.32036231096E+02  0.10905638280E+03  0.00000000000E+00 0. -1.
          4    1    6    6  503    0 -0.88469388321E+03  0.31934061535E+03  0.15222513604E+03  0.95280333104E+03  0.00000000000E+00 0. -1.
         -4    1    6    6    0  503 -0.30899357833E+03  0.17160056007E+03  0.52412062262E+02  0.35731052033E+03  0.00000000000E+00 0.  1.
<mgrwt>
<rscale>  0 0.14246560E+04</rscale>
<asrwt>0</asrwt>
<pdfrwt beam="1">  1        2 0.23267102E+00 0.14246560E+04</pdfrwt>
<pdfrwt beam="2">  1       -2 0.21901594E+00 0.14246560E+04</pdfrwt>
<totfact> 0.11870855E+00</totfact>
</mgrwt>
</event>
<event>
12    1  0.1338445E-007  0.4616984E+03  0.7818608E-02  0.1024290E+00
          2   -1    0    0  501    0  0.00000000000E+00  0.00000000000E+00  0.33074580459E+04  0.33074580459E+04  0.00000000000E+00 0. -1.
         -2   -1    0    0    0  501 -0.00000000000E+00 -0.00000000000E+00 -0.85276058060E+02  0.85276058060E+02  0.00000000000E+00 0.  1.
         23    2    1    2    0    0  0.30437817965E+03 -0.18088035216E+03  0.99182940812E+03  0.10561627024E+04  0.79939358730E+02 0.  0.
    5000000    2    1    2    0    0 -0.30437817965E+03  0.18088035216E+03  0.22303525797E+04  0.23365714015E+04  0.59977454654E+03 0.  0.
         23    2    4    4    0    0 -0.31936953283E+03  0.29317719181E+03  0.20750005384E+04  0.21217728184E+04  0.91339444896E+02 0.  0.
         23    2    4    4    0    0  0.14991353175E+02 -0.11229683964E+03  0.15535204131E+03  0.21479858316E+03  0.95754131640E+02 0.  0.
          2    1    3    3  502    0  0.26328872052E+03 -0.15177752751E+03  0.75164931378E+03  0.81076140702E+03  0.00000000000E+00 0.  1.
         -2    1    3    3    0  502  0.41089459134E+02 -0.29102824658E+02  0.24018009434E+03  0.24540129537E+03  0.00000000000E+00 0. -1.
         13    1    5    5    0    0 -0.13792612288E+03  0.11903676785E+03  0.10930135609E+04  0.11080938641E+04  0.00000000000E+00 0.  1.
        -13    1    5    5    0    0 -0.18144340995E+03  0.17414042395E+03  0.98198697750E+03  0.10136789542E+04  0.00000000000E+00 0. -1.
          2    1    6    6  503    0  0.32429542370E+01 -0.12087298620E+03  0.15904626877E+03  0.19979116886E+03  0.00000000000E+00 0.  1.
         -2    1    6    6    0  503  0.11748398938E+02  0.85761465610E+01 -0.36942274607E+01  0.15007414300E+02  0.00000000000E+00 0. -1.
<mgrwt>
<rscale>  0 0.46169842E+03</rscale>
<asrwt>0</asrwt>
<pdfrwt beam="1">  1        2 0.50883960E+00 0.46169842E+03</pdfrwt>
<pdfrwt beam="2">  1       -2 0.13119396E-01 0.46169842E+03</pdfrwt>
<totfact> 0.54502576E+01</totfact>
</mgrwt>
</event>
<event>
12    1  0.1455065E-007  0.6937876E+03  0.7818608E-02  0.9727916E-01
         -2   -1    0    0    0  501 -0.00000000000E+00  0.00000000000E+00  0.64419661222E+03  0.64419661222E+03  0.00000000000E+00 0.  1.
          2   -1    0    0  501    0  0.00000000000E+00 -0.00000000000E+00 -0.12646639402E+04  0.12646639402E+04  0.00000000000E+00 0. -1.
         23    2    1    2    0    0 -0.58005869203E+03  0.19430659421E+03 -0.82263565143E+03  0.10280822015E+04  0.77462630861E+02 0.  0.
    5000000    2    1    2    0    0  0.58005869203E+03 -0.19430659421E+03  0.20216832342E+03  0.88077835100E+03  0.60056251451E+03 0.  0.
         23    2    4    4    0    0  0.15796822944E+03 -0.29551299998E+03  0.25977706265E+03  0.43309751525E+03  0.88359723626E+02 0.  0.
         23    2    4    4    0    0  0.42209046259E+03  0.10120640577E+03 -0.57608739230E+02  0.44768083575E+03  0.93253786427E+02 0.  0.
          1    1    3    3  502    0 -0.38153617559E+03  0.88888524743E+02 -0.51408226859E+03  0.64633706531E+03  0.00000000000E+00 0. -1.
         -1    1    3    3    0  502 -0.19852251644E+03  0.10541806947E+03 -0.30855338284E+03  0.38174513615E+03  0.00000000000E+00 0.  1.
         13    1    5    5    0    0  0.38493603795E+02 -0.63233078621E+02  0.15849653593E+02  0.75705952765E+02  0.00000000000E+00 0.  1.
        -13    1    5    5    0    0  0.11947462564E+03 -0.23227992136E+03  0.24392740906E+03  0.35739156248E+03  0.00000000000E+00 0. -1.
          3    1    6    6  503    0  0.28910740730E+03  0.50472754533E+02  0.17034347847E+01  0.29348508241E+03  0.00000000000E+00 0. -1.
         -3    1    6    6    0  503  0.13298305529E+03  0.50733651235E+02 -0.59312174015E+02  0.15419575334E+03  0.00000000000E+00 0.  1.
<mgrwt>
<rscale>  0 0.69378756E+03</rscale>
<asrwt>0</asrwt>
<pdfrwt beam="1">  1        2 0.19456368E+00 0.69378756E+03</pdfrwt>
<pdfrwt beam="2">  1       -2 0.99107171E-01 0.69378756E+03</pdfrwt>
<totfact> 0.15031962E+01</totfact>
</mgrwt>
</event>
<event>
12    1  0.1338445E-007  0.7845518E+03  0.7818608E-02  0.9582651E-01
         -1   -1    0    0    0  501 -0.00000000000E+00  0.00000000000E+00  0.76145845383E+03  0.76145845383E+03  0.00000000000E+00 0.  1.
          1   -1    0    0  501    0  0.00000000000E+00 -0.00000000000E+00 -0.85649062621E+03  0.85649062621E+03  0.00000000000E+00 0. -1.
         23    2    1    2    0    0 -0.66919417661E+03 -0.54211209296E+02 -0.20459101510E+03  0.71073459054E+03  0.11192172938E+03 0.  0.
    5000000    2    1    2    0    0  0.66919417661E+03  0.54211209296E+02  0.10955884271E+03  0.90721448950E+03  0.60022936342E+03 0.  0.
         23    2    4    4    0    0 -0.66832811618E+02  0.99457255494E+02  0.62346662776E+02  0.16271373919E+03  0.90720913705E+02 0.  0.
         23    2    4    4    0    0  0.73602698823E+03 -0.45246046198E+02  0.47212179932E+02  0.74450075030E+03  0.90936489755E+02 0.  0.
          1    1    3    3  502    0 -0.60639223767E+03 -0.73025057363E+02 -0.20764195159E+03  0.64510416598E+03  0.00000000000E+00 0. -1.
         -1    1    3    3    0  502 -0.62801938944E+02  0.18813848067E+02  0.30509364960E+01  0.65630424558E+02  0.00000000000E+00 0.  1.
         11    1    5    5    0    0 -0.70071101355E+02  0.23721712637E+02  0.24080411419E+02  0.77798104795E+02  0.00000000000E+00 0.  1.
        -11    1    5    5    0    0  0.32382897371E+01  0.75735542857E+02  0.38266251357E+02  0.84915634398E+02  0.00000000000E+00 0. -1.
          1    1    6    6  503    0  0.64508796825E+03 -0.91650869772E+01  0.42536107596E+02  0.64655379208E+03  0.00000000000E+00 0. -1.
         -1    1    6    6    0  503  0.90939019979E+02 -0.36080959221E+02  0.46760723354E+01  0.97946958225E+02  0.00000000000E+00 0.  1.
<mgrwt>
<rscale>  0 0.78455178E+03</rscale>
<asrwt>0</asrwt>
<pdfrwt beam="1">  1        1 0.13176779E+00 0.78455178E+03</pdfrwt>
<pdfrwt beam="2">  1       -1 0.11714745E+00 0.78455178E+03</pdfrwt>
<totfact> 0.13314539E+01</totfact>
</mgrwt>
</event>
<event>
12    1  0.1338445E-007  0.7355565E+03  0.7818608E-02  0.9658286E-01
         -1   -1    0    0    0  501 -0.00000000000E+00  0.00000000000E+00  0.11157800209E+04  0.11157800209E+04  0.00000000000E+00 0.  1.
          1   -1    0    0  501    0  0.00000000000E+00 -0.00000000000E+00 -0.83877867894E+03  0.83877867894E+03  0.00000000000E+00 0. -1.
         23    2    1    2    0    0 -0.32527972622E+03 -0.63839840324E+03 -0.37632316865E+03  0.81431767424E+03  0.90192714615E+02 0.  0.
    5000000    2    1    2    0    0  0.32527972622E+03  0.63839840324E+03  0.65332451056E+03  0.11402410256E+04  0.59996438122E+03 0.  0.
         23    2    4    4    0    0  0.19997211656E+03  0.19171307654E+03  0.59769894285E+03  0.66501640058E+03  0.90884738225E+02 0.  0.
         23    2    4    4    0    0  0.12530760966E+03  0.44668532669E+03  0.55625567710E+02  0.47522462498E+03  0.86685998176E+02 0.  0.
          1    1    3    3  502    0 -0.16165460599E+03 -0.24187140253E+03 -0.18394278055E+03  0.34419316309E+03  0.00000000000E+00 0. -1.
         -1    1    3    3    0  502 -0.16362512022E+03 -0.39652700070E+03 -0.19238038810E+03  0.47012451115E+03  0.00000000000E+00 0.  1.
         13    1    5    5    0    0  0.12867749308E+03  0.78266031843E+02  0.24341532016E+03  0.28624200785E+03  0.00000000000E+00 0.  1.
        -13    1    5    5    0    0  0.71294623474E+02  0.11344704470E+03  0.35428362269E+03  0.37877439274E+03  0.00000000000E+00 0. -1.
          1    1    6    6  503    0  0.71103387714E+02  0.33534721759E+03  0.72098248905E+02  0.35030216326E+03  0.00000000000E+00 0. -1.
         -1    1    6    6    0  503  0.54204221947E+02  0.11133810910E+03 -0.16472681196E+02  0.12492246171E+03  0.00000000000E+00 0.  1.
<mgrwt>
<rscale>  0 0.73555654E+03</rscale>
<asrwt>0</asrwt>
<pdfrwt beam="1">  1        1 0.12904287E+00 0.73555654E+03</pdfrwt>
<pdfrwt beam="2">  1       -1 0.17165846E+00 0.73555654E+03</pdfrwt>
<totfact> 0.50844930E+00</totfact>
</mgrwt>
</event>
<event>
12    1  0.1338445E-007  0.1282812E+04  0.7818608E-02  0.9043308E-01
          2   -1    0    0  501    0  0.00000000000E+00  0.00000000000E+00  0.14357880079E+04  0.14357880079E+04  0.00000000000E+00 0. -1.
         -2   -1    0    0    0  501 -0.00000000000E+00 -0.00000000000E+00 -0.12198307635E+04  0.12198307635E+04  0.00000000000E+00 0.  1.
         23    2    1    2    0    0 -0.78771819087E+03  0.92720828582E+03 -0.20053852000E+03  0.12366017283E+04  0.93557377777E+02 0.  0.
    5000000    2    1    2    0    0  0.78771819087E+03 -0.92720828582E+03  0.41649576437E+03  0.14190170430E+04  0.59993790778E+03 0.  0.
         23    2    4    4    0    0  0.85270296410E+03 -0.85533060865E+03  0.33018877516E+03  0.12552185337E+04  0.88634896728E+02 0.  0.
         23    2    4    4    0    0 -0.64984773226E+02 -0.71877677169E+02  0.86306989213E+02  0.16379850939E+03  0.99958161571E+02 0.  0.
          3    1    3    3  502    0 -0.53324969125E+03  0.69076512638E+03 -0.13269512548E+03  0.88267756818E+03  0.00000000000E+00 0. -1.
         -3    1    3    3    0  502 -0.25446849962E+03  0.23644315944E+03 -0.67843394521E+02  0.35392416013E+03  0.00000000000E+00 0.  1.
         11    1    5    5    0    0  0.19753616576E+03 -0.21719474515E+03  0.11751912388E+03  0.31623541639E+03  0.00000000000E+00 0.  1.
        -11    1    5    5    0    0  0.65516679834E+03 -0.63813586350E+03  0.21266965128E+03  0.93898311727E+03  0.00000000000E+00 0. -1.
          3    1    6    6  503    0 -0.75050911775E+02 -0.89712981188E+02  0.82065889952E+02  0.14288410914E+03  0.00000000000E+00 0. -1.
         -3    1    6    6    0  503  0.10066138549E+02  0.17835304019E+02  0.42410992606E+01  0.20914400246E+02  0.00000000000E+00 0.  1.
<mgrwt>
<rscale>  0 0.12828119E+04</rscale>
<asrwt>0</asrwt>
<pdfrwt beam="1">  1        2 0.22089046E+00 0.12828119E+04</pdfrwt>
<pdfrwt beam="2">  1       -2 0.18766627E+00 0.12828119E+04</pdfrwt>
<totfact> 0.21349856E+00</totfact>
</mgrwt>
</event>
<event>
12    1  0.1338445E-007  0.1107622E+04  0.7818608E-02  0.9197795E-01
          2   -1    0    0  501    0  0.00000000000E+00  0.00000000000E+00  0.17087598387E+04  0.17087598387E+04  0.00000000000E+00 0. -1.
         -2   -1    0    0    0  501 -0.00000000000E+00 -0.00000000000E+00 -0.80660893540E+03  0.80660893540E+03  0.00000000000E+00 0.  1.
         23    2    1    2    0    0  0.10341530291E+04  0.10841838725E+02  0.80866673439E+03  0.13160653928E+04  0.92174821651E+02 0.  0.
    5000000    2    1    2    0    0 -0.10341530291E+04 -0.10841838725E+02  0.93484168889E+02  0.11993033813E+04  0.59999939793E+03 0.  0.
         23    2    4    4    0    0 -0.56406842976E+03  0.27155911763E+03  0.11497944725E+03  0.64305900621E+03  0.91580916967E+02 0.  0.
         23    2    4    4    0    0 -0.47008459932E+03 -0.28240095636E+03 -0.21495278357E+02  0.55624437508E+03  0.90641751701E+02 0.  0.
          3    1    3    3  502    0  0.74974717532E+03  0.36302792915E+01  0.63675122039E+03  0.98365955620E+03  0.00000000000E+00 0. -1.
         -3    1    3    3    0  502  0.28440585376E+03  0.72115594338E+01  0.17191551400E+03  0.33240583658E+03  0.00000000000E+00 0.  1.
         11    1    5    5    0    0 -0.33890936540E+01  0.15600234835E+02 -0.59632430463E+00  0.15975258538E+02  0.00000000000E+00 0. -1.
        -11    1    5    5    0    0 -0.56067933611E+03  0.25595888280E+03  0.11557577155E+03  0.62708374767E+03  0.00000000000E+00 0.  1.
          3    1    6    6  503    0 -0.10046735319E+03 -0.51843040672E+02 -0.40786418989E+02  0.12018702882E+03  0.00000000000E+00 0. -1.
         -3    1    6    6    0  503 -0.36961724613E+03 -0.23055791568E+03  0.19291140632E+02  0.43605734626E+03  0.00000000000E+00 0.  1.
<mgrwt>
<rscale>  0 0.11076218E+04</rscale>
<asrwt>0</asrwt>
<pdfrwt beam="1">  1        2 0.26288613E+00 0.11076218E+04</pdfrwt>
<pdfrwt beam="2">  1       -2 0.12409368E+00 0.11076218E+04</pdfrwt>
<totfact> 0.46584189E+00</totfact>
</mgrwt>
</event>
<event>
12    1  0.1338445E-007  0.3821528E+03  0.7818608E-02  0.1050141E+00
          2   -1    0    0  501    0  0.00000000000E+00  0.00000000000E+00  0.60252824065E+03  0.60252824065E+03  0.00000000000E+00 0. -1.
         -2   -1    0    0    0  501 -0.00000000000E+00 -0.00000000000E+00 -0.52132671669E+03  0.52132671669E+03  0.00000000000E+00 0.  1.
         23    2    1    2    0    0 -0.25537119403E+03 -0.18413959886E+03  0.26498476974E+03  0.42182663822E+03  0.92730501479E+02 0.  0.
    5000000    2    1    2    0    0  0.25537119403E+03  0.18413959886E+03 -0.18378324578E+03  0.70202831912E+03  0.59995469897E+03 0.  0.
         23    2    4    4    0    0  0.13926996256E+03 -0.55708759026E+02 -0.33723605792E+03  0.38083829281E+03  0.93861910320E+02 0.  0.
         23    2    4    4    0    0  0.11610123148E+03  0.23984835788E+03  0.15345281213E+03  0.32119002631E+03  0.92782200457E+02 0.  0.
          1    1    3    3  502    0 -0.13809304970E+03 -0.61221003121E+02  0.16910490079E+03  0.22674692736E+03  0.00000000000E+00 0. -1.
         -1    1    3    3    0  502 -0.11727814433E+03 -0.12291859574E+03  0.95879868959E+02  0.19507971085E+03  0.00000000000E+00 0.  1.
         11    1    5    5    0    0  0.13786007308E+03 -0.19121397026E+02 -0.24805149113E+03  0.28443025477E+03  0.00000000000E+00 0. -1.
        -11    1    5    5    0    0  0.14098894721E+01 -0.36587362001E+02 -0.89184566782E+02  0.96408038039E+02  0.00000000000E+00 0.  1.
          4    1    6    6  503    0  0.62907397455E+02  0.10237170319E+03  0.18951951053E+02  0.12164079381E+03  0.00000000000E+00 0. -1.
         -4    1    6    6    0  503  0.53193834021E+02  0.13747665469E+03  0.13450086108E+03  0.19954923251E+03  0.00000000000E+00 0.  1.
<mgrwt>
<rscale>  0 0.38215278E+03</rscale>
<asrwt>0</asrwt>
<pdfrwt beam="1">  1        2 0.92696652E-01 0.38215278E+03</pdfrwt>
<pdfrwt beam="2">  1       -2 0.80204110E-01 0.38215278E+03</pdfrwt>
<totfact> 0.70882966E+01</totfact>
</mgrwt>
</event>
<event>
12    1  0.1338445E-007  0.1572365E+04  0.7818608E-02  0.8837708E-01
          2   -1    0    0  501    0  0.00000000000E+00  0.00000000000E+00  0.97408480344E+03  0.97408480344E+03  0.00000000000E+00 0.  1.
         -2   -1    0    0    0  501 -0.00000000000E+00 -0.00000000000E+00 -0.28966170234E+04  0.28966170234E+04  0.00000000000E+00 0. -1.
         23    2    1    2    0    0 -0.77000588090E+03 -0.13133002238E+04 -0.27712579522E+03  0.15501181630E+04  0.91657396610E+02 0.  0.
    5000000    2    1    2    0    0  0.77000588090E+03  0.13133002238E+04 -0.16454064248E+04  0.23205836639E+04  0.60006641642E+03 0.  0.
         23    2    4    4    0    0  0.58659071232E+03  0.45724430387E+03 -0.65015818824E+03  0.99210590561E+03  0.91692099008E+02 0.  0.
         23    2    4    4    0    0  0.18341516858E+03  0.85605591992E+03 -0.99524823654E+03  0.13284777583E+04  0.88663633352E+02 0.  0.
          3    1    3    3  502    0 -0.42233510326E+03 -0.64038163539E+03 -0.16136704500E+03  0.78389725194E+03  0.00000000000E+00 0. -1.
         -3    1    3    3    0  502 -0.34767077764E+03 -0.67291858839E+03 -0.11575875022E+03  0.76622091102E+03  0.00000000000E+00 0.  1.
         11    1    5    5    0    0  0.19421060187E+03  0.13140410301E+03 -0.15388687754E+03  0.28047453939E+03  0.00000000000E+00 0. -1.
        -11    1    5    5    0    0  0.39238011044E+03  0.32584020086E+03 -0.49627131069E+03  0.71163136622E+03  0.00000000000E+00 0.  1.
          4    1    6    6  503    0  0.17922054838E+03  0.81899446454E+03 -0.97553898132E+03  0.12862924403E+04  0.00000000000E+00 0. -1.
         -4    1    6    6    0  503  0.41946202024E+01  0.37061455375E+02 -0.19709255217E+02  0.42185317996E+02  0.00000000000E+00 0.  1.
<mgrwt>
<rscale>  0 0.15723645E+04</rscale>
<asrwt>0</asrwt>
<pdfrwt beam="1">  1        2 0.14985920E+00 0.15723645E+04</pdfrwt>
<pdfrwt beam="2">  1       -2 0.44563339E+00 0.15723645E+04</pdfrwt>
<totfact> 0.91385429E-02</totfact>
</mgrwt>
</event>
<event>
12    1  0.1338445E-007  0.1337642E+04  0.7818608E-02  0.9000236E-01
          2   -1    0    0  501    0  0.00000000000E+00  0.00000000000E+00  0.19955978153E+04  0.19955978153E+04  0.00000000000E+00 0.  1.
         -2   -1    0    0    0  501 -0.00000000000E+00 -0.00000000000E+00 -0.93310941769E+03  0.93310941769E+03  0.00000000000E+00 0. -1.
         23    2    1    2    0    0  0.10978005982E+04 -0.68902380737E+03  0.45486842816E+03  0.13766455341E+04  0.91256117544E+02 0.  0.
    5000000    2    1    2    0    0 -0.10978005982E+04  0.68902380737E+03  0.60761996940E+03  0.15520616989E+04  0.59981124480E+03 0.  0.
         23    2    4    4    0    0 -0.44726633603E+03  0.54285464702E+03  0.11618204731E+03  0.71867540604E+03  0.90872041837E+02 0.  0.
         23    2    4    4    0    0 -0.65053426217E+03  0.14616916034E+03  0.49143792209E+03  0.83338629284E+03  0.91984956011E+02 0.  0.
          3    1    3    3  502    0  0.85936110064E+03 -0.49892498076E+03  0.32894195648E+03  0.10467236734E+04  0.00000000000E+00 0. -1.
         -3    1    3    3    0  502  0.23843949756E+03 -0.19009882660E+03  0.12592647169E+03  0.32992186066E+03  0.00000000000E+00 0.  1.
         11    1    5    5    0    0 -0.72189828821E+02  0.42475273955E+02  0.95773095978E+01  0.84304478777E+02  0.00000000000E+00 0. -1.
        -11    1    5    5    0    0 -0.37507650721E+03  0.50037937307E+03  0.10660473771E+03  0.63437092726E+03  0.00000000000E+00 0.  1.
          4    1    6    6  503    0 -0.62585802447E+03  0.14683918551E+03  0.44845363884E+03  0.78381801420E+03  0.00000000000E+00 0. -1.
         -4    1    6    6    0  503 -0.24676237703E+02 -0.67002517365E+00  0.42984283251E+02  0.49568278642E+02  0.00000000000E+00 0.  1.
<mgrwt>
<rscale>  0 0.13376423E+04</rscale>
<asrwt>0</asrwt>
<pdfrwt beam="1">  1        2 0.30701505E+00 0.13376423E+04</pdfrwt>
<pdfrwt beam="2">  1       -2 0.14355530E+00 0.13376423E+04</pdfrwt>
<totfact> 0.21697563E+00</totfact>
</mgrwt>
</event>
<event>
12    1  0.1338445E-007  0.7838717E+03  0.7818608E-02  0.9583660E-01
         -2   -1    0    0    0  501 -0.00000000000E+00  0.00000000000E+00  0.86277704487E+03  0.86277704487E+03  0.00000000000E+00 0.  1.
          2   -1    0    0  501    0  0.00000000000E+00 -0.00000000000E+00 -0.83052445843E+03  0.83052445843E+03  0.00000000000E+00 0. -1.
         23    2    1    2    0    0  0.45411102363E+03 -0.58036976406E+03  0.54172387702E+01  0.74261476684E+03  0.91659481943E+02 0.  0.
    5000000    2    1    2    0    0 -0.45411102363E+03  0.58036976406E+03  0.26835347667E+02  0.95068673647E+03  0.60003270761E+03 0.  0.
         23    2    4    4    0    0 -0.91162985664E+02  0.40673641588E+03 -0.20930569806E+03  0.47561693008E+03  0.93045080377E+02 0.  0.
         23    2    4    4    0    0 -0.36294803797E+03  0.17363334818E+03  0.23614104572E+03  0.47506980639E+03  0.89715715476E+02 0.  0.
          1    1    3    3  502    0  0.28136887572E+03 -0.34721911601E+03 -0.40867444268E+02  0.44877578672E+03  0.00000000000E+00 0. -1.
         -1    1    3    3    0  502  0.17274214791E+03 -0.23315064805E+03  0.46284683038E+02  0.29383898011E+03  0.00000000000E+00 0.  1.
         11    1    5    5    0    0 -0.24109099071E+01  0.10643800657E+03 -0.93679929663E+02  0.14181252043E+03  0.00000000000E+00 0.  1.
        -11    1    5    5    0    0 -0.88752075757E+02  0.30029840931E+03 -0.11562576839E+03  0.33380440965E+03  0.00000000000E+00 0. -1.
          2    1    6    6  503    0 -0.31625470314E+03  0.18006382256E+03  0.19712088473E+03  0.41388000755E+03  0.00000000000E+00 0. -1.
         -2    1    6    6    0  503 -0.46693334827E+02 -0.64304743803E+01  0.39020160993E+02  0.61189798838E+02  0.00000000000E+00 0.  1.
<mgrwt>
<rscale>  0 0.78387170E+03</rscale>
<asrwt>0</asrwt>
<pdfrwt beam="1">  1        2 0.12777299E+00 0.78387170E+03</pdfrwt>
<pdfrwt beam="2">  1       -2 0.13273493E+00 0.78387170E+03</pdfrwt>
<totfact> 0.13653564E+01</totfact>
</mgrwt>
</event>
<event>
12    1  0.1338445E-007  0.2494069E+03  0.7818608E-02  0.1113680E+00
          3   -1    0    0  501    0  0.00000000000E+00  0.00000000000E+00  0.23417522146E+03  0.23417522146E+03  0.00000000000E+00 0. -1.
         -3   -1    0    0    0  501 -0.00000000000E+00 -0.00000000000E+00 -0.10157240559E+04  0.10157240559E+04  0.00000000000E+00 0.  1.
         23    2    1    2    0    0 -0.16525299774E+03 -0.11397360311E+03 -0.52040220905E+03  0.56536114338E+03  0.92283410138E+02 0.  0.
    5000000    2    1    2    0    0  0.16525299774E+03  0.11397360311E+03 -0.26114662533E+03  0.68453813393E+03  0.60008029581E+03 0.  0.
         23    2    4    4    0    0  0.15803124822E+02  0.10247752437E+03  0.16982192994E+03  0.21898936951E+03  0.91462966911E+02 0.  0.
         23    2    4    4    0    0  0.14944987291E+03  0.11496078746E+02 -0.43096855528E+03  0.46554876442E+03  0.92381448752E+02 0.  0.
          1    1    3    3  502    0 -0.10119324204E+03 -0.64462413804E+02 -0.18632557857E+03  0.22161384492E+03  0.00000000000E+00 0. -1.
         -1    1    3    3    0  502 -0.64059755696E+02 -0.49511189310E+02 -0.33407663048E+03  0.34374729846E+03  0.00000000000E+00 0.  1.
         11    1    5    5    0    0 -0.19221642912E+02  0.75118697150E+02  0.15289256554E+03  0.17143053058E+03  0.00000000000E+00 0. -1.
        -11    1    5    5    0    0  0.35024767734E+02  0.27358827218E+02  0.16929364401E+02  0.47558838932E+02  0.00000000000E+00 0.  1.
          1    1    6    6  503    0  0.67915785151E+02 -0.40604492884E+02 -0.20457450593E+03  0.21934449433E+03  0.00000000000E+00 0. -1.
         -1    1    6    6    0  503  0.81534087763E+02  0.52100571630E+02 -0.22639404935E+03  0.24620427009E+03  0.00000000000E+00 0.  1.
<mgrwt>
<rscale>  0 0.24940695E+03</rscale>
<asrwt>0</asrwt>
<pdfrwt beam="1">  1        3 0.36026957E-01 0.24940695E+03</pdfrwt>
<pdfrwt beam="2">  1       -3 0.15626524E+00 0.24940695E+03</pdfrwt>
<totfact> 0.57624269E+00</totfact>
</mgrwt>
</event>
<event>
12    1  0.1338445E-007  0.5549130E+03  0.7818608E-02  0.1000363E+00
         -2   -1    0    0    0  501 -0.00000000000E+00  0.00000000000E+00  0.37230911489E+03  0.37230911489E+03  0.00000000000E+00 0. -1.
          2   -1    0    0  501    0  0.00000000000E+00 -0.00000000000E+00 -0.15238916567E+04  0.15238916567E+04  0.00000000000E+00 0.  1.
         23    2    1    2    0    0  0.42678431806E+03 -0.42119180521E+02 -0.10678033527E+04  0.11539400357E+04  0.86340758029E+02 0.  0.
    5000000    2    1    2    0    0 -0.42678431806E+03  0.42119180521E+02 -0.83779189119E+02  0.74226073587E+03  0.60001097321E+03 0.  0.
         23    2    4    4    0    0 -0.22895653978E+02 -0.19361747164E+03  0.93201313229E+02  0.23424593573E+03  0.90403193120E+02 0.  0.
         23    2    4    4    0    0 -0.40388866409E+03  0.23573665216E+03 -0.17698050235E+03  0.50801480014E+03  0.89772583792E+02 0.  0.
          2    1    3    3  502    0  0.27485930340E+03 -0.68480900046E+02 -0.68860967782E+03  0.74459422421E+03  0.00000000000E+00 0. -1.
         -2    1    3    3    0  502  0.15192501467E+03  0.26361719525E+02 -0.37919367484E+03  0.40934581148E+03  0.00000000000E+00 0.  1.
         11    1    5    5    0    0 -0.52792675606E+01 -0.71135294415E+01 -0.15358189345E+02  0.17729832121E+02  0.00000000000E+00 0.  1.
        -11    1    5    5    0    0 -0.17616386417E+02 -0.18650394220E+03  0.10855950257E+03  0.21651610361E+03  0.00000000000E+00 0. -1.
          4    1    6    6  503    0 -0.23010742936E+03  0.18467241015E+03 -0.11152857648E+03  0.31542344790E+03  0.00000000000E+00 0. -1.
         -4    1    6    6    0  503 -0.17378123473E+03  0.51064242009E+02 -0.65451925871E+02  0.19259135224E+03  0.00000000000E+00 0.  1.
<mgrwt>
<rscale>  0 0.55491297E+03</rscale>
<asrwt>0</asrwt>
<pdfrwt beam="1">  1        2 0.23444487E+00 0.55491297E+03</pdfrwt>
<pdfrwt beam="2">  1       -2 0.57278326E-01 0.55491297E+03</pdfrwt>
<totfact> 0.36885246E+01</totfact>
</mgrwt>
</event>
<event>
12    1  0.1338445E-007  0.4824147E+03  0.7818608E-02  0.1018474E+00
         -1   -1    0    0    0  501 -0.00000000000E+00  0.00000000000E+00  0.36693073220E+03  0.36693073220E+03  0.00000000000E+00 0.  1.
          1   -1    0    0  501    0  0.00000000000E+00 -0.00000000000E+00 -0.82259912329E+03  0.82259912329E+03  0.00000000000E+00 0. -1.
         23    2    1    2    0    0  0.32185781247E+03  0.38469733699E+02  0.38261564449E+02  0.34752317162E+03  0.11931485928E+03 0.  0.
    5000000    2    1    2    0    0 -0.32185781247E+03 -0.38469733699E+02 -0.49392995555E+03  0.84200668387E+03  0.59994673333E+03 0.  0.
         23    2    4    4    0    0  0.52898523717E+02  0.18865670559E+03 -0.25836300209E+03  0.33661835391E+03  0.90392859029E+02 0.  0.
         23    2    4    4    0    0 -0.37475633618E+03 -0.22712643929E+03 -0.23556695346E+03  0.50538832996E+03  0.88864186044E+02 0.  0.
          4    1    3    3  502    0  0.31593463767E+03  0.32862449043E+02  0.96649947103E+01  0.31778616704E+03  0.00000000000E+00 0. -1.
         -4    1    3    3    0  502  0.59231747945E+01  0.56072846562E+01  0.28596569739E+02  0.29737004585E+02  0.00000000000E+00 0.  1.
         13    1    5    5    0    0 -0.79656639795E+01  0.21203742760E+02  0.15289848296E+00  0.22651134356E+02  0.00000000000E+00 0.  1.
        -13    1    5    5    0    0  0.60864187697E+02  0.16745296283E+03 -0.25851590057E+03  0.31396721955E+03  0.00000000000E+00 0. -1.
          2    1    6    6  503    0 -0.23715067937E+03 -0.14433593893E+03 -0.19646359491E+03  0.34010476638E+03  0.00000000000E+00 0. -1.
         -2    1    6    6    0  503 -0.13760565682E+03 -0.82790500365E+02 -0.39103358545E+02  0.16528356358E+03  0.00000000000E+00 0.  1.
<mgrwt>
<rscale>  0 0.48241468E+03</rscale>
<asrwt>0</asrwt>
<pdfrwt beam="1">  1        1 0.12655371E+00 0.48241468E+03</pdfrwt>
<pdfrwt beam="2">  1       -1 0.56450882E-01 0.48241468E+03</pdfrwt>
<totfact> 0.70501489E+01</totfact>
</mgrwt>
</event>
<event>
12    1  0.1338445E-007  0.4314031E+03  0.7818608E-02  0.1033418E+00
         -2   -1    0    0    0  501 -0.00000000000E+00  0.00000000000E+00  0.11381323861E+03  0.11381323861E+03  0.00000000000E+00 0.  1.
          2   -1    0    0  501    0  0.00000000000E+00 -0.00000000000E+00 -0.19657192646E+04  0.19657192646E+04  0.00000000000E+00 0. -1.
         23    2    1    2    0    0  0.26143964320E+03 -0.58380536874E+02 -0.46164840761E+03  0.54167762554E+03  0.92392768351E+02 0.  0.
    5000000    2    1    2    0    0 -0.26143964320E+03  0.58380536874E+02 -0.13902576184E+04  0.15378548777E+04  0.60035190113E+03 0.  0.
         23    2    4    4    0    0 -0.32323462208E+03  0.21440477073E+03 -0.12154532361E+04  0.12794277962E+04  0.95702089555E+02 0.  0.
         23    2    4    4    0    0  0.61794978883E+02 -0.15602423385E+03 -0.17480438227E+03  0.25842708146E+03  0.89809817965E+02 0.  0.
          2    1    3    3  502    0  0.64254502678E+02  0.24865088037E+02 -0.12557991986E+03  0.14323836773E+03  0.00000000000E+00 0. -1.
         -2    1    3    3    0  502  0.19718514052E+03 -0.83245624911E+02 -0.33606848774E+03  0.39843925781E+03  0.00000000000E+00 0.  1.
         11    1    5    5    0    0 -0.18359402614E+03  0.72600279975E+02 -0.68442581552E+03  0.71233156889E+03  0.00000000000E+00 0. -1.
        -11    1    5    5    0    0 -0.13964059594E+03  0.14180449075E+03 -0.53102742057E+03  0.56709622731E+03  0.00000000000E+00 0.  1.
          1    1    6    6  503    0  0.39066639950E+01 -0.10838671644E+03 -0.13618395782E+03  0.17409483821E+03  0.00000000000E+00 0. -1.
         -1    1    6    6    0  503  0.57888314888E+02 -0.47637517417E+02 -0.38620424456E+02  0.84332243248E+02  0.00000000000E+00 0.  1.
<mgrwt>
<rscale>  0 0.43140307E+03</rscale>
<asrwt>0</asrwt>
<pdfrwt beam="1">  1        2 0.30241835E+00 0.43140307E+03</pdfrwt>
<pdfrwt beam="2">  1       -2 0.17509729E-01 0.43140307E+03</pdfrwt>
<totfact> 0.19935546E+02</totfact>
</mgrwt>
</event>
<event>
12    1  0.1338445E-007  0.5809811E+03  0.7818608E-02  0.9945669E-01
          1   -1    0    0  501    0  0.00000000000E+00  0.00000000000E+00  0.59593282249E+03  0.59593282249E+03  0.00000000000E+00 0. -1.
         -1   -1    0    0    0  501 -0.00000000000E+00 -0.00000000000E+00 -0.60495606479E+03  0.60495606479E+03  0.00000000000E+00 0.  1.
         23    2    1    2    0    0 -0.43255761067E+03 -0.51199916409E+02 -0.93902528756E+02  0.45464659895E+03  0.90323457866E+02 0.  0.
    5000000    2    1    2    0    0  0.43255761067E+03  0.51199916409E+02  0.84879286450E+02  0.74624228833E+03  0.59995461632E+03 0.  0.
         23    2    4    4    0    0  0.44779539408E+02 -0.22770577073E+03  0.72383402347E+02  0.26001868679E+03  0.92278032987E+02 0.  0.
         23    2    4    4    0    0  0.38777807126E+03  0.27890568714E+03  0.12495884103E+02  0.48622360155E+03  0.89983491340E+02 0.  0.
          1    1    3    3  502    0 -0.37305718908E+03 -0.11940546595E+02 -0.72568525281E+02  0.38023733883E+03  0.00000000000E+00 0. -1.
         -1    1    3    3    0  502 -0.59500421587E+02 -0.39259369813E+02 -0.21334003475E+02  0.74409260119E+02  0.00000000000E+00 0.  1.
         13    1    5    5    0    0  0.31826423456E+02 -0.99179067838E+02  0.78910339846E+02  0.13067612813E+03  0.00000000000E+00 0. -1.
        -13    1    5    5    0    0  0.12953115952E+02 -0.12852670289E+03 -0.65269374994E+01  0.12934255866E+03  0.00000000000E+00 0.  1.
          3    1    6    6  503    0  0.34785281043E+03  0.27602323559E+03 -0.74327945863E+00  0.44406188394E+03  0.00000000000E+00 0. -1.
         -3    1    6    6    0  503  0.39925260829E+02  0.28824515485E+01  0.13239163562E+02  0.42161717600E+02  0.00000000000E+00 0.  1.
<mgrwt>
<rscale>  0 0.58098113E+03</rscale>
<asrwt>0</asrwt>
<pdfrwt beam="1">  1        1 0.91681973E-01 0.58098113E+03</pdfrwt>
<pdfrwt beam="2">  1       -1 0.93070164E-01 0.58098113E+03</pdfrwt>
<totfact> 0.40379133E+01</totfact>
</mgrwt>
</event>
<event>
12    1  0.1338445E-007  0.1209525E+04  0.7818608E-02  0.9104560E-01
         -2   -1    0    0    0  501 -0.00000000000E+00  0.00000000000E+00  0.50791022053E+03  0.50791022053E+03  0.00000000000E+00 0.  1.
          2   -1    0    0  501    0  0.00000000000E+00 -0.00000000000E+00 -0.34133716942E+04  0.34133716942E+04  0.00000000000E+00 0. -1.
         23    2    1    2    0    0  0.22108604253E+03  0.11138355778E+04 -0.61330267673E+03  0.12938506335E+04  0.91654546407E+02 0.  0.
    5000000    2    1    2    0    0 -0.22108604253E+03 -0.11138355778E+04 -0.22921587970E+04  0.26274312813E+04  0.59991203937E+03 0.  0.
         23    2    4    4    0    0 -0.38292155269E+03 -0.97546766515E+03 -0.19030096900E+04  0.21743804385E+04  0.91204878443E+02 0.  0.
         23    2    4    4    0    0  0.16183551016E+03 -0.13836791262E+03 -0.38914910698E+03  0.45305084282E+03  0.92095749746E+02 0.  0.
          3    1    3    3  502    0  0.90986137500E+02  0.31060724500E+03 -0.20870778539E+03  0.38511592741E+03  0.00000000000E+00 0. -1.
         -3    1    3    3    0  502  0.13009990503E+03  0.80322833278E+03 -0.40459489134E+03  0.90873470604E+03  0.00000000000E+00 0.  1.
         11    1    5    5    0    0 -0.20783872834E+03 -0.61073029073E+03 -0.11004411975E+04  0.12756015264E+04  0.00000000000E+00 0. -1.
        -11    1    5    5    0    0 -0.17508282435E+03 -0.36473737442E+03 -0.80256849249E+03  0.89877891209E+03  0.00000000000E+00 0.  1.
          4    1    6    6  503    0  0.15962371051E+03 -0.15066042343E+03 -0.36858664444E+03  0.42899231532E+03  0.00000000000E+00 0. -1.
         -4    1    6    6    0  503  0.22117996494E+01  0.12292510805E+02 -0.20562462537E+02  0.24058527493E+02  0.00000000000E+00 0.  1.
<mgrwt>
<rscale>  0 0.12095253E+04</rscale>
<asrwt>0</asrwt>
<pdfrwt beam="1">  1        2 0.52513411E+00 0.12095253E+04</pdfrwt>
<pdfrwt beam="2">  1       -2 0.78140033E-01 0.12095253E+04</pdfrwt>
<totfact> 0.13610665E+00</totfact>
</mgrwt>
</event>
<event>
12    1  0.1338445E-007  0.2080978E+04  0.7818608E-02  0.8569669E-01
          1   -1    0    0  501    0  0.00000000000E+00  0.00000000000E+00  0.22031391424E+04  0.22031391424E+04  0.00000000000E+00 0. -1.
         -1   -1    0    0    0  501 -0.00000000000E+00 -0.00000000000E+00 -0.20376823033E+04  0.20376823033E+04  0.00000000000E+00 0.  1.
         23    2    1    2    0    0  0.20616149298E+03  0.20308642699E+04 -0.29370927095E+03  0.20641592226E+04  0.87039739487E+02 0.  0.
    5000000    2    1    2    0    0 -0.20616149298E+03 -0.20308642699E+04  0.45916611009E+03  0.21766622231E+04  0.60009388664E+03 0.  0.
         23    2    4    4    0    0 -0.38539427120E+03 -0.10593699075E+04  0.31747609977E+03  0.11747357338E+04  0.91758515409E+02 0.  0.
         23    2    4    4    0    0  0.17923277822E+03 -0.97149436242E+03  0.14169001032E+03  0.10019264893E+04  0.88628132840E+02 0.  0.
          1    1    3    3  502    0  0.40384620792E+02  0.25703530886E+03 -0.63162128994E+02  0.26774525605E+03  0.00000000000E+00 0. -1.
         -1    1    3    3    0  502  0.16577687219E+03  0.17738289611E+04 -0.23054714196E+03  0.17964139665E+04  0.00000000000E+00 0.  1.
         13    1    5    5    0    0 -0.16333282678E+03 -0.54743657729E+03  0.19296786345E+03  0.60299337873E+03  0.00000000000E+00 0. -1.
        -13    1    5    5    0    0 -0.22206144442E+03 -0.51193333023E+03  0.12450823632E+03  0.57174235510E+03  0.00000000000E+00 0.  1.
          1    1    6    6  503    0  0.14051593098E+03 -0.55112086093E+03  0.10301348017E+03  0.57800580214E+03  0.00000000000E+00 0. -1.
         -1    1    6    6    0  503  0.38716847234E+02 -0.42037350149E+03  0.38676530147E+02  0.42392068715E+03  0.00000000000E+00 0.  1.
<mgrwt>
<rscale>  0 0.20809778E+04</rscale>
<asrwt>0</asrwt>
<pdfrwt beam="1">  1        1 0.33894448E+00 0.20809778E+04</pdfrwt>
<pdfrwt beam="2">  1       -1 0.31348958E+00 0.20809778E+04</pdfrwt>
<totfact> 0.51624750E-02</totfact>
</mgrwt>
</event>
<event>
12    1  0.1338445E-007  0.1045096E+04  0.7818608E-02  0.9260422E-01
          1   -1    0    0  501    0  0.00000000000E+00  0.00000000000E+00  0.16243967112E+04  0.16243967112E+04  0.00000000000E+00 0.  1.
         -1   -1    0    0    0  501 -0.00000000000E+00 -0.00000000000E+00 -0.73751044387E+03  0.73751044387E+03  0.00000000000E+00 0. -1.
         23    2    1    2    0    0 -0.46477469965E+03  0.84766342733E+03  0.71964572088E+03  0.12119469919E+04  0.12797163844E+03 0.  0.
    5000000    2    1    2    0    0  0.46477469965E+03 -0.84766342733E+03  0.16724054642E+03  0.11499601631E+04  0.59990846709E+03 0.  0.
         23    2    4    4    0    0 -0.11545659941E+03 -0.28191189191E+03  0.88123201971E+02  0.33048579610E+03  0.93008717608E+02 0.  0.
         23    2    4    4    0    0  0.58023129906E+03 -0.56575153541E+03  0.79117344451E+02  0.81947436700E+03  0.92387898224E+02 0.  0.
          1    1    3    3  502    0 -0.10572816381E+03  0.28065718005E+03  0.27485832943E+03  0.40680953601E+03  0.00000000000E+00 0. -1.
         -1    1    3    3    0  502 -0.35904653584E+03  0.56700624728E+03  0.44478739145E+03  0.80513745593E+03  0.00000000000E+00 0.  1.
         13    1    5    5    0    0 -0.94673558919E+02 -0.21999348553E+03  0.10726786366E+03  0.26242448630E+03  0.00000000000E+00 0. -1.
        -13    1    5    5    0    0 -0.20783040488E+02 -0.61918406380E+02 -0.19144661692E+02  0.68061309801E+02  0.00000000000E+00 0.  1.
          4    1    6    6  503    0  0.29824707368E+03 -0.23503004720E+03  0.60018222943E+02  0.38443806670E+03  0.00000000000E+00 0. -1.
         -4    1    6    6    0  503  0.28198422538E+03 -0.33072148821E+03  0.19099121508E+02  0.43503630029E+03  0.00000000000E+00 0.  1.
<mgrwt>
<rscale>  0 0.10450960E+04</rscale>
<asrwt>0</asrwt>
<pdfrwt beam="1">  1        1 0.24990718E+00 0.10450960E+04</pdfrwt>
<pdfrwt beam="2">  1       -1 0.11346315E+00 0.10450960E+04</pdfrwt>
<totfact> 0.38096419E+00</totfact>
</mgrwt>
</event>
<event>
12    1  0.1338445E-007  0.4553449E+03  0.7818608E-02  0.1026140E+00
          2   -1    0    0  501    0  0.00000000000E+00  0.00000000000E+00  0.12542191973E+04  0.12542191973E+04  0.00000000000E+00 0. -1.
         -2   -1    0    0    0  501 -0.00000000000E+00 -0.00000000000E+00 -0.24634295113E+03  0.24634295113E+03  0.00000000000E+00 0.  1.
         23    2    1    2    0    0  0.35418190190E+03  0.19507933698E+02  0.57112163066E+03  0.67800902698E+03  0.87698030466E+02 0.  0.
    5000000    2    1    2    0    0 -0.35418190190E+03 -0.19507933698E+02  0.43675461546E+03  0.82255312141E+03  0.60001138681E+03 0.  0.
         23    2    4    4    0    0 -0.22577141062E+01  0.15331395806E+03  0.37560849789E+03  0.41538808162E+03  0.89192195004E+02 0.  0.
         23    2    4    4    0    0 -0.35192418779E+03 -0.17282189176E+03  0.61146117568E+02  0.40716503979E+03  0.91249557305E+02 0.  0.
          3    1    3    3  502    0  0.19055377417E+03  0.18053645990E+02  0.38655971679E+03  0.43135262794E+03  0.00000000000E+00 0. -1.
         -3    1    3    3    0  502  0.16362812773E+03  0.14542877074E+01  0.18456191387E+03  0.24665639905E+03  0.00000000000E+00 0.  1.
         13    1    5    5    0    0 -0.71161591336E+01  0.62791048823E+02  0.60448322972E+02  0.87449158277E+02  0.00000000000E+00 0. -1.
        -13    1    5    5    0    0  0.48584450274E+01  0.90522909242E+02  0.31516017492E+03  0.32793892334E+03  0.00000000000E+00 0.  1.
          2    1    6    6  503    0  0.53471961390E+01 -0.13643400992E+01  0.39244896776E+01  0.67716725914E+01  0.00000000000E+00 0. -1.
         -2    1    6    6    0  503 -0.35727138393E+03 -0.17145755166E+03  0.57221627891E+02  0.40039336720E+03  0.00000000000E+00 0.  1.
<mgrwt>
<rscale>  0 0.45534489E+03</rscale>
<asrwt>0</asrwt>
<pdfrwt beam="1">  1        2 0.19295680E+00 0.45534489E+03</pdfrwt>
<pdfrwt beam="2">  1       -2 0.37898916E-01 0.45534489E+03</pdfrwt>
<totfact> 0.12076846E+02</totfact>
</mgrwt>
</event>
<event>
12    1  0.1338445E-007  0.9644002E+03  0.7818608E-02  0.9348476E-01
         -2   -1    0    0    0  501 -0.00000000000E+00  0.00000000000E+00  0.73330055029E+03  0.73330055029E+03  0.00000000000E+00 0. -1.
          2   -1    0    0  501    0  0.00000000000E+00 -0.00000000000E+00 -0.37213935139E+04  0.37213935139E+04  0.00000000000E+00 0.  1.
         23    2    1    2    0    0 -0.48807557852E+03  0.73855629089E+03 -0.32368122129E+04  0.33567587967E+04  0.84812456456E+02 0.  0.
    5000000    2    1    2    0    0  0.48807557852E+03 -0.73855629089E+03  0.24871924925E+03  0.10979352675E+04  0.59993118062E+03 0.  0.
         23    2    4    4    0    0 -0.96595368598E+02 -0.55459134443E+02 -0.41640217253E+02  0.14876516461E+03  0.89391194655E+02 0.  0.
         23    2    4    4    0    0  0.58467094712E+03 -0.68309715645E+03  0.29035946650E+03  0.94917010287E+03  0.90296305814E+02 0.  0.
          1    1    3    3  502    0 -0.13994559354E+03  0.28526369090E+03 -0.11674923737E+04  0.12099580923E+04  0.00000000000E+00 0. -1.
         -1    1    3    3    0  502 -0.34812998499E+03  0.45329259999E+03 -0.20693198392E+04  0.21468007045E+04  0.00000000000E+00 0.  1.
         13    1    5    5    0    0  0.41992830887E+01 -0.34412422411E+02  0.62133124746E+01  0.35220080161E+02  0.00000000000E+00 0. -1.
        -13    1    5    5    0    0 -0.10079465169E+03 -0.21046712032E+02 -0.47853529727E+02  0.11354508445E+03  0.00000000000E+00 0.  1.
          1    1    6    6  503    0  0.13709622592E+03 -0.20835001351E+03  0.53794875087E+02  0.25514504087E+03  0.00000000000E+00 0. -1.
         -1    1    6    6    0  503  0.44757472120E+03 -0.47474714294E+03  0.23656459141E+03  0.69402506200E+03  0.00000000000E+00 0.  1.
<mgrwt>
<rscale>  0 0.96440020E+03</rscale>
<asrwt>0</asrwt>
<pdfrwt beam="1">  1        2 0.57252209E+00 0.96440020E+03</pdfrwt>
<pdfrwt beam="2">  1       -2 0.11281547E+00 0.96440020E+03</pdfrwt>
<totfact> 0.36412545E-01</totfact>
</mgrwt>
</event>
<event>
12    1  0.1338445E-007  0.1701681E+04  0.7818608E-02  0.8760406E-01
          2   -1    0    0  501    0  0.00000000000E+00  0.00000000000E+00  0.13463730723E+04  0.13463730723E+04  0.00000000000E+00 0. -1.
         -2   -1    0    0    0  501 -0.00000000000E+00 -0.00000000000E+00 -0.24876629270E+04  0.24876629270E+04  0.00000000000E+00 0.  1.
         23    2    1    2    0    0 -0.15006859694E+04 -0.79190664550E+03 -0.11181690776E+04  0.20341151042E+04  0.90264372542E+02 0.  0.
    5000000    2    1    2    0    0  0.15006859694E+04  0.79190664550E+03 -0.23120777188E+02  0.17999208952E+04  0.60000512047E+03 0.  0.
         23    2    4    4    0    0  0.17192356058E+03  0.10710036778E+03 -0.19076577343E+03  0.29279231793E+03  0.91145826399E+02 0.  0.
         23    2    4    4    0    0  0.13287624088E+04  0.68480627772E+03  0.16764499624E+03  0.15071285772E+04  0.93608367431E+02 0.  0.
          2    1    3    3  502    0 -0.58574109660E+03 -0.27385914610E+03 -0.46287760121E+03  0.79520257661E+03  0.00000000000E+00 0. -1.
         -2    1    3    3    0  502 -0.91494487279E+03 -0.51804749940E+03 -0.65529147638E+03  0.12389125275E+04  0.00000000000E+00 0.  1.
         13    1    5    5    0    0  0.80378151154E+02  0.79542665052E+02 -0.52456191056E+02  0.12465686795E+03  0.00000000000E+00 0.  1.
        -13    1    5    5    0    0  0.91545409425E+02  0.27557702723E+02 -0.13830958237E+03  0.16813544999E+03  0.00000000000E+00 0. -1.
          3    1    6    6  503    0  0.97086525427E+03  0.46321945445E+03  0.94174932174E+02  0.10798243018E+04  0.00000000000E+00 0. -1.
         -3    1    6    6    0  503  0.35789715455E+03  0.22158682327E+03  0.73470064065E+02  0.42730427542E+03  0.00000000000E+00 0.  1.
<mgrwt>
<rscale>  0 0.17016814E+04</rscale>
<asrwt>0</asrwt>
<pdfrwt beam="1">  1        2 0.20713432E+00 0.17016814E+04</pdfrwt>
<pdfrwt beam="2">  1       -2 0.38271737E+00 0.17016814E+04</pdfrwt>
<totfact> 0.13799387E-01</totfact>
</mgrwt>
</event>
<event>
12    1  0.1338445E-007  0.7013329E+03  0.7818608E-02  0.9714956E-01
          1   -1    0    0  501    0  0.00000000000E+00  0.00000000000E+00  0.95906870835E+03  0.95906870835E+03  0.00000000000E+00 0. -1.
         -1   -1    0    0    0  501 -0.00000000000E+00 -0.00000000000E+00 -0.64939280759E+03  0.64939280759E+03  0.00000000000E+00 0.  1.
         23    2    1    2    0    0  0.66710482803E+03 -0.21805657894E+02  0.59426787172E+02  0.67643351637E+03  0.92338619999E+02 0.  0.
    5000000    2    1    2    0    0 -0.66710482803E+03  0.21805657894E+02  0.25024911358E+03  0.93202799957E+03  0.60045585586E+03 0.  0.
         23    2    4    4    0    0 -0.69171126315E+03  0.35275968091E+02  0.33623669142E+02  0.69948128894E+03  0.91840388442E+02 0.  0.
         23    2    4    4    0    0  0.24606435128E+02 -0.13470310197E+02  0.21662544444E+03  0.23254671063E+03  0.79777587954E+02 0.  0.
          2    1    3    3  502    0  0.18268598095E+03  0.20521535774E+02 -0.15257720979E+02  0.18446706784E+03  0.00000000000E+00 0.  1.
         -2    1    3    3    0  502  0.48441884707E+03 -0.42327193668E+02  0.74684508151E+02  0.49196644853E+03  0.00000000000E+00 0. -1.
         11    1    5    5    0    0 -0.59068539569E+03  0.15534203757E+02 -0.95981188773E+00  0.59089040389E+03  0.00000000000E+00 0. -1.
        -11    1    5    5    0    0 -0.10102586747E+03  0.19741764334E+02  0.34583481030E+02  0.10859088505E+03  0.00000000000E+00 0.  1.
          3    1    6    6  503    0  0.22773870846E+02  0.22759907233E+01  0.94432560070E+01  0.24758925888E+02  0.00000000000E+00 0. -1.
         -3    1    6    6    0  503  0.18325642816E+01 -0.15746300920E+02  0.20718218843E+03  0.20778778474E+03  0.00000000000E+00 0.  1.
<mgrwt>
<rscale>  0 0.70133287E+03</rscale>
<asrwt>0</asrwt>
<pdfrwt beam="1">  1        1 0.14754903E+00 0.70133287E+03</pdfrwt>
<pdfrwt beam="2">  1       -1 0.99906586E-01 0.70133287E+03</pdfrwt>
<totfact> 0.16136051E+01</totfact>
</mgrwt>
</event>
<event>
12    1  0.1338445E-007  0.1350814E+04  0.7818608E-02  0.8990212E-01
          1   -1    0    0  501    0  0.00000000000E+00  0.00000000000E+00  0.25860337438E+04  0.25860337438E+04  0.00000000000E+00 0. -1.
         -1   -1    0    0    0  501 -0.00000000000E+00 -0.00000000000E+00 -0.85043371290E+03  0.85043371290E+03  0.00000000000E+00 0.  1.
         23    2    1    2    0    0  0.47327522790E+03 -0.12630403931E+04  0.31586029663E+03  0.13883654629E+04  0.92360465669E+02 0.  0.
    5000000    2    1    2    0    0 -0.47327522790E+03  0.12630403931E+04  0.14197397343E+04  0.20481019938E+04  0.59983363365E+03 0.  0.
         23    2    4    4    0    0 -0.99360168533E+02  0.26482070128E+03  0.69469805889E+03  0.75572669832E+03  0.92276771789E+02 0.  0.
         23    2    4    4    0    0 -0.37391505937E+03  0.99821969181E+03  0.72504167537E+03  0.12923752955E+04  0.91068373275E+02 0.  0.
          1    1    3    3  502    0  0.40319177450E+03 -0.11277491334E+04  0.30341022556E+03  0.12354915944E+04  0.00000000000E+00 0. -1.
         -1    1    3    3    0  502  0.70083453406E+02 -0.13529125968E+03  0.12450071073E+02  0.15287386845E+03  0.00000000000E+00 0.  1.
         11    1    5    5    0    0 -0.95959901125E+02  0.26260701899E+03  0.61101120684E+03  0.67194154800E+03  0.00000000000E+00 0. -1.
        -11    1    5    5    0    0 -0.34002674076E+01  0.22136822874E+01  0.83686852053E+02  0.83785150321E+02  0.00000000000E+00 0.  1.
          1    1    6    6  503    0 -0.20701213384E+03  0.45957292054E+03  0.38048765609E+03  0.63153159010E+03  0.00000000000E+00 0. -1.
         -1    1    6    6    0  503 -0.16690292553E+03  0.53864677127E+03  0.34455401929E+03  0.66084370539E+03  0.00000000000E+00 0.  1.
<mgrwt>
<rscale>  0 0.13508138E+04</rscale>
<asrwt>0</asrwt>
<pdfrwt beam="1">  1        1 0.39785134E+00 0.13508138E+04</pdfrwt>
<pdfrwt beam="2">  1       -1 0.13083596E+00 0.13508138E+04</pdfrwt>
<totfact> 0.57078870E-01</totfact>
</mgrwt>
</event>
<event>
12    1  0.1338445E-007  0.2908407E+03  0.7818608E-02  0.1089911E+00
         -2   -1    0    0    0  501 -0.00000000000E+00  0.00000000000E+00  0.24926233072E+03  0.24926233072E+03  0.00000000000E+00 0.  1.
          2   -1    0    0  501    0  0.00000000000E+00 -0.00000000000E+00 -0.97096440481E+03  0.97096440481E+03  0.00000000000E+00 0. -1.
         23    2    1    2    0    0  0.79240622849E+02  0.23593448479E+03 -0.43970466464E+03  0.51211916257E+03  0.83556490692E+02 0.  0.
    5000000    2    1    2    0    0 -0.79240622849E+02 -0.23593448479E+03 -0.28199740945E+03  0.70810757296E+03  0.59995803063E+03 0.  0.
         23    2    4    4    0    0 -0.12305129521E+03 -0.13042153240E+03  0.15059845755E+03  0.25139262945E+03  0.91471095749E+02 0.  0.
         23    2    4    4    0    0  0.43810672357E+02 -0.10551295239E+03 -0.43259586700E+03  0.45671494351E+03  0.91635131596E+02 0.  0.
          3    1    3    3  502    0  0.68926166711E+02  0.14264295332E+03 -0.34049537785E+03  0.37554617682E+03  0.00000000000E+00 0. -1.
         -3    1    3    3    0  502  0.10314456139E+02  0.93291531464E+02 -0.99209286793E+02  0.13657298574E+03  0.00000000000E+00 0.  1.
         11    1    5    5    0    0 -0.11424317527E+03 -0.13319039928E+03  0.10419152848E+03  0.20407611366E+03  0.00000000000E+00 0. -1.
        -11    1    5    5    0    0 -0.88081199315E+01  0.27688668810E+01  0.46406929077E+02  0.47316515794E+02  0.00000000000E+00 0.  1.
          2    1    6    6  503    0 -0.12189304087E+02  0.10359053711E+02 -0.29289973245E+02  0.33373517354E+02  0.00000000000E+00 0. -1.
         -2    1    6    6    0  503  0.55999976443E+02 -0.11587200610E+03 -0.40330589376E+03  0.42334142616E+03  0.00000000000E+00 0.  1.
<mgrwt>
<rscale>  0 0.29084069E+03</rscale>
<asrwt>0</asrwt>
<pdfrwt beam="1">  1        2 0.14937914E+00 0.29084069E+03</pdfrwt>
<pdfrwt beam="2">  1       -2 0.38348051E-01 0.29084069E+03</pdfrwt>
<totfact> 0.17813781E+02</totfact>
</mgrwt>
</event>
<event>
12    1  0.1338445E-007  0.1360798E+04  0.7818608E-02  0.8982694E-01
          1   -1    0    0  501    0  0.00000000000E+00  0.00000000000E+00  0.31756742835E+04  0.31756742835E+04  0.00000000000E+00 0. -1.
         -1   -1    0    0    0  501 -0.00000000000E+00 -0.00000000000E+00 -0.99405230803E+03  0.99405230803E+03  0.00000000000E+00 0.  1.
         23    2    1    2    0    0  0.19327939052E+03 -0.13415150024E+04  0.23119508606E+04  0.26815707822E+04  0.93196852750E+02 0.  0.
    5000000    2    1    2    0    0 -0.19327939052E+03  0.13415150024E+04 -0.13032888510E+03  0.14881558094E+04  0.60050201513E+03 0.  0.
         23    2    4    4    0    0 -0.29894285613E+02  0.61114724006E+03  0.22053378913E+03  0.65638437957E+03  0.88378075629E+02 0.  0.
         23    2    4    4    0    0 -0.16338510491E+03  0.73036776238E+03 -0.35086267422E+03  0.83177142983E+03  0.92775721393E+02 0.  0.
          1    1    3    3  502    0  0.13092675132E+03 -0.11376838135E+04  0.19313541382E+04  0.22453496567E+04  0.00000000000E+00 0. -1.
         -1    1    3    3    0  502  0.62352639199E+02 -0.20383118898E+03  0.38059672240E+03  0.43622112548E+03  0.00000000000E+00 0.  1.
         13    1    5    5    0    0 -0.40709597395E+01  0.41298105635E+03  0.10738313774E+03  0.42673301242E+03  0.00000000000E+00 0.  1.
        -13    1    5    5    0    0 -0.25823325873E+02  0.19816618371E+03  0.11315065139E+03  0.22965136715E+03  0.00000000000E+00 0. -1.
          4    1    6    6  503    0 -0.13937695143E+03  0.68542055717E+03 -0.34666031879E+03  0.78064117967E+03  0.00000000000E+00 0.  1.
         -4    1    6    6    0  503 -0.24008153471E+02  0.44947205213E+02 -0.42023554392E+01  0.51130250154E+02  0.00000000000E+00 0. -1.
<mgrwt>
<rscale>  0 0.13607977E+04</rscale>
<asrwt>0</asrwt>
<pdfrwt beam="1">  1        1 0.48856527E+00 0.13607977E+04</pdfrwt>
<pdfrwt beam="2">  1       -1 0.15293113E+00 0.13607977E+04</pdfrwt>
<totfact> 0.14251983E-01</totfact>
</mgrwt>
</event>
<event>
12    1  0.1338445E-007  0.1189789E+04  0.7818608E-02  0.9121842E-01
          1   -1    0    0  501    0  0.00000000000E+00  0.00000000000E+00  0.18508460263E+04  0.18508460263E+04  0.00000000000E+00 0. -1.
         -1   -1    0    0    0  501 -0.00000000000E+00 -0.00000000000E+00 -0.11624163802E+04  0.11624163802E+04  0.00000000000E+00 0.  1.
         23    2    1    2    0    0  0.10750738848E+04 -0.32787504058E+03  0.11942980440E+04  0.16424174381E+04  0.88889386425E+02 0.  0.
    5000000    2    1    2    0    0 -0.10750738848E+04  0.32787504058E+03 -0.50586839794E+03  0.13708449684E+04  0.60002265893E+03 0.  0.
         23    2    4    4    0    0 -0.76917181177E+03 -0.40452940192E+02 -0.39571597604E+03  0.87101983719E+03  0.93929264355E+02 0.  0.
         23    2    4    4    0    0 -0.30590207304E+03  0.36832798077E+03 -0.11015242190E+03  0.49982513117E+03  0.91924022939E+02 0.  0.
          4    1    3    3  502    0  0.91947975200E+03 -0.31241384110E+03  0.10272110865E+04  0.14135798664E+04  0.00000000000E+00 0. -1.
         -4    1    3    3    0  502  0.15559413281E+03 -0.15461199473E+02  0.16708695754E+03  0.22883757173E+03  0.00000000000E+00 0.  1.
         13    1    5    5    0    0 -0.53153732487E+03 -0.43105581954E+02 -0.22707451713E+03  0.57961440222E+03  0.00000000000E+00 0.  1.
        -13    1    5    5    0    0 -0.23763448689E+03  0.26526417621E+01 -0.16864145891E+03  0.29140543497E+03  0.00000000000E+00 0. -1.
          1    1    6    6  503    0 -0.64248595209E+02  0.11040589492E+03 -0.65565530915E+02  0.14358336416E+03  0.00000000000E+00 0. -1.
         -1    1    6    6    0  503 -0.24165347783E+03  0.25792208585E+03 -0.44586890990E+02  0.35624176701E+03  0.00000000000E+00 0.  1.
<mgrwt>
<rscale>  0 0.11897886E+04</rscale>
<asrwt>0</asrwt>
<pdfrwt beam="1">  1        1 0.28474554E+00 0.11897886E+04</pdfrwt>
<pdfrwt beam="2">  1       -1 0.17883329E+00 0.11897886E+04</pdfrwt>
<totfact> 0.78427443E-01</totfact>
</mgrwt>
</event>
<event>
12    1  0.1338445E-007  0.1782491E+04  0.7818608E-02  0.8715666E-01
         -2   -1    0    0    0  501 -0.00000000000E+00  0.00000000000E+00  0.19703779475E+04  0.19703779475E+04  0.00000000000E+00 0.  1.
          2   -1    0    0  501    0  0.00000000000E+00 -0.00000000000E+00 -0.18010872874E+04  0.18010872874E+04  0.00000000000E+00 0. -1.
         23    2    1    2    0    0  0.14614740213E+04 -0.97349595530E+03  0.61505598716E+03  0.18630054940E+04  0.94312849709E+02 0.  0.
    5000000    2    1    2    0    0 -0.14614740213E+04  0.97349595530E+03 -0.44576532701E+03  0.19084597409E+04  0.59992596709E+03 0.  0.
         23    2    4    4    0    0 -0.64889401130E+02  0.19303536064E+03  0.56042418966E+02  0.22987956598E+03  0.90722529170E+02 0.  0.
         23    2    4    4    0    0 -0.13965846201E+04  0.78046059466E+03 -0.50180774598E+03  0.16785801749E+04  0.79076220318E+02 0.  0.
          2    1    3    3  502    0  0.54176577790E+03 -0.40164345678E+03  0.20343309224E+03  0.70442362786E+03  0.00000000000E+00 0. -1.
         -2    1    3    3    0  502  0.91970824335E+03 -0.57185249852E+03  0.41162289493E+03  0.11585818662E+04  0.00000000000E+00 0.  1.
         13    1    5    5    0    0 -0.39001877446E+02  0.15450606381E+03  0.29816969836E+01  0.15938055313E+03  0.00000000000E+00 0. -1.
        -13    1    5    5    0    0 -0.25887523683E+02  0.38529296823E+02  0.53060721982E+02  0.70499012854E+02  0.00000000000E+00 0.  1.
          1    1    6    6  503    0 -0.56066686075E+03  0.35783425546E+03 -0.21138512243E+03  0.69790855640E+03  0.00000000000E+00 0. -1.
         -1    1    6    6    0  503 -0.83591775938E+03  0.42262633920E+03 -0.29042262355E+03  0.98067161848E+03  0.00000000000E+00 0.  1.
<mgrwt>
<rscale>  0 0.17824913E+04</rscale>
<asrwt>0</asrwt>
<pdfrwt beam="1">  1        2 0.27709035E+00 0.17824913E+04</pdfrwt>
<pdfrwt beam="2">  1       -2 0.30313507E+00 0.17824913E+04</pdfrwt>
<totfact> 0.23876822E-01</totfact>
</mgrwt>
</event>
<event>
12    1  0.1338445E-007  0.4915846E+03  0.7818608E-02  0.1015999E+00
          2   -1    0    0  501    0  0.00000000000E+00  0.00000000000E+00  0.19032775922E+04  0.19032775922E+04  0.00000000000E+00 0. -1.
         -2   -1    0    0    0  501 -0.00000000000E+00 -0.00000000000E+00 -0.21085925855E+03  0.21085925855E+03  0.00000000000E+00 0.  1.
         23    2    1    2    0    0  0.34606168870E+03  0.25132352965E+03  0.27649050103E+03  0.51793570629E+03  0.94277196343E+02 0.  0.
    5000000    2    1    2    0    0 -0.34606168870E+03 -0.25132352965E+03  0.14159278327E+04  0.15962011445E+04  0.60007021040E+03 0.  0.
         23    2    4    4    0    0 -0.29534365593E+03 -0.31664368602E+03  0.14050789966E+04  0.14731234144E+04  0.91402998707E+02 0.  0.
         23    2    4    4    0    0 -0.50718032774E+02  0.65320156368E+02  0.10848836044E+02  0.12307773014E+03  0.90506291141E+02 0.  0.
          4    1    3    3  502    0  0.20791638209E+03  0.18103203052E+03  0.13051426984E+03  0.30501769236E+03  0.00000000000E+00 0. -1.
         -4    1    3    3    0  502  0.13814530661E+03  0.70291499134E+02  0.14597623119E+03  0.21291801394E+03  0.00000000000E+00 0.  1.
         11    1    5    5    0    0 -0.17553017582E+03 -0.20241116035E+03  0.71730045900E+03  0.76570299003E+03  0.00000000000E+00 0. -1.
        -11    1    5    5    0    0 -0.11981348011E+03 -0.11423252567E+03  0.68777853763E+03  0.70742042433E+03  0.00000000000E+00 0.  1.
          4    1    6    6  503    0 -0.47797576313E+02  0.85864365246E+02  0.20185502470E+02  0.10032323774E+03  0.00000000000E+00 0.  1.
         -4    1    6    6    0  503 -0.29204564616E+01 -0.20544208878E+02 -0.93366664265E+01  0.22754492399E+02  0.00000000000E+00 0. -1.
<mgrwt>
<rscale>  0 0.49158459E+03</rscale>
<asrwt>0</asrwt>
<pdfrwt beam="1">  1        2 0.29281193E+00 0.49158459E+03</pdfrwt>
<pdfrwt beam="2">  1       -2 0.32439887E-01 0.49158459E+03</pdfrwt>
<totfact> 0.71150319E+01</totfact>
</mgrwt>
</event>
<event>
12    1  0.1338445E-007  0.6966069E+03  0.7818608E-02  0.9723052E-01
          2   -1    0    0  501    0  0.00000000000E+00  0.00000000000E+00  0.83843067635E+03  0.83843067635E+03  0.00000000000E+00 0. -1.
         -2   -1    0    0    0  501 -0.00000000000E+00 -0.00000000000E+00 -0.92258476815E+03  0.92258476815E+03  0.00000000000E+00 0.  1.
         23    2    1    2    0    0 -0.59880149135E+03  0.15310286476E+03 -0.50440343980E+03  0.80253466210E+03  0.87380435685E+02 0.  0.
    5000000    2    1    2    0    0  0.59880149135E+03 -0.15310286476E+03  0.42024934800E+03  0.95848078241E+03  0.60006014908E+03 0.  0.
         23    2    4    4    0    0  0.67227967282E+03 -0.16347342725E+03  0.45709150975E+03  0.83469253517E+03  0.95370121537E+02 0.  0.
         23    2    4    4    0    0 -0.73478181467E+02  0.10370562491E+02 -0.36842161746E+02  0.12378824724E+03  0.91976048812E+02 0.  0.
          1    1    3    3  502    0 -0.38969652081E+03  0.14026816370E+03 -0.35059188874E+03  0.54263542874E+03  0.00000000000E+00 0. -1.
         -1    1    3    3    0  502 -0.20910497054E+03  0.12834701058E+02 -0.15381155106E+03  0.25989923335E+03  0.00000000000E+00 0.  1.
         13    1    5    5    0    0  0.34437307458E+03 -0.11925215481E+03  0.27871487843E+03  0.45879829378E+03  0.00000000000E+00 0. -1.
        -13    1    5    5    0    0  0.32790659824E+03 -0.44221272437E+02  0.17837663132E+03  0.37589424139E+03  0.00000000000E+00 0.  1.
          1    1    6    6  503    0 -0.16847895546E+02  0.32048590149E+01  0.30816274878E+02  0.35267059744E+02  0.00000000000E+00 0. -1.
         -1    1    6    6    0  503 -0.56630285921E+02  0.71657034763E+01 -0.67658436624E+02  0.88521187499E+02  0.00000000000E+00 0.  1.
<mgrwt>
<rscale>  0 0.69660692E+03</rscale>
<asrwt>0</asrwt>
<pdfrwt beam="1">  1        2 0.12898934E+00 0.69660692E+03</pdfrwt>
<pdfrwt beam="2">  1       -2 0.14193612E+00 0.69660692E+03</pdfrwt>
<totfact> 0.11456116E+01</totfact>
</mgrwt>
</event>
<event>
12    1  0.1338445E-007  0.3962431E+03  0.7818608E-02  0.1045088E+00
         -2   -1    0    0    0  501 -0.00000000000E+00  0.00000000000E+00  0.12091375577E+03  0.12091375577E+03  0.00000000000E+00 0.  1.
          2   -1    0    0  501    0  0.00000000000E+00 -0.00000000000E+00 -0.22412242547E+04  0.22412242547E+04  0.00000000000E+00 0. -1.
         23    2    1    2    0    0  0.26303667630E+03 -0.18382014064E+03 -0.46356715153E+03  0.57111312743E+03  0.91090960932E+02 0.  0.
    5000000    2    1    2    0    0 -0.26303667630E+03  0.18382014064E+03 -0.16567433474E+04  0.17910248830E+04  0.59999456275E+03 0.  0.
         23    2    4    4    0    0  0.68218521037E+02  0.37293756799E+02 -0.11739581044E+04  0.11800392167E+04  0.90941361097E+02 0.  0.
         23    2    4    4    0    0 -0.33125519734E+03  0.14652638385E+03 -0.48278524296E+03  0.61098566630E+03  0.94983717964E+02 0.  0.
          1    1    3    3  502    0  0.21608612317E+03 -0.17164579102E+03 -0.33702050554E+03  0.43558961346E+03  0.00000000000E+00 0. -1.
         -1    1    3    3    0  502  0.46950553128E+02 -0.12174349626E+02 -0.12654664599E+03  0.13552351397E+03  0.00000000000E+00 0.  1.
         13    1    5    5    0    0  0.82218764770E+02  0.38859581183E+02 -0.11345504071E+04  0.11381891840E+04  0.00000000000E+00 0. -1.
        -13    1    5    5    0    0 -0.14000243733E+02 -0.15658243835E+01 -0.39407697341E+02  0.41850032739E+02  0.00000000000E+00 0.  1.
          4    1    6    6  503    0 -0.24926112777E+03  0.98856571273E+02 -0.28317989502E+03  0.38999305692E+03  0.00000000000E+00 0. -1.
         -4    1    6    6    0  503 -0.81994069567E+02  0.47669812572E+02 -0.19960534794E+03  0.22099260938E+03  0.00000000000E+00 0.  1.
<mgrwt>
<rscale>  0 0.39624308E+03</rscale>
<asrwt>0</asrwt>
<pdfrwt beam="1">  1        2 0.34480371E+00 0.39624308E+03</pdfrwt>
<pdfrwt beam="2">  1       -2 0.18602117E-01 0.39624308E+03</pdfrwt>
<totfact> 0.12862915E+02</totfact>
</mgrwt>
</event>
<event>
12    1  0.1338445E-007  0.9874015E+03  0.7818608E-02  0.9322472E-01
         -2   -1    0    0    0  501 -0.00000000000E+00  0.00000000000E+00  0.47125211259E+03  0.47125211259E+03  0.00000000000E+00 0.  1.
          2   -1    0    0  501    0  0.00000000000E+00 -0.00000000000E+00 -0.22859606012E+04  0.22859606012E+04  0.00000000000E+00 0. -1.
         23    2    1    2    0    0 -0.70111771277E+02  0.90158542949E+03 -0.45246559198E+03  0.10155241222E+04  0.93766645339E+02 0.  0.
    5000000    2    1    2    0    0  0.70111771277E+02 -0.90158542949E+03 -0.13622428966E+04  0.17416885915E+04  0.60000124448E+03 0.  0.
         23    2    4    4    0    0  0.26299877429E+03 -0.79760430140E+03 -0.10052225668E+04  0.13130675555E+04  0.91285374629E+02 0.  0.
         23    2    4    4    0    0 -0.19288700302E+03 -0.10398112809E+03 -0.35702032983E+03  0.42862103605E+03  0.90746932175E+02 0.  0.
          1    1    3    3  502    0 -0.91267236609E+02  0.60834263942E+03 -0.30628495491E+03  0.68718334455E+03  0.00000000000E+00 0. -1.
         -1    1    3    3    0  502  0.21155465332E+02  0.29324279006E+03 -0.14618063707E+03  0.32834077769E+03  0.00000000000E+00 0.  1.
         11    1    5    5    0    0  0.68664732513E+02 -0.29806182217E+03 -0.31375460143E+03  0.43817535901E+03  0.00000000000E+00 0.  1.
        -11    1    5    5    0    0  0.19433404178E+03 -0.49954247922E+03 -0.69146796536E+03  0.87489219648E+03  0.00000000000E+00 0. -1.
          4    1    6    6  503    0 -0.17689711783E+03 -0.78157879009E+02 -0.34586872084E+03  0.39626558822E+03  0.00000000000E+00 0. -1.
         -4    1    6    6    0  503 -0.15989885184E+02 -0.25823249082E+02 -0.11151608991E+02  0.32355447832E+02  0.00000000000E+00 0.  1.
<mgrwt>
<rscale>  0 0.98740149E+03</rscale>
<asrwt>0</asrwt>
<pdfrwt beam="1">  1        2 0.35168625E+00 0.98740149E+03</pdfrwt>
<pdfrwt beam="2">  1       -2 0.72500324E-01 0.98740149E+03</pdfrwt>
<totfact> 0.80156210E+00</totfact>
</mgrwt>
</event>
<event>
12    1  0.1338445E-007  0.1750801E+04  0.7818608E-02  0.8732909E-01
          1   -1    0    0  501    0  0.00000000000E+00  0.00000000000E+00  0.38995693535E+04  0.38995693535E+04  0.00000000000E+00 0. -1.
         -1   -1    0    0    0  501 -0.00000000000E+00 -0.00000000000E+00 -0.12684784051E+04  0.12684784051E+04  0.00000000000E+00 0.  1.
         23    2    1    2    0    0  0.17210104949E+04  0.30537535722E+03 -0.22659580882E+03  0.17649108931E+04  0.91834456721E+02 0.  0.
    5000000    2    1    2    0    0 -0.17210104949E+04 -0.30537535722E+03  0.28576867572E+04  0.34031368654E+04  0.59986305935E+03 0.  0.
         23    2    4    4    0    0 -0.18948739913E+03 -0.26798348674E+02  0.10100016490E+03  0.23602911450E+03  0.94260721725E+02 0.  0.
         23    2    4    4    0    0 -0.15315230958E+04 -0.27857700855E+03  0.27566865923E+04  0.31671077509E+04  0.89902141535E+02 0.  0.
          2    1    3    3  502    0  0.14050628326E+04  0.28297124470E+03 -0.17320591609E+03  0.14437016929E+04  0.00000000000E+00 0. -1.
         -2    1    3    3    0  502  0.31594766238E+03  0.22404112521E+02 -0.53389892737E+02  0.32120920016E+03  0.00000000000E+00 0.  1.
         13    1    5    5    0    0 -0.15658589341E+03 -0.10713089286E+02  0.11730075423E+03  0.19594228548E+03  0.00000000000E+00 0.  1.
        -13    1    5    5    0    0 -0.32901505720E+02 -0.16085259388E+02 -0.16300589327E+02  0.40086829017E+02  0.00000000000E+00 0. -1.
          4    1    6    6  503    0 -0.10989562677E+04 -0.17000373011E+03  0.20236060591E+04  0.23090230897E+04  0.00000000000E+00 0. -1.
         -4    1    6    6    0  503 -0.43256682814E+03 -0.10857327843E+03  0.73308053322E+03  0.85808466120E+03  0.00000000000E+00 0.  1.
<mgrwt>
<rscale>  0 0.17508012E+04</rscale>
<asrwt>0</asrwt>
<pdfrwt beam="1">  1        1 0.59993374E+00 0.17508012E+04</pdfrwt>
<pdfrwt beam="2">  1       -1 0.19515053E+00 0.17508012E+04</pdfrwt>
<totfact> 0.17620456E-02</totfact>
</mgrwt>
</event>
<event>
12    1  0.1338445E-007  0.5280180E+03  0.7818608E-02  0.1006714E+00
          2   -1    0    0  501    0  0.00000000000E+00  0.00000000000E+00  0.21453046601E+04  0.21453046601E+04  0.00000000000E+00 0. -1.
         -2   -1    0    0    0  501 -0.00000000000E+00 -0.00000000000E+00 -0.20274965502E+03  0.20274965502E+03  0.00000000000E+00 0.  1.
         23    2    1    2    0    0  0.35940245127E+03  0.35888017613E+03  0.96049318000E+03  0.10902199466E+04  0.89818040359E+02 0.  0.
    5000000    2    1    2    0    0 -0.35940245127E+03 -0.35888017613E+03  0.98206182504E+03  0.12578343685E+04  0.59978059947E+03 0.  0.
         23    2    4    4    0    0 -0.20817692467E+03 -0.27950615626E+03  0.12852016323E+03  0.38257636628E+03  0.91574670790E+02 0.  0.
         23    2    4    4    0    0 -0.15122552661E+03 -0.79374019874E+02  0.85354166182E+03  0.87525800219E+03  0.91508507882E+02 0.  0.
          3    1    3    3  502    0  0.44514226974E+02  0.93629500374E+02  0.21067873883E+03  0.23480530390E+03  0.00000000000E+00 0. -1.
         -3    1    3    3    0  502  0.31488822430E+03  0.26525067576E+03  0.74981444117E+03  0.85541464272E+03  0.00000000000E+00 0.  1.
         13    1    5    5    0    0 -0.11343084436E+03 -0.77961421748E+02  0.49069610592E+02  0.14612448945E+03  0.00000000000E+00 0. -1.
        -13    1    5    5    0    0 -0.94746080304E+02 -0.20154473451E+03  0.79450552637E+02  0.23645187683E+03  0.00000000000E+00 0.  1.
          3    1    6    6  503    0 -0.34942205906E+02  0.67617831673E+01  0.70691633183E+02  0.79145350257E+02  0.00000000000E+00 0. -1.
         -3    1    6    6    0  503 -0.11628332070E+03 -0.86135803041E+02  0.78285002863E+03  0.79611265193E+03  0.00000000000E+00 0.  1.
<mgrwt>
<rscale>  0 0.52801795E+03</rscale>
<asrwt>0</asrwt>
<pdfrwt beam="1">  1        2 0.33004686E+00 0.52801795E+03</pdfrwt>
<pdfrwt beam="2">  1       -2 0.31192256E-01 0.52801795E+03</pdfrwt>
<totfact> 0.56312506E+01</totfact>
</mgrwt>
</event>
<event>
12    1  0.1338445E-007  0.7437069E+03  0.7818608E-02  0.9645275E-01
         -1   -1    0    0    0  501 -0.00000000000E+00  0.00000000000E+00  0.46892239985E+03  0.46892239985E+03  0.00000000000E+00 0.  1.
          1   -1    0    0  501    0  0.00000000000E+00 -0.00000000000E+00 -0.16314568969E+04  0.16314568969E+04  0.00000000000E+00 0. -1.
         23    2    1    2    0    0  0.60272287671E+02  0.68474410180E+03 -0.10014562629E+03  0.69995205617E+03  0.86002911935E+02 0.  0.
    5000000    2    1    2    0    0 -0.60272287671E+02 -0.68474410180E+03 -0.10623888708E+04  0.14004272406E+04  0.60001592468E+03 0.  0.
         23    2    4    4    0    0 -0.13952787118E+03 -0.54904105548E+02 -0.20049890564E+02  0.17697750247E+03  0.91850697471E+02 0.  0.
         23    2    4    4    0    0  0.79255583508E+02 -0.62983999625E+03 -0.10423389802E+04  0.12234497382E+04  0.85900196055E+02 0.  0.
          2    1    3    3  502    0  0.24635819551E+02  0.15855074578E+03 -0.58977026147E+02  0.17094897544E+03  0.00000000000E+00 0. -1.
         -2    1    3    3    0  502  0.35636468120E+02  0.52619335603E+03 -0.41168600142E+02  0.52900308073E+03  0.00000000000E+00 0.  1.
         13    1    5    5    0    0 -0.29364939644E+02 -0.40679676005E+02  0.26265904002E+02  0.56630675726E+02  0.00000000000E+00 0. -1.
        -13    1    5    5    0    0 -0.11016293154E+03 -0.14224429543E+02 -0.46315794566E+02  0.12034682674E+03  0.00000000000E+00 0.  1.
          4    1    6    6  503    0  0.90251879550E+02 -0.50598264450E+03 -0.79610571701E+03  0.94760126158E+03  0.00000000000E+00 0. -1.
         -4    1    6    6    0  503 -0.10996296042E+02 -0.12385735176E+03 -0.24623326323E+03  0.27584847658E+03  0.00000000000E+00 0.  1.
<mgrwt>
<rscale>  0 0.74370690E+03</rscale>
<asrwt>0</asrwt>
<pdfrwt beam="1">  1        1 0.25099337E+00 0.74370690E+03</pdfrwt>
<pdfrwt beam="2">  1       -1 0.72141907E-01 0.74370690E+03</pdfrwt>
<totfact> 0.10714775E+01</totfact>
</mgrwt>
</event>
<event>
12    1  0.1338445E-007  0.6157490E+03  0.7818608E-02  0.9873260E-01
         -1   -1    0    0    0  501 -0.00000000000E+00  0.00000000000E+00  0.29399306920E+03  0.29399306920E+03  0.00000000000E+00 0.  1.
          1   -1    0    0  501    0  0.00000000000E+00 -0.00000000000E+00 -0.13671817227E+04  0.13671817227E+04  0.00000000000E+00 0. -1.
         23    2    1    2    0    0 -0.19918501467E+03  0.43341939983E+03 -0.29587143818E+03  0.56952405950E+03  0.96388278315E+02 0.  0.
    5000000    2    1    2    0    0  0.19918501467E+03 -0.43341939983E+03 -0.77731721532E+03  0.10916507324E+04  0.59996018374E+03 0.  0.
         23    2    4    4    0    0 -0.19280186336E+03 -0.23481820437E+03 -0.34197844964E+03  0.46640080916E+03  0.90930232280E+02 0.  0.
         23    2    4    4    0    0  0.39198687803E+03 -0.19860119546E+03 -0.43533876568E+03  0.62524992324E+03  0.91222136648E+02 0.  0.
          4    1    3    3  502    0 -0.56117151861E+02  0.14624306493E+03 -0.15072034843E+03  0.21737707377E+03  0.00000000000E+00 0. -1.
         -4    1    3    3    0  502 -0.14306786281E+03  0.28717633491E+03 -0.14515108975E+03  0.35214698573E+03  0.00000000000E+00 0.  1.
         13    1    5    5    0    0 -0.16451928383E+03 -0.14131348786E+03 -0.20723155823E+03  0.29996835721E+03  0.00000000000E+00 0. -1.
        -13    1    5    5    0    0 -0.28282579535E+02 -0.93504716514E+02 -0.13474689141E+03  0.16643245195E+03  0.00000000000E+00 0.  1.
          2    1    6    6  503    0  0.18690008614E+03 -0.92148260614E+02 -0.27027903298E+03  0.34128243407E+03  0.00000000000E+00 0. -1.
         -2    1    6    6    0  503  0.20508679189E+03 -0.10645293485E+03 -0.16505973270E+03  0.28396748917E+03  0.00000000000E+00 0.  1.
<mgrwt>
<rscale>  0 0.61574897E+03</rscale>
<asrwt>0</asrwt>
<pdfrwt beam="1">  1        1 0.21033565E+00 0.61574897E+03</pdfrwt>
<pdfrwt beam="2">  1       -1 0.45229703E-01 0.61574897E+03</pdfrwt>
<totfact> 0.41101455E+01</totfact>
</mgrwt>
</event>
<event>
12    1  0.1338445E-007  0.6690017E+03  0.7818608E-02  0.9771763E-01
          2   -1    0    0  501    0  0.00000000000E+00  0.00000000000E+00  0.14141137670E+04  0.14141137670E+04  0.00000000000E+00 0.  1.
         -2   -1    0    0    0  501 -0.00000000000E+00 -0.00000000000E+00 -0.44061495224E+03  0.44061495224E+03  0.00000000000E+00 0. -1.
         23    2    1    2    0    0  0.28211000925E+03  0.52771495057E+03  0.56775845407E+02  0.60637253896E+03  0.79968950303E+02 0.  0.
    5000000    2    1    2    0    0 -0.28211000925E+03 -0.52771495057E+03  0.91672296938E+03  0.12483561803E+04  0.59995251810E+03 0.  0.
         23    2    4    4    0    0  0.98193332012E+02 -0.26848531807E+02  0.10327891729E+02  0.14113430876E+03  0.97208300315E+02 0.  0.
         23    2    4    4    0    0 -0.38030334126E+03 -0.50086641876E+03  0.90639507765E+03  0.11072218716E+04  0.94289104574E+02 0.  0.
          4    1    3    3  502    0  0.57903884392E+02  0.75679107488E+02 -0.15816483628E+02  0.96593728017E+02  0.00000000000E+00 0. -1.
         -4    1    3    3    0  502  0.22420612485E+03  0.45203584308E+03  0.72592329035E+02  0.50977881094E+03  0.00000000000E+00 0.  1.
         13    1    5    5    0    0  0.29688869658E+02 -0.23028802937E+02 -0.40877385421E+02  0.55522206234E+02  0.00000000000E+00 0. -1.
        -13    1    5    5    0    0  0.68504462355E+02 -0.38197288702E+01  0.51205277150E+02  0.85612102527E+02  0.00000000000E+00 0.  1.
          1    1    6    6  503    0 -0.20739163010E+03 -0.22182755666E+03  0.37406174706E+03  0.48181007020E+03  0.00000000000E+00 0. -1.
         -1    1    6    6    0  503 -0.17291171116E+03 -0.27903886210E+03  0.53233333059E+03  0.62541180135E+03  0.00000000000E+00 0.  1.
<mgrwt>
<rscale>  0 0.66900166E+03</rscale>
<asrwt>0</asrwt>
<pdfrwt beam="1">  1        2 0.21755596E+00 0.66900166E+03</pdfrwt>
<pdfrwt beam="2">  1       -2 0.67786917E-01 0.66900166E+03</pdfrwt>
<totfact> 0.29220290E+01</totfact>
</mgrwt>
</event>
<event>
12    1  0.1338445E-007  0.5236595E+03  0.7818608E-02  0.1007782E+00
          1   -1    0    0  501    0  0.00000000000E+00  0.00000000000E+00  0.37805623263E+03  0.37805623263E+03  0.00000000000E+00 0. -1.
         -1   -1    0    0    0  501 -0.00000000000E+00 -0.00000000000E+00 -0.10305300069E+04  0.10305300069E+04  0.00000000000E+00 0.  1.
         23    2    1    2    0    0  0.11904077688E+03 -0.41405546567E+03 -0.47829468623E+03  0.64966771265E+03  0.87690904719E+02 0.  0.
    5000000    2    1    2    0    0 -0.11904077688E+03  0.41405546567E+03 -0.17417908808E+03  0.75891852692E+03  0.60000528378E+03 0.  0.
         23    2    4    4    0    0 -0.16412516333E+03 -0.10181669245E+02 -0.25339240702E+03  0.31562825236E+03  0.91502710998E+02 0.  0.
         23    2    4    4    0    0  0.45084386449E+02  0.42423713491E+03  0.79213318947E+02  0.44329027456E+03  0.90673971378E+02 0.  0.
          2    1    3    3  502    0  0.72488093565E+02 -0.11001706821E+03 -0.13206109533E+03  0.18654332447E+03  0.00000000000E+00 0. -1.
         -2    1    3    3    0  502  0.46552683317E+02 -0.30403839746E+03 -0.34623359091E+03  0.46312438818E+03  0.00000000000E+00 0.  1.
         11    1    5    5    0    0  0.39268884048E+01 -0.61144671795E-01  0.55308242706E+01  0.67833773540E+01  0.00000000000E+00 0. -1.
        -11    1    5    5    0    0 -0.16805205174E+03 -0.10120524573E+02 -0.25892323130E+03  0.30884487500E+03  0.00000000000E+00 0.  1.
          4    1    6    6  503    0  0.36801624672E+02  0.53857173460E+02  0.19129045534E+02  0.67977018871E+02  0.00000000000E+00 0. -1.
         -4    1    6    6    0  503  0.82827617773E+01  0.37037996145E+03  0.60084273414E+02  0.37531325569E+03  0.00000000000E+00 0.  1.
<mgrwt>
<rscale>  0 0.52365949E+03</rscale>
<asrwt>0</asrwt>
<pdfrwt beam="1">  1        1 0.58162498E-01 0.52365949E+03</pdfrwt>
<pdfrwt beam="2">  1       -1 0.15854308E+00 0.52365949E+03</pdfrwt>
<totfact> 0.20455214E+01</totfact>
</mgrwt>
</event>
<event>
12    1  0.1338445E-007  0.8635894E+03  0.7818608E-02  0.9472277E-01
          2   -1    0    0  501    0  0.00000000000E+00  0.00000000000E+00  0.16724304140E+04  0.16724304140E+04  0.00000000000E+00 0. -1.
         -2   -1    0    0    0  501 -0.00000000000E+00 -0.00000000000E+00 -0.71975703675E+03  0.71975703675E+03  0.00000000000E+00 0.  1.
         23    2    1    2    0    0 -0.65011334968E+03  0.55009762840E+03  0.10394797824E+04  0.13468869448E+04  0.91276808649E+02 0.  0.
    5000000    2    1    2    0    0  0.65011334968E+03 -0.55009762840E+03 -0.86806405213E+02  0.10453005059E+04  0.59988584537E+03 0.  0.
         23    2    4    4    0    0  0.47903018058E+03 -0.32526098049E+03  0.21223162328E+03  0.62320291683E+03  0.89860971998E+02 0.  0.
         23    2    4    4    0    0  0.17108316909E+03 -0.22483664791E+03 -0.29903802849E+03  0.42209758908E+03  0.94454556421E+02 0.  0.
          1    1    3    3  502    0 -0.28371791584E+03  0.18168047529E+03  0.40960740982E+03  0.53036014279E+03  0.00000000000E+00 0. -1.
         -1    1    3    3    0  502 -0.36639543383E+03  0.36841715311E+03  0.62987237260E+03  0.81652680201E+03  0.00000000000E+00 0.  1.
         13    1    5    5    0    0  0.36684805275E+03 -0.28040510170E+03  0.14026352946E+03  0.48257473262E+03  0.00000000000E+00 0. -1.
        -13    1    5    5    0    0  0.11218212784E+03 -0.44855878794E+02  0.71968093817E+02  0.14062818422E+03  0.00000000000E+00 0.  1.
          2    1    6    6  503    0  0.49400503628E+02 -0.11099288083E+03 -0.74609254702E+02  0.14257057986E+03  0.00000000000E+00 0. -1.
         -2    1    6    6    0  503  0.12168266547E+03 -0.11384376708E+03 -0.22442877379E+03  0.27952700922E+03  0.00000000000E+00 0.  1.
<mgrwt>
<rscale>  0 0.86358942E+03</rscale>
<asrwt>0</asrwt>
<pdfrwt beam="1">  1        2 0.25729699E+00 0.86358942E+03</pdfrwt>
<pdfrwt beam="2">  1       -2 0.11073185E+00 0.86358942E+03</pdfrwt>
<totfact> 0.66497921E+00</totfact>
</mgrwt>
</event>
<event>
12    1  0.1338445E-007  0.1287886E+04  0.7818608E-02  0.9039227E-01
          2   -1    0    0  501    0  0.00000000000E+00  0.00000000000E+00  0.13570587928E+04  0.13570587928E+04  0.00000000000E+00 0.  1.
         -2   -1    0    0    0  501 -0.00000000000E+00 -0.00000000000E+00 -0.12830211418E+04  0.12830211418E+04  0.00000000000E+00 0. -1.
         23    2    1    2    0    0  0.56768261605E+03 -0.10880527858E+04 -0.19986059773E+03  0.12468185364E+04  0.92140038923E+02 0.  0.
    5000000    2    1    2    0    0 -0.56768261605E+03  0.10880527858E+04  0.27389824877E+03  0.13932613982E+04  0.60002887912E+03 0.  0.
         23    2    4    4    0    0 -0.66579585702E+03  0.85203798058E+03  0.28490670701E+03  0.11219956223E+04  0.91921167754E+02 0.  0.
         23    2    4    4    0    0  0.98113240969E+02  0.23601480525E+03 -0.11008458242E+02  0.27126577597E+03  0.90192786344E+02 0.  0.
          3    1    3    3  502    0  0.15634402688E+03 -0.36650790247E+03 -0.95350417815E+02  0.40971111712E+03  0.00000000000E+00 0. -1.
         -3    1    3    3    0  502  0.41133858917E+03 -0.72154488336E+03 -0.10451017991E+03  0.83710741924E+03  0.00000000000E+00 0.  1.
         11    1    5    5    0    0 -0.53196215787E+03  0.62083358996E+03  0.19991424333E+03  0.84165538584E+03  0.00000000000E+00 0. -1.
        -11    1    5    5    0    0 -0.13383369915E+03  0.23120439062E+03  0.84992463673E+02  0.28034023641E+03  0.00000000000E+00 0.  1.
          4    1    6    6  503    0  0.71200392714E+02  0.96339702721E+02  0.29484694691E+02  0.12337009955E+03  0.00000000000E+00 0.  1.
         -4    1    6    6    0  503  0.26912848255E+02  0.13967510253E+03 -0.40493152934E+02  0.14789567641E+03  0.00000000000E+00 0. -1.
<mgrwt>
<rscale>  0 0.12878864E+04</rscale>
<asrwt>0</asrwt>
<pdfrwt beam="1">  1        2 0.20877828E+00 0.12878864E+04</pdfrwt>
<pdfrwt beam="2">  1       -2 0.19738787E+00 0.12878864E+04</pdfrwt>
<totfact> 0.20388707E+00</totfact>
</mgrwt>
</event>
<event>
12    1  0.1338445E-007  0.7583825E+03  0.7818608E-02  0.9622291E-01
         -2   -1    0    0    0  501 -0.00000000000E+00  0.00000000000E+00  0.29385477557E+03  0.29385477557E+03  0.00000000000E+00 0.  1.
          2   -1    0    0  501    0  0.00000000000E+00 -0.00000000000E+00 -0.21996509304E+04  0.21996509304E+04  0.00000000000E+00 0. -1.
         23    2    1    2    0    0 -0.12981992779E+03 -0.67120268480E+03 -0.95337974156E+03  0.11765269566E+04  0.88974660886E+02 0.  0.
    5000000    2    1    2    0    0  0.12981992779E+03  0.67120268480E+03 -0.95241641332E+03  0.13169787494E+04  0.59997478639E+03 0.  0.
         23    2    4    4    0    0 -0.15674115877E+03  0.37506287908E+03 -0.72984841539E+03  0.84039913377E+03  0.91389498675E+02 0.  0.
         23    2    4    4    0    0  0.28656108656E+03  0.29613980571E+03 -0.22256799793E+03  0.47657961564E+03  0.88179223670E+02 0.  0.
          1    1    3    3  502    0 -0.76634294699E+02 -0.46637887440E+03 -0.58934111178E+03  0.75545020725E+03  0.00000000000E+00 0. -1.
         -1    1    3    3    0  502 -0.53185633091E+02 -0.20482381040E+03 -0.36403862978E+03  0.42107674935E+03  0.00000000000E+00 0.  1.
         13    1    5    5    0    0 -0.76986363039E+02  0.10971615497E+03 -0.30543989619E+03  0.33355369124E+03  0.00000000000E+00 0. -1.
        -13    1    5    5    0    0 -0.79754795729E+02  0.26534672411E+03 -0.42440851921E+03  0.50684544253E+03  0.00000000000E+00 0.  1.
          2    1    6    6  503    0  0.18385190795E+03  0.24601204547E+03 -0.16333600318E+03  0.34785356187E+03  0.00000000000E+00 0. -1.
         -2    1    6    6    0  503  0.10270917861E+03  0.50127760247E+02 -0.59231994749E+02  0.12872605377E+03  0.00000000000E+00 0.  1.
<mgrwt>
<rscale>  0 0.75838252E+03</rscale>
<asrwt>0</asrwt>
<pdfrwt beam="1">  1        2 0.33840784E+00 0.75838252E+03</pdfrwt>
<pdfrwt beam="2">  1       -2 0.45208426E-01 0.75838252E+03</pdfrwt>
<totfact> 0.24843636E+01</totfact>
</mgrwt>
</event>
<event>
12    1  0.1338445E-007  0.6504910E+03  0.7818608E-02  0.9805858E-01
          2   -1    0    0  501    0  0.00000000000E+00  0.00000000000E+00  0.18028417627E+04  0.18028417627E+04  0.00000000000E+00 0. -1.
         -2   -1    0    0    0  501 -0.00000000000E+00 -0.00000000000E+00 -0.26951540703E+03  0.26951540703E+03  0.00000000000E+00 0.  1.
         23    2    1    2    0    0  0.55434319319E+03 -0.62424730228E+01  0.77733295908E+03  0.95932113674E+03  0.93355073828E+02 0.  0.
    5000000    2    1    2    0    0 -0.55434319319E+03  0.62424730228E+01  0.75599339657E+03  0.11130360330E+04  0.59998987551E+03 0.  0.
         23    2    4    4    0    0 -0.45653252047E+03 -0.19484565462E+03  0.27395500774E+03  0.57388747124E+03  0.88930939543E+02 0.  0.
         23    2    4    4    0    0 -0.97810672720E+02  0.20108812764E+03  0.48203838883E+03  0.53914856173E+03  0.91196494089E+02 0.  0.
          2    1    3    3  502    0  0.32851227541E+03 -0.40323501774E+02  0.41207723643E+03  0.52853944855E+03  0.00000000000E+00 0.  1.
         -2    1    3    3    0  502  0.22583091778E+03  0.34081028751E+02  0.36525572266E+03  0.43078168819E+03  0.00000000000E+00 0. -1.
         13    1    5    5    0    0 -0.18435812892E+03 -0.41273838228E+02  0.13310122304E+03  0.23110037862E+03  0.00000000000E+00 0.  1.
        -13    1    5    5    0    0 -0.27217439155E+03 -0.15357181639E+03  0.14085378470E+03  0.34278709262E+03  0.00000000000E+00 0. -1.
          1    1    6    6  503    0  0.13832006474E+02  0.53226396673E+01  0.45782881392E+02  0.48122002501E+02  0.00000000000E+00 0. -1.
         -1    1    6    6    0  503 -0.11164267919E+03  0.19576548797E+03  0.43625550744E+03  0.49102655923E+03  0.00000000000E+00 0.  1.
<mgrwt>
<rscale>  0 0.65049099E+03</rscale>
<asrwt>0</asrwt>
<pdfrwt beam="1">  1        2 0.27736026E+00 0.65049099E+03</pdfrwt>
<pdfrwt beam="2">  1       -2 0.41463910E-01 0.65049099E+03</pdfrwt>
<totfact> 0.49237343E+01</totfact>
</mgrwt>
</event>
<event>
12    1  0.1483862E-007  0.6936786E+03  0.7818608E-02  0.9728104E-01
         -2   -1    0    0    0  501 -0.00000000000E+00  0.00000000000E+00  0.28146631072E+03  0.28146631072E+03  0.00000000000E+00 0.  1.
          2   -1    0    0  501    0  0.00000000000E+00 -0.00000000000E+00 -0.24536842567E+04  0.24536842567E+04  0.00000000000E+00 0. -1.
         23    2    1    2    0    0  0.49828158656E+03  0.26488193312E+03 -0.16823777621E+04  0.17768282061E+04  0.90975609086E+02 0.  0.
    5000000    2    1    2    0    0 -0.49828158656E+03 -0.26488193312E+03 -0.48984018389E+03  0.95832236137E+03  0.59999280375E+03 0.  0.
         23    2    4    4    0    0  0.12154420660E+03 -0.44114176222E+02 -0.11245267153E+03  0.19432611517E+03  0.91640498700E+02 0.  0.
         23    2    4    4    0    0 -0.61982579316E+03 -0.22076775690E+03 -0.37738751236E+03  0.76399624620E+03  0.91359254457E+02 0.  0.
          2    1    3    3  502    0  0.14332345945E+03  0.11002643810E+03 -0.63250921387E+03  0.65781101901E+03  0.00000000000E+00 0. -1.
         -2    1    3    3    0  502  0.35495812711E+03  0.15485549502E+03 -0.10498685483E+04  0.11190171871E+04  0.00000000000E+00 0.  1.
         11    1    5    5    0    0  0.41125319943E+02  0.26525367489E+02 -0.51958080858E+02  0.71375970938E+02  0.00000000000E+00 0.  1.
        -11    1    5    5    0    0  0.80418886655E+02 -0.70639543711E+02 -0.60494590670E+02  0.12295014423E+03  0.00000000000E+00 0. -1.
          3    1    6    6  503    0 -0.31732045179E+03 -0.15799956978E+03 -0.18231589107E+03  0.39861662950E+03  0.00000000000E+00 0. -1.
         -3    1    6    6    0  503 -0.30250534137E+03 -0.62768187117E+02 -0.19507162129E+03  0.36537961670E+03  0.00000000000E+00 0.  1.
<mgrwt>
<rscale>  0 0.69367858E+03</rscale>
<asrwt>0</asrwt>
<pdfrwt beam="1">  1        2 0.37748988E+00 0.69367858E+03</pdfrwt>
<pdfrwt beam="2">  1       -2 0.43302510E-01 0.69367858E+03</pdfrwt>
<totfact> 0.19735389E+01</totfact>
</mgrwt>
</event>
<event>
12    1  0.1338445E-007  0.9296040E+03  0.7818608E-02  0.9389313E-01
         -4   -1    0    0    0  501 -0.00000000000E+00  0.00000000000E+00  0.85841036096E+03  0.85841036096E+03  0.00000000000E+00 0. -1.
          4   -1    0    0  501    0  0.00000000000E+00 -0.00000000000E+00 -0.11903003857E+04  0.11903003857E+04  0.00000000000E+00 0.  1.
         23    2    1    2    0    0 -0.66782396596E+03 -0.60333766078E+03 -0.34216184524E+03  0.96713383185E+03  0.90928202118E+02 0.  0.
    5000000    2    1    2    0    0  0.66782396596E+03  0.60333766078E+03  0.10271820503E+02  0.10815769148E+04  0.59974822212E+03 0.  0.
         23    2    4    4    0    0  0.15858767130E+03  0.10245106300E+02 -0.19559981479E+03  0.26814282378E+03  0.91576605679E+02 0.  0.
         23    2    4    4    0    0  0.50923629466E+03  0.59309255448E+03  0.20587163530E+03  0.81343409103E+03  0.90617372773E+02 0.  0.
          1    1    3    3  502    0 -0.45749891673E+03 -0.35618224809E+03 -0.23020234300E+03  0.62383024244E+03  0.00000000000E+00 0. -1.
         -1    1    3    3    0  502 -0.21032504923E+03 -0.24715541270E+03 -0.11195950224E+03  0.34330358941E+03  0.00000000000E+00 0.  1.
         13    1    5    5    0    0  0.75337632182E+02 -0.23204207286E+02 -0.14524741183E+03  0.16526041481E+03  0.00000000000E+00 0. -1.
        -13    1    5    5    0    0  0.83250039117E+02  0.33449313586E+02 -0.50352402960E+02  0.10288240897E+03  0.00000000000E+00 0.  1.
          3    1    6    6  503    0  0.34109523217E+02  0.80334199059E+02  0.33199965926E+02  0.93377089535E+02  0.00000000000E+00 0. -1.
         -3    1    6    6    0  503  0.47512677144E+03  0.51275835543E+03  0.17267166937E+03  0.72005700150E+03  0.00000000000E+00 0.  1.
<mgrwt>
<rscale>  0 0.92960405E+03</rscale>
<asrwt>0</asrwt>
<pdfrwt beam="1">  1        4 0.18312314E+00 0.92960405E+03</pdfrwt>
<pdfrwt beam="2">  1       -4 0.13206313E+00 0.92960405E+03</pdfrwt>
<totfact> 0.13730656E-01</totfact>
</mgrwt>
</event>
<event>
12    1  0.1338445E-007  0.8662794E+03  0.7818608E-02  0.9468744E-01
          2   -1    0    0  501    0  0.00000000000E+00  0.00000000000E+00  0.10852569205E+04  0.10852569205E+04  0.00000000000E+00 0. -1.
         -2   -1    0    0    0  501 -0.00000000000E+00 -0.00000000000E+00 -0.83038414166E+03  0.83038414166E+03  0.00000000000E+00 0.  1.
         23    2    1    2    0    0 -0.63564498136E+03  0.54003527153E+03 -0.60483004948E+02  0.84086406745E+03  0.87815426986E+02 0.  0.
    5000000    2    1    2    0    0  0.63564498136E+03 -0.54003527153E+03  0.31535578380E+03  0.10747769947E+04  0.60001140086E+03 0.  0.
         23    2    4    4    0    0  0.28050951726E+02 -0.46808097832E+01  0.23792660937E+03  0.25626935110E+03  0.90863320406E+02 0.  0.
         23    2    4    4    0    0  0.60759402963E+03 -0.53535446175E+03  0.77429174434E+02  0.81850764361E+03  0.90468674349E+02 0.  0.
          3    1    3    3  502    0 -0.40675751512E+03  0.35870352954E+03 -0.80019717528E+02  0.54819982981E+03  0.00000000000E+00 0. -1.
         -3    1    3    3    0  502 -0.22888746624E+03  0.18133174199E+03  0.19536712580E+02  0.29266423764E+03  0.00000000000E+00 0.  1.
         11    1    5    5    0    0  0.45170121197E+02  0.24619791218E+02  0.19431982299E+03  0.20101409795E+03  0.00000000000E+00 0. -1.
        -11    1    5    5    0    0 -0.17119169470E+02 -0.29300601001E+02  0.43606786382E+02  0.55255253152E+02  0.00000000000E+00 0.  1.
          2    1    6    6  503    0  0.41487643431E+03 -0.40774620054E+03  0.81179227233E+02  0.58734103103E+03  0.00000000000E+00 0. -1.
         -2    1    6    6    0  503  0.19271759532E+03 -0.12760826122E+03 -0.37500527987E+01  0.23116661259E+03  0.00000000000E+00 0.  1.
<mgrwt>
<rscale>  0 0.86627936E+03</rscale>
<asrwt>0</asrwt>
<pdfrwt beam="1">  1        2 0.16696260E+00 0.86627936E+03</pdfrwt>
<pdfrwt beam="2">  1       -2 0.12775141E+00 0.86627936E+03</pdfrwt>
<totfact> 0.10150246E+01</totfact>
</mgrwt>
</event>
<event>
12    1  0.1338445E-007  0.6440604E+03  0.7818608E-02  0.9817989E-01
          1   -1    0    0  501    0  0.00000000000E+00  0.00000000000E+00  0.47355974865E+03  0.47355974865E+03  0.00000000000E+00 0. -1.
         -1   -1    0    0    0  501 -0.00000000000E+00 -0.00000000000E+00 -0.12376677590E+04  0.12376677590E+04  0.00000000000E+00 0.  1.
         23    2    1    2    0    0  0.96935348231E+01  0.61294917269E+03 -0.54755197873E+03  0.82699739347E+03  0.91163953842E+02 0.  0.
    5000000    2    1    2    0    0 -0.96935348231E+01 -0.61294917269E+03 -0.21655603158E+03  0.88423011413E+03  0.59930436926E+03 0.  0.
         23    2    4    4    0    0 -0.13151022477E+03 -0.35657496869E+03  0.14426920909E+03  0.41664866022E+03  0.91333749822E+02 0.  0.
         23    2    4    4    0    0  0.12181668994E+03 -0.25637420400E+03 -0.36082524067E+03  0.46758145392E+03  0.88715969893E+02 0.  0.
          3    1    3    3  502    0  0.44728107318E+01  0.56613301462E+03 -0.53331587815E+03  0.77778687451E+03  0.00000000000E+00 0. -1.
         -3    1    3    3    0  502  0.52207240912E+01  0.46816158068E+02 -0.14236100579E+02  0.49210518956E+02  0.00000000000E+00 0.  1.
         11    1    5    5    0    0 -0.13177169437E+03 -0.23608961484E+03  0.98142893273E+02  0.28763538234E+03  0.00000000000E+00 0. -1.
        -11    1    5    5    0    0  0.26146960591E+00 -0.12048535384E+03  0.46126315822E+02  0.12901327788E+03  0.00000000000E+00 0.  1.
          1    1    6    6  503    0  0.52191547621E+02 -0.98962949394E+02 -0.21341301217E+03  0.24096210648E+03  0.00000000000E+00 0. -1.
         -1    1    6    6    0  503  0.69625142324E+02 -0.15741125461E+03 -0.14741222850E+03  0.22661934744E+03  0.00000000000E+00 0.  1.
<mgrwt>
<rscale>  0 0.64406039E+03</rscale>
<asrwt>0</asrwt>
<pdfrwt beam="1">  1        1 0.72855347E-01 0.64406039E+03</pdfrwt>
<pdfrwt beam="2">  1       -1 0.19041042E+00 0.64406039E+03</pdfrwt>
<totfact> 0.87802498E+00</totfact>
</mgrwt>
</event>
<event>
12    1  0.1338445E-007  0.1018221E+04  0.7818608E-02  0.9288783E-01
          1   -1    0    0  501    0  0.00000000000E+00  0.00000000000E+00  0.26343234240E+04  0.26343234240E+04  0.00000000000E+00 0. -1.
         -1   -1    0    0    0  501 -0.00000000000E+00 -0.00000000000E+00 -0.48364037123E+03  0.48364037123E+03  0.00000000000E+00 0.  1.
         23    2    1    2    0    0  0.69604139080E+03  0.71839065921E+03  0.57335229642E+03  0.11561734567E+04  0.86287016319E+02 0.  0.
    5000000    2    1    2    0    0 -0.69604139080E+03 -0.71839065921E+03  0.15773307563E+04  0.19617903385E+04  0.60007521240E+03 0.  0.
         23    2    4    4    0    0 -0.24860555878E+03 -0.43822442026E+03  0.12067452900E+04  0.13109584806E+04  0.92371947198E+02 0.  0.
         23    2    4    4    0    0 -0.44743583202E+03 -0.28016623895E+03  0.37058546630E+03  0.65083185787E+03  0.86928557842E+02 0.  0.
          3    1    3    3  502    0  0.34384933204E+03  0.36244626769E+03  0.33566563270E+03  0.60188958878E+03  0.00000000000E+00 0. -1.
         -3    1    3    3    0  502  0.35219205876E+03  0.35594439152E+03  0.23768666372E+03  0.55428386790E+03  0.00000000000E+00 0.  1.
         13    1    5    5    0    0 -0.18525185937E+03 -0.26954091390E+03  0.68738016612E+03  0.76122404615E+03  0.00000000000E+00 0. -1.
        -13    1    5    5    0    0 -0.63353699412E+02 -0.16868350637E+03  0.51936512390E+03  0.54973443450E+03  0.00000000000E+00 0.  1.
          2    1    6    6  503    0 -0.83334474620E+02 -0.67125801568E+02  0.11734296683E+03  0.15880768168E+03  0.00000000000E+00 0. -1.
         -2    1    6    6    0  503 -0.36410135740E+03 -0.21304043738E+03  0.25324249946E+03  0.49202417619E+03  0.00000000000E+00 0.  1.
<mgrwt>
<rscale>  0 0.10182209E+04</rscale>
<asrwt>0</asrwt>
<pdfrwt beam="1">  1        1 0.40528052E+00 0.10182209E+04</pdfrwt>
<pdfrwt beam="2">  1       -1 0.74406213E-01 0.10182209E+04</pdfrwt>
<totfact> 0.20210658E+00</totfact>
</mgrwt>
</event>
<event>
12    1  0.1338445E-007  0.7322616E+03  0.7818608E-02  0.9663598E-01
          2   -1    0    0  501    0  0.00000000000E+00  0.00000000000E+00  0.20649189153E+04  0.20649189153E+04  0.00000000000E+00 0. -1.
         -2   -1    0    0    0  501 -0.00000000000E+00 -0.00000000000E+00 -0.30698944939E+03  0.30698944939E+03  0.00000000000E+00 0.  1.
         23    2    1    2    0    0 -0.23630844473E+03 -0.63472636055E+03  0.84415170977E+03  0.10859572390E+04  0.89396767341E+02 0.  0.
    5000000    2    1    2    0    0  0.23630844473E+03  0.63472636055E+03  0.91377775610E+03  0.12859511256E+04  0.59996772926E+03 0.  0.
         23    2    4    4    0    0  0.11326759397E+03 -0.16292493275E+02  0.44757032357E+03  0.47080122249E+03  0.90772261038E+02 0.  0.
         23    2    4    4    0    0  0.12304085076E+03  0.65101885383E+03  0.46620743253E+03  0.81514990315E+03  0.90307228195E+02 0.  0.
          1    1    3    3  502    0 -0.11956485162E+03 -0.38088272810E+03  0.55720703770E+03  0.68545392928E+03  0.00000000000E+00 0. -1.
         -1    1    3    3    0  502 -0.11674359311E+03 -0.25384363246E+03  0.28694467207E+03  0.40050330972E+03  0.00000000000E+00 0.  1.
         13    1    5    5    0    0  0.10865383931E+03 -0.26088435160E+02  0.26096504241E+03  0.28388204699E+03  0.00000000000E+00 0. -1.
        -13    1    5    5    0    0  0.46137546593E+01  0.97959418846E+01  0.18660528117E+03  0.18691917550E+03  0.00000000000E+00 0.  1.
          4    1    6    6  503    0  0.66121829301E+02  0.43283058728E+03  0.25785454439E+03  0.50813716618E+03  0.00000000000E+00 0. -1.
         -4    1    6    6    0  503  0.56919021457E+02  0.21818826655E+03  0.20835288814E+03  0.30701273697E+03  0.00000000000E+00 0.  1.
<mgrwt>
<rscale>  0 0.73226160E+03</rscale>
<asrwt>0</asrwt>
<pdfrwt beam="1">  1        2 0.31767982E+00 0.73226160E+03</pdfrwt>
<pdfrwt beam="2">  1       -2 0.47229147E-01 0.73226160E+03</pdfrwt>
<totfact> 0.27080910E+01</totfact>
</mgrwt>
</event>
<event>
12    1  0.1338445E-007  0.8186455E+03  0.7818608E-02  0.9533414E-01
         -1   -1    0    0    0  501 -0.00000000000E+00  0.00000000000E+00  0.40373241287E+03  0.40373241287E+03  0.00000000000E+00 0.  1.
          1   -1    0    0  501    0  0.00000000000E+00 -0.00000000000E+00 -0.20971915790E+04  0.20971915790E+04  0.00000000000E+00 0. -1.
         23    2    1    2    0    0 -0.25949506678E+03  0.76851778967E+03 -0.91971988022E+03  0.12294602073E+04  0.87923037903E+02 0.  0.
    5000000    2    1    2    0    0  0.25949506678E+03 -0.76851778967E+03 -0.77373928587E+03  0.12714637845E+04  0.59999199172E+03 0.  0.
         23    2    4    4    0    0  0.14759726657E+03 -0.53350860832E+03 -0.13955924621E+03  0.58019928961E+03  0.10362453479E+03 0.  0.
         23    2    4    4    0    0  0.11189780021E+03 -0.23500918135E+03 -0.63418003966E+03  0.69126449491E+03  0.88948559359E+02 0.  0.
          3    1    3    3  502    0 -0.14028900349E+03  0.50841946943E+03 -0.64013562459E+03  0.82942448678E+03  0.00000000000E+00 0. -1.
         -3    1    3    3    0  502 -0.11920606328E+03  0.26009832024E+03 -0.27958425563E+03  0.40003572054E+03  0.00000000000E+00 0.  1.
         13    1    5    5    0    0  0.11664559638E+03 -0.47380385052E+03 -0.15348631144E+03  0.51152158480E+03  0.00000000000E+00 0. -1.
        -13    1    5    5    0    0  0.30951670186E+02 -0.59704757803E+02  0.13927065227E+02  0.68677704806E+02  0.00000000000E+00 0.  1.
          4    1    6    6  503    0  0.97961016922E+02 -0.13079023046E+03 -0.30959563672E+03  0.35007414000E+03  0.00000000000E+00 0. -1.
         -4    1    6    6    0  503  0.13936783286E+02 -0.10421895089E+03 -0.32458440294E+03  0.34119035491E+03  0.00000000000E+00 0.  1.
<mgrwt>
<rscale>  0 0.81864545E+03</rscale>
<asrwt>0</asrwt>
<pdfrwt beam="1">  1        1 0.32264487E+00 0.81864545E+03</pdfrwt>
<pdfrwt beam="2">  1       -1 0.62112678E-01 0.81864545E+03</pdfrwt>
<totfact> 0.69862560E+00</totfact>
</mgrwt>
</event>
<event>
12    1  0.1338445E-007  0.9942927E+03  0.7818608E-02  0.9314827E-01
          1   -1    0    0  501    0  0.00000000000E+00  0.00000000000E+00  0.29510625242E+04  0.29510625242E+04  0.00000000000E+00 0. -1.
         -1   -1    0    0    0  501 -0.00000000000E+00 -0.00000000000E+00 -0.39106579341E+03  0.39106579341E+03  0.00000000000E+00 0.  1.
         23    2    1    2    0    0  0.63448038989E+03 -0.75760877380E+03  0.11912530302E+04  0.15505292754E+04  0.92308356545E+02 0.  0.
    5000000    2    1    2    0    0 -0.63448038989E+03  0.75760877380E+03  0.13687437006E+04  0.17915990422E+04  0.59985947590E+03 0.  0.
         23    2    4    4    0    0 -0.34024797761E+03  0.46487692740E+03  0.33198094467E+03  0.67102257863E+03  0.90447274730E+02 0.  0.
         23    2    4    4    0    0 -0.29423241228E+03  0.29273184640E+03  0.10367627560E+04  0.11205764636E+04  0.92465952135E+02 0.  0.
          3    1    3    3  502    0  0.53088105588E+03 -0.59502061036E+03  0.91592921671E+03  0.12144177832E+04  0.00000000000E+00 0. -1.
         -3    1    3    3    0  502  0.10359933401E+03 -0.16258816344E+03  0.27532381346E+03  0.33611149215E+03  0.00000000000E+00 0.  1.
         11    1    5    5    0    0 -0.88093175377E+02  0.19077733449E+03  0.10557944217E+03  0.23516678659E+03  0.00000000000E+00 0.  1.
        -11    1    5    5    0    0 -0.25215480224E+03  0.27409959291E+03  0.22640150250E+03  0.43585579204E+03  0.00000000000E+00 0. -1.
          2    1    6    6  503    0 -0.13954725847E+03  0.12134811072E+03  0.34698860871E+03  0.39319193265E+03  0.00000000000E+00 0. -1.
         -2    1    6    6    0  503 -0.15468515381E+03  0.17138373567E+03  0.68977414727E+03  0.72738453097E+03  0.00000000000E+00 0.  1.
<mgrwt>
<rscale>  0 0.99429269E+03</rscale>
<asrwt>0</asrwt>
<pdfrwt beam="1">  1        1 0.45400960E+00 0.99429269E+03</pdfrwt>
<pdfrwt beam="2">  1       -1 0.60163970E-01 0.99429269E+03</pdfrwt>
<totfact> 0.18686367E+00</totfact>
</mgrwt>
</event>
<event>
12    1  0.1338445E-007  0.1451746E+04  0.7818608E-02  0.8917191E-01
         -2   -1    0    0    0  501 -0.00000000000E+00  0.00000000000E+00  0.15451131373E+04  0.15451131373E+04  0.00000000000E+00 0.  1.
          2   -1    0    0  501    0  0.00000000000E+00 -0.00000000000E+00 -0.13798668432E+04  0.13798668432E+04  0.00000000000E+00 0. -1.
         23    2    1    2    0    0  0.94864440202E+02 -0.13905926914E+04  0.17281425907E+03  0.14074795956E+04  0.91579193425E+02 0.  0.
    5000000    2    1    2    0    0 -0.94864440202E+02  0.13905926914E+04 -0.75679650099E+01  0.15175003848E+04  0.60000237374E+03 0.  0.
         23    2    4    4    0    0  0.23016707328E+03  0.79613586494E+03 -0.77883041698E+01  0.83378364902E+03  0.91243184014E+02 0.  0.
         23    2    4    4    0    0 -0.32503151348E+03  0.59445682643E+03  0.22033915987E+00  0.68371673579E+03  0.91891909335E+02 0.  0.
          4    1    3    3  502    0  0.20837707984E+02 -0.25816869494E+03 -0.34511812601E+01  0.25903126408E+03  0.00000000000E+00 0. -1.
         -4    1    3    3    0  502  0.74026732218E+02 -0.11324239964E+04  0.17626544033E+03  0.11484483315E+04  0.00000000000E+00 0.  1.
         13    1    5    5    0    0  0.88753877394E+02  0.38273329040E+03 -0.44102154739E+02  0.39535682919E+03  0.00000000000E+00 0. -1.
        -13    1    5    5    0    0  0.14141319588E+03  0.41340257454E+03  0.36313850569E+02  0.43842681983E+03  0.00000000000E+00 0.  1.
          3    1    6    6  503    0 -0.81677841393E+02  0.10326258667E+03 -0.28813001917E+02  0.13477618728E+03  0.00000000000E+00 0. -1.
         -3    1    6    6    0  503 -0.24335367209E+03  0.49119423976E+03  0.29033341076E+02  0.54894054850E+03  0.00000000000E+00 0.  1.
<mgrwt>
<rscale>  0 0.14517457E+04</rscale>
<asrwt>0</asrwt>
<pdfrwt beam="1">  1        2 0.21228720E+00 0.14517457E+04</pdfrwt>
<pdfrwt beam="2">  1       -2 0.23770972E+00 0.14517457E+04</pdfrwt>
<totfact> 0.10761980E+00</totfact>
</mgrwt>
</event>
<event>
12    1  0.1338445E-007  0.3762863E+03  0.7818608E-02  0.1052315E+00
          2   -1    0    0  501    0  0.00000000000E+00  0.00000000000E+00  0.14289205109E+04  0.14289205109E+04  0.00000000000E+00 0. -1.
         -2   -1    0    0    0  501 -0.00000000000E+00 -0.00000000000E+00 -0.18995178067E+03  0.18995178067E+03  0.00000000000E+00 0.  1.
         23    2    1    2    0    0 -0.27436753012E+03  0.19793245177E+03  0.47222759252E+03  0.58810870650E+03  0.91750501242E+02 0.  0.
    5000000    2    1    2    0    0  0.27436753012E+03 -0.19793245177E+03  0.76674113771E+03  0.10307635851E+04  0.60010565652E+03 0.  0.
         23    2    4    4    0    0  0.22824353567E+03 -0.16584570131E+03  0.44092758399E+02  0.29988651933E+03  0.91585178487E+02 0.  0.
         23    2    4    4    0    0  0.46123994457E+02 -0.32086750462E+02  0.72264837931E+03  0.73087706574E+03  0.93827622122E+02 0.  0.
          3    1    3    3  502    0 -0.11808811726E+03  0.13189474540E+03  0.28441925923E+03  0.33501543595E+03  0.00000000000E+00 0.  1.
         -3    1    3    3    0  502 -0.15627941286E+03  0.66037706369E+02  0.18780833329E+03  0.25309327055E+03  0.00000000000E+00 0. -1.
         13    1    5    5    0    0 -0.23642969845E+01 -0.27685022888E+02  0.32898851055E+01  0.27979880925E+02  0.00000000000E+00 0.  1.
        -13    1    5    5    0    0  0.23060783265E+03 -0.13816067842E+03  0.40802873294E+02  0.27190663841E+03  0.00000000000E+00 0. -1.
          1    1    6    6  503    0  0.74899127681E+02 -0.29033079522E+02  0.51727535681E+03  0.52347549493E+03  0.00000000000E+00 0. -1.
         -1    1    6    6    0  503 -0.28775133225E+02 -0.30536709399E+01  0.20537302251E+03  0.20740157081E+03  0.00000000000E+00 0.  1.
<mgrwt>
<rscale>  0 0.37628634E+03</rscale>
<asrwt>0</asrwt>
<pdfrwt beam="1">  1        2 0.21983392E+00 0.37628634E+03</pdfrwt>
<pdfrwt beam="2">  1       -2 0.29223352E-01 0.37628634E+03</pdfrwt>
<totfact> 0.15852794E+02</totfact>
</mgrwt>
</event>
<event>
12    1  0.1338445E-007  0.7719511E+03  0.7818608E-02  0.9601528E-01
         -1   -1    0    0    0  501 -0.00000000000E+00  0.00000000000E+00  0.50320754350E+03  0.50320754350E+03  0.00000000000E+00 0.  1.
          1   -1    0    0  501    0  0.00000000000E+00 -0.00000000000E+00 -0.12382672362E+04  0.12382672362E+04  0.00000000000E+00 0. -1.
         23    2    1    2    0    0 -0.14108895263E+03  0.65193607106E+03 -0.40131624940E+03  0.78424040943E+03  0.95139657598E+02 0.  0.
    5000000    2    1    2    0    0  0.14108895263E+03 -0.65193607106E+03 -0.33374344328E+03  0.95723437025E+03  0.59998851685E+03 0.  0.
         23    2    4    4    0    0  0.65222894828E+02 -0.73869317134E+03 -0.30248269219E+03  0.80605846949E+03  0.91174830802E+02 0.  0.
         23    2    4    4    0    0  0.75866057801E+02  0.86757100280E+02 -0.31260751089E+02  0.15117590076E+03  0.92706338704E+02 0.  0.
          3    1    3    3  502    0 -0.31462786241E+02  0.34381938509E+03 -0.23208387858E+03  0.41601034023E+03  0.00000000000E+00 0. -1.
         -3    1    3    3    0  502 -0.10962616639E+03  0.30811668596E+03 -0.16923237082E+03  0.36823006920E+03  0.00000000000E+00 0.  1.
         13    1    5    5    0    0 -0.13654968791E+02 -0.35894619174E+03 -0.15178637685E+03  0.38995888364E+03  0.00000000000E+00 0. -1.
        -13    1    5    5    0    0  0.78877863619E+02 -0.37974697960E+03 -0.15069631535E+03  0.41609958585E+03  0.00000000000E+00 0.  1.
          2    1    6    6  503    0  0.54495646999E+02  0.26463483627E+02 -0.56087298270E+02  0.82558322020E+02  0.00000000000E+00 0.  1.
         -2    1    6    6    0  503  0.21370410802E+02  0.60293616652E+02  0.24826547181E+02  0.68617578738E+02  0.00000000000E+00 0. -1.
<mgrwt>
<rscale>  0 0.77195111E+03</rscale>
<asrwt>0</asrwt>
<pdfrwt beam="1">  1        1 0.19050265E+00 0.77195111E+03</pdfrwt>
<pdfrwt beam="2">  1       -1 0.77416546E-01 0.77195111E+03</pdfrwt>
<totfact> 0.17253347E+01</totfact>
</mgrwt>
</event>
<event>
12    1  0.2012871E-007  0.1054005E+04  0.7818608E-02  0.9251219E-01
          2   -1    0    0  501    0  0.00000000000E+00  0.00000000000E+00  0.21995452755E+04  0.21995452755E+04  0.00000000000E+00 0. -1.
         -2   -1    0    0    0  501 -0.00000000000E+00 -0.00000000000E+00 -0.60097833684E+03  0.60097833684E+03  0.00000000000E+00 0.  1.
         23    2    1    2    0    0 -0.21902961215E+03  0.98709017941E+03  0.32190394270E+03  0.10649891014E+04  0.90877084581E+02 0.  0.
    5000000    2    1    2    0    0  0.21902961215E+03 -0.98709017941E+03  0.12766629959E+04  0.17355345109E+04  0.59990885977E+03 0.  0.
         23    2    4    4    0    0 -0.11096699068E+03 -0.39973956949E+03  0.79783022378E+03  0.90385193704E+03  0.91158442653E+02 0.  0.
         23    2    4    4    0    0  0.32999660282E+03 -0.58735060992E+03  0.47883277213E+03  0.83168257385E+03  0.92393631377E+02 0.  0.
          3    1    3    3  502    0 -0.99956366228E+02  0.40707354055E+03  0.17956133753E+03  0.45600703558E+03  0.00000000000E+00 0. -1.
         -3    1    3    3    0  502 -0.11907324592E+03  0.58001663886E+03  0.14234260518E+03  0.60898206583E+03  0.00000000000E+00 0.  1.
         11    1    5    5    0    0 -0.37389997541E+01 -0.15631474556E+03  0.34286318918E+03  0.37683344635E+03  0.00000000000E+00 0. -1.
        -11    1    5    5    0    0 -0.10722799092E+03 -0.24342482393E+03  0.45496703461E+03  0.52701849069E+03  0.00000000000E+00 0.  1.
          4    1    6    6  503    0  0.14921128903E+03 -0.29629179439E+03  0.18220041214E+03  0.37848358799E+03  0.00000000000E+00 0.  1.
         -4    1    6    6    0  503  0.18078531379E+03 -0.29105881553E+03  0.29663235999E+03  0.45319898585E+03  0.00000000000E+00 0. -1.
<mgrwt>
<rscale>  0 0.10540053E+04</rscale>
<asrwt>0</asrwt>
<pdfrwt beam="1">  1        2 0.33839158E+00 0.10540053E+04</pdfrwt>
<pdfrwt beam="2">  1       -2 0.92458207E-01 0.10540053E+04</pdfrwt>
<totfact> 0.51163594E+00</totfact>
</mgrwt>
</event>
<event>
12    1  0.1338445E-007  0.5012984E+03  0.7818608E-02  0.1013441E+00
         -2   -1    0    0    0  501 -0.00000000000E+00  0.00000000000E+00  0.47654910276E+03  0.47654910276E+03  0.00000000000E+00 0.  1.
          2   -1    0    0  501    0  0.00000000000E+00 -0.00000000000E+00 -0.71827210578E+03  0.71827210578E+03  0.00000000000E+00 0. -1.
         23    2    1    2    0    0  0.98043342120E+02  0.38960815544E+03  0.52796884616E+02  0.41498371626E+03  0.89537489448E+02 0.  0.
    5000000    2    1    2    0    0 -0.98043342120E+02 -0.38960815544E+03 -0.29451988763E+03  0.77983749227E+03  0.59999794868E+03 0.  0.
         23    2    4    4    0    0  0.16835216242E+03 -0.80984050517E+02  0.76100210216E+02  0.22138454862E+03  0.91208603446E+02 0.  0.
         23    2    4    4    0    0 -0.26639550454E+03 -0.30862410493E+03 -0.37062009785E+03  0.55845294366E+03  0.91077057320E+02 0.  0.
          1    1    3    3  502    0  0.48301732853E+02  0.19101832723E+03  0.71043880617E+02  0.20944758702E+03  0.00000000000E+00 0. -1.
         -1    1    3    3    0  502  0.49741609267E+02  0.19858982821E+03 -0.18246996001E+02  0.20553612925E+03  0.00000000000E+00 0.  1.
         11    1    5    5    0    0  0.61832589961E+02 -0.21295200173E+02 -0.17309868598E+02  0.67648993212E+02  0.00000000000E+00 0.  1.
        -11    1    5    5    0    0  0.10651957246E+03 -0.59688850343E+02  0.93410078814E+02  0.15373555540E+03  0.00000000000E+00 0. -1.
          1    1    6    6  503    0 -0.19103905048E+03 -0.26364058546E+03 -0.25645204364E+03  0.41445135758E+03  0.00000000000E+00 0. -1.
         -1    1    6    6    0  503 -0.75356454060E+02 -0.44983519465E+02 -0.11416805421E+03  0.14400158608E+03  0.00000000000E+00 0.  1.
<mgrwt>
<rscale>  0 0.50129840E+03</rscale>
<asrwt>0</asrwt>
<pdfrwt beam="1">  1        2 0.11050340E+00 0.50129840E+03</pdfrwt>
<pdfrwt beam="2">  1       -2 0.73315247E-01 0.50129840E+03</pdfrwt>
<totfact> 0.68857828E+01</totfact>
</mgrwt>
</event>
<event>
12    1  0.1338445E-007  0.5329376E+03  0.7818608E-02  0.1005522E+00
          2   -1    0    0  501    0  0.00000000000E+00  0.00000000000E+00  0.31156377391E+03  0.31156377391E+03  0.00000000000E+00 0. -1.
         -2   -1    0    0    0  501 -0.00000000000E+00 -0.00000000000E+00 -0.11671896505E+04  0.11671896505E+04  0.00000000000E+00 0.  1.
         23    2    1    2    0    0 -0.34105437353E+03 -0.20491424850E+03 -0.76752748007E+02  0.41808163940E+03  0.10292394249E+03 0.  0.
    5000000    2    1    2    0    0  0.34105437353E+03  0.20491424850E+03 -0.77887312857E+03  0.10606717850E+04  0.60006112199E+03 0.  0.
         23    2    4    4    0    0  0.12366597385E+03  0.36943405928E+03 -0.60296300512E+03  0.72373704195E+03  0.91957180762E+02 0.  0.
         23    2    4    4    0    0  0.21738839968E+03 -0.16451981078E+03 -0.17591012345E+03  0.33693474305E+03  0.90863441967E+02 0.  0.
          4    1    3    3  502    0 -0.13323100556E+03 -0.11768062647E+03  0.63110130048E+01  0.17787371805E+03  0.00000000000E+00 0. -1.
         -4    1    3    3    0  502 -0.20782336796E+03 -0.87233622031E+02 -0.83063761012E+02  0.24020792135E+03  0.00000000000E+00 0.  1.
         11    1    5    5    0    0  0.11166633547E+03  0.33336307113E+03 -0.47964616444E+03  0.59469382941E+03  0.00000000000E+00 0.  1.
        -11    1    5    5    0    0  0.11999638378E+02  0.36070988155E+02 -0.12331684068E+03  0.12904321254E+03  0.00000000000E+00 0. -1.
          2    1    6    6  503    0  0.10267579813E+03 -0.88230315203E+02 -0.34911190189E+02  0.13980593422E+03  0.00000000000E+00 0.  1.
         -2    1    6    6    0  503  0.11471260155E+03 -0.76289495578E+02 -0.14099893326E+03  0.19712880883E+03  0.00000000000E+00 0. -1.
<mgrwt>
<rscale>  0 0.53293761E+03</rscale>
<asrwt>0</asrwt>
<pdfrwt beam="1">  1        2 0.47932889E-01 0.53293761E+03</pdfrwt>
<pdfrwt beam="2">  1       -2 0.17956764E+00 0.53293761E+03</pdfrwt>
<totfact> 0.19916255E+01</totfact>
</mgrwt>
</event>
<event>
12    1  0.1338445E-007  0.9458520E+03  0.7818608E-02  0.9370012E-01
          2   -1    0    0  501    0  0.00000000000E+00  0.00000000000E+00  0.14571314501E+04  0.14571314501E+04  0.00000000000E+00 0. -1.
         -2   -1    0    0    0  501 -0.00000000000E+00 -0.00000000000E+00 -0.98597695428E+03  0.98597695428E+03  0.00000000000E+00 0.  1.
         23    2    1    2    0    0 -0.70305971788E+03 -0.62379541145E+03  0.84491584686E+03  0.12672148418E+04  0.92395804620E+02 0.  0.
    5000000    2    1    2    0    0  0.70305971788E+03  0.62379541145E+03 -0.37376135100E+03  0.11758935626E+04  0.59967861464E+03 0.  0.
         23    2    4    4    0    0  0.37859573257E+03  0.26883987960E+03  0.11297993849E+03  0.48636193153E+03  0.90409359861E+02 0.  0.
         23    2    4    4    0    0  0.32446398531E+03  0.35495553185E+03 -0.48674128950E+03  0.68953163110E+03  0.85243650946E+02 0.  0.
          1    1    3    3  502    0 -0.53680032764E+03 -0.45754550484E+03  0.58155795619E+03  0.91417292520E+03  0.00000000000E+00 0. -1.
         -1    1    3    3    0  502 -0.16625939025E+03 -0.16624990661E+03  0.26335789067E+03  0.35304191659E+03  0.00000000000E+00 0.  1.
         11    1    5    5    0    0  0.27275467123E+03  0.18266983854E+03  0.37528441436E+02  0.33041150783E+03  0.00000000000E+00 0. -1.
        -11    1    5    5    0    0  0.10584106134E+03  0.86170041068E+02  0.75451497059E+02  0.15595042370E+03  0.00000000000E+00 0.  1.
          4    1    6    6  503    0  0.21424889399E+03  0.18056251484E+03 -0.24991303785E+03  0.37544898032E+03  0.00000000000E+00 0.  1.
         -4    1    6    6    0  503  0.11021509133E+03  0.17439301701E+03 -0.23682825165E+03  0.31408265078E+03  0.00000000000E+00 0. -1.
<mgrwt>
<rscale>  0 0.94585204E+03</rscale>
<asrwt>0</asrwt>
<pdfrwt beam="1">  1        2 0.22417407E+00 0.94585204E+03</pdfrwt>
<pdfrwt beam="2">  1       -2 0.15168876E+00 0.94585204E+03</pdfrwt>
<totfact> 0.38994176E+00</totfact>
</mgrwt>
</event>
<event>
12    1  0.1338445E-007  0.8018198E+03  0.7818608E-02  0.9557387E-01
          2   -1    0    0  501    0  0.00000000000E+00  0.00000000000E+00  0.42298028843E+04  0.42298028843E+04  0.00000000000E+00 0. -1.
         -2   -1    0    0    0  501 -0.00000000000E+00 -0.00000000000E+00 -0.16358545506E+03  0.16358545506E+03  0.00000000000E+00 0.  1.
         23    2    1    2    0    0  0.13271860021E+03  0.68012219120E+03  0.12541901093E+04  0.14357472959E+04  0.90537536419E+02 0.  0.
    5000000    2    1    2    0    0 -0.13271860021E+03 -0.68012219120E+03  0.28120273199E+04  0.29576410435E+04  0.59996872611E+03 0.  0.
         23    2    4    4    0    0 -0.35517467234E+03 -0.47465625070E+03  0.18979117955E+04  0.19903929653E+04  0.90262775238E+02 0.  0.
         23    2    4    4    0    0  0.22245607213E+03 -0.20546594050E+03  0.91411552438E+03  0.96724807815E+03  0.90877368139E+02 0.  0.
          4    1    3    3  502    0  0.96392533271E+02  0.57108155398E+03  0.11032788321E+04  0.12460537080E+04  0.00000000000E+00 0. -1.
         -4    1    3    3    0  502  0.36326066940E+02  0.10904063722E+03  0.15091127724E+03  0.18969358793E+03  0.00000000000E+00 0.  1.
         11    1    5    5    0    0 -0.50430027990E+02 -0.26752519155E+02  0.21390389245E+03  0.22139051518E+03  0.00000000000E+00 0. -1.
        -11    1    5    5    0    0 -0.30474464435E+03 -0.44790373155E+03  0.16840079031E+04  0.17690024501E+04  0.00000000000E+00 0.  1.
          3    1    6    6  503    0  0.71455486446E+02 -0.25676497382E+02  0.15405993115E+03  0.17175456747E+03  0.00000000000E+00 0. -1.
         -3    1    6    6    0  503  0.15100058568E+03 -0.17978944312E+03  0.76005559323E+03  0.79549351068E+03  0.00000000000E+00 0.  1.
<mgrwt>
<rscale>  0 0.80181981E+03</rscale>
<asrwt>0</asrwt>
<pdfrwt beam="1">  1        2 0.65073882E+00 0.80181981E+03</pdfrwt>
<pdfrwt beam="2">  1       -2 0.25166996E-01 0.80181981E+03</pdfrwt>
<totfact> 0.34258108E+00</totfact>
</mgrwt>
</event>
<event>
12    1  0.1338445E-007  0.6554503E+03  0.7818608E-02  0.9796605E-01
         -2   -1    0    0    0  501 -0.00000000000E+00  0.00000000000E+00  0.75580870670E+03  0.75580870670E+03  0.00000000000E+00 0.  1.
          2   -1    0    0  501    0  0.00000000000E+00 -0.00000000000E+00 -0.17646078086E+04  0.17646078086E+04  0.00000000000E+00 0. -1.
         23    2    1    2    0    0 -0.38962584202E+03 -0.35888725924E+03  0.54944641804E+03  0.76862754910E+03  0.91041646049E+02 0.  0.
    5000000    2    1    2    0    0  0.38962584202E+03  0.35888725924E+03 -0.15582455200E+04  0.17517889662E+04  0.60002259964E+03 0.  0.
         23    2    4    4    0    0  0.13254103785E+03  0.47426491561E+03 -0.89979834060E+03  0.10296638013E+04  0.89867419037E+02 0.  0.
         23    2    4    4    0    0  0.25708480417E+03 -0.11537765636E+03 -0.65844717936E+03  0.72212516495E+03  0.92235924282E+02 0.  0.
          1    1    3    3  502    0 -0.14186313705E+03 -0.16474682615E+03  0.27848857407E+03  0.35330235248E+03  0.00000000000E+00 0. -1.
         -1    1    3    3    0  502 -0.24776270497E+03 -0.19414043309E+03  0.27095784397E+03  0.41532519662E+03  0.00000000000E+00 0.  1.
         11    1    5    5    0    0  0.21885966055E+02  0.13219719997E+03 -0.32694531954E+03  0.35333884185E+03  0.00000000000E+00 0. -1.
        -11    1    5    5    0    0  0.11065507180E+03  0.34206771564E+03 -0.57285302106E+03  0.67632495942E+03  0.00000000000E+00 0.  1.
          4    1    6    6  503    0  0.17896844239E+03 -0.57465567100E+02 -0.33217504509E+03  0.38167034906E+03  0.00000000000E+00 0.  1.
         -4    1    6    6    0  503  0.78116361777E+02 -0.57912089263E+02 -0.32627213428E+03  0.34045481589E+03  0.00000000000E+00 0. -1.
<mgrwt>
<rscale>  0 0.65545031E+03</rscale>
<asrwt>0</asrwt>
<pdfrwt beam="1">  1        2 0.27147812E+00 0.65545031E+03</pdfrwt>
<pdfrwt beam="2">  1       -2 0.11627826E+00 0.65545031E+03</pdfrwt>
<totfact> 0.54258778E+00</totfact>
</mgrwt>
</event>
<event>
12    1  0.1338445E-007  0.7493848E+03  0.7818608E-02  0.9636316E-01
         -1   -1    0    0    0  501 -0.00000000000E+00  0.00000000000E+00  0.98439842826E+03  0.98439842826E+03  0.00000000000E+00 0.  1.
          1   -1    0    0  501    0  0.00000000000E+00 -0.00000000000E+00 -0.62102352724E+03  0.62102352724E+03  0.00000000000E+00 0. -1.
         23    2    1    2    0    0 -0.56162577084E+03 -0.32159630404E+03  0.30271230849E+03  0.72069021781E+03  0.94403173088E+02 0.  0.
    5000000    2    1    2    0    0  0.56162577084E+03  0.32159630404E+03  0.60662592533E+02  0.88473173770E+03  0.60018547827E+03 0.  0.
         23    2    4    4    0    0  0.63813515413E+03  0.34106872444E+03  0.13427646682E+03  0.74153931144E+03  0.91137429944E+02 0.  0.
         23    2    4    4    0    0 -0.76509383295E+02 -0.19472420396E+02 -0.73613874287E+02  0.14319242626E+03  0.94086170949E+02 0.  0.
          1    1    3    3  502    0 -0.14188240600E+03 -0.12639227854E+03  0.10733549725E+03  0.21823504342E+03  0.00000000000E+00 0. -1.
         -1    1    3    3    0  502 -0.41974336484E+03 -0.19520402550E+03  0.19537681124E+03  0.50245517439E+03  0.00000000000E+00 0.  1.
         11    1    5    5    0    0  0.10486110483E+03  0.75279556538E+02 -0.66663041289E+01  0.12925673116E+03  0.00000000000E+00 0.  1.
        -11    1    5    5    0    0  0.53327404930E+03  0.26578916790E+03  0.14094277095E+03  0.61228258028E+03  0.00000000000E+00 0. -1.
          3    1    6    6  503    0 -0.15899998474E+02 -0.50416940366E+02 -0.44789815280E+02  0.69287844389E+02  0.00000000000E+00 0. -1.
         -3    1    6    6    0  503 -0.60609384821E+02  0.30944519970E+02 -0.28824059007E+02  0.73904581875E+02  0.00000000000E+00 0.  1.
<mgrwt>
<rscale>  0 0.74938483E+03</rscale>
<asrwt>0</asrwt>
<pdfrwt beam="1">  1        1 0.95542081E-01 0.74938483E+03</pdfrwt>
<pdfrwt beam="2">  1       -1 0.15144591E+00 0.74938483E+03</pdfrwt>
<totfact> 0.11403798E+01</totfact>
</mgrwt>
</event>
<event>
12    1  0.1338445E-007  0.7465584E+03  0.7818608E-02  0.9640765E-01
          2   -1    0    0  501    0  0.00000000000E+00  0.00000000000E+00  0.86746143493E+03  0.86746143493E+03  0.00000000000E+00 0. -1.
         -2   -1    0    0    0  501 -0.00000000000E+00 -0.00000000000E+00 -0.81280238739E+03  0.81280238739E+03  0.00000000000E+00 0.  1.
         23    2    1    2    0    0 -0.32372542801E+03 -0.64873774419E+03  0.10306603080E+03  0.73789783141E+03  0.90618924111E+02 0.  0.
    5000000    2    1    2    0    0  0.32372542801E+03  0.64873774419E+03 -0.48406983257E+02  0.94236599091E+03  0.60004300789E+03 0.  0.
         23    2    4    4    0    0  0.12797610049E+03  0.46137358277E+03  0.23496843605E+03  0.54101384229E+03  0.90787369357E+02 0.  0.
         23    2    4    4    0    0  0.19574932753E+03  0.18736416143E+03 -0.28337541931E+03  0.40135214862E+03  0.85783394200E+02 0.  0.
          2    1    3    3  502    0 -0.29031125649E+03 -0.52112520320E+03  0.62040190683E+02  0.59975085520E+03  0.00000000000E+00 0. -1.
         -2    1    3    3    0  502 -0.33414171524E+02 -0.12761254099E+03  0.41025840120E+02  0.13814697621E+03  0.00000000000E+00 0.  1.
         11    1    5    5    0    0  0.36220173676E+02  0.26697258360E+03  0.16001313825E+03  0.31335357951E+03  0.00000000000E+00 0.  1.
        -11    1    5    5    0    0  0.91755926809E+02  0.19440099917E+03  0.74955297800E+02  0.22766026278E+03  0.00000000000E+00 0. -1.
          2    1    6    6  503    0  0.14027026059E+03  0.85453533510E+02 -0.19820025467E+03  0.25741288496E+03  0.00000000000E+00 0. -1.
         -2    1    6    6    0  503  0.55479066938E+02  0.10191062792E+03 -0.85175164642E+02  0.14393926366E+03  0.00000000000E+00 0.  1.
<mgrwt>
<rscale>  0 0.74655839E+03</rscale>
<asrwt>0</asrwt>
<pdfrwt beam="1">  1        2 0.13345561E+00 0.74655839E+03</pdfrwt>
<pdfrwt beam="2">  1       -2 0.12504652E+00 0.74655839E+03</pdfrwt>
<totfact> 0.15020385E+01</totfact>
</mgrwt>
</event>
<event>
12    1  0.1338445E-007  0.8180521E+03  0.7818608E-02  0.9534249E-01
         -1   -1    0    0    0  501 -0.00000000000E+00  0.00000000000E+00  0.18527010543E+04  0.18527010543E+04  0.00000000000E+00 0.  1.
          1   -1    0    0  501    0  0.00000000000E+00 -0.00000000000E+00 -0.50532675100E+03  0.50532675100E+03  0.00000000000E+00 0. -1.
         23    2    1    2    0    0  0.57661882192E+03 -0.57087274574E+03  0.22162448039E+03  0.84613220323E+03  0.91854980389E+02 0.  0.
    5000000    2    1    2    0    0 -0.57661882192E+03  0.57087274574E+03  0.11257498229E+04  0.15118956021E+04  0.60010889858E+03 0.  0.
         23    2    4    4    0    0 -0.31588887465E+03  0.27780079965E+03  0.10022067840E+04  0.10907537295E+04  0.91466907034E+02 0.  0.
         23    2    4    4    0    0 -0.26072994727E+03  0.29307194609E+03  0.12354303892E+03  0.42114187258E+03  0.90699081544E+02 0.  0.
          1    1    3    3  502    0  0.35469112637E+03 -0.31648385175E+03  0.16877133592E+03  0.50443194523E+03  0.00000000000E+00 0. -1.
         -1    1    3    3    0  502  0.22192769555E+03 -0.25438889399E+03  0.52853144471E+02  0.34170025800E+03  0.00000000000E+00 0.  1.
         13    1    5    5    0    0 -0.78116354054E+02  0.25353541569E+02  0.15741205996E+03  0.17754865097E+03  0.00000000000E+00 0.  1.
        -13    1    5    5    0    0 -0.23777252059E+03  0.25244725808E+03  0.84479472404E+03  0.91320507851E+03  0.00000000000E+00 0. -1.
          1    1    6    6  503    0 -0.22118817911E+03  0.26768212471E+03  0.13535037372E+03  0.37268975587E+03  0.00000000000E+00 0. -1.
         -1    1    6    6    0  503 -0.39541768161E+02  0.25389821376E+02 -0.11807334800E+02  0.48452116712E+02  0.00000000000E+00 0.  1.
<mgrwt>
<rscale>  0 0.81805209E+03</rscale>
<asrwt>0</asrwt>
<pdfrwt beam="1">  1        1 0.77742578E-01 0.81805209E+03</pdfrwt>
<pdfrwt beam="2">  1       -1 0.28503093E+00 0.81805209E+03</pdfrwt>
<totfact> 0.18729178E+00</totfact>
</mgrwt>
</event>
<event>
12    1  0.1338445E-007  0.4073384E+03  0.7818608E-02  0.1041268E+00
         -1   -1    0    0    0  501 -0.00000000000E+00  0.00000000000E+00  0.53840801445E+03  0.53840801445E+03  0.00000000000E+00 0.  1.
          1   -1    0    0  501    0  0.00000000000E+00 -0.00000000000E+00 -0.62286819783E+03  0.62286819783E+03  0.00000000000E+00 0. -1.
         23    2    1    2    0    0 -0.26845234625E+03  0.21774133384E+02 -0.34962397006E+03  0.45207828256E+03  0.97964677454E+02 0.  0.
    5000000    2    1    2    0    0  0.26845234625E+03 -0.21774133384E+02  0.26516378669E+03  0.70919792972E+03  0.60009090532E+03 0.  0.
         23    2    4    4    0    0 -0.48182627524E+02  0.14826192337E+03  0.28766586534E+03  0.33830835012E+03  0.86010035244E+02 0.  0.
         23    2    4    4    0    0  0.31663497378E+03 -0.17003605675E+03 -0.22502078657E+02  0.37088957959E+03  0.88784962072E+02 0.  0.
          1    1    3    3  502    0 -0.23589061688E+03  0.16495154579E+02 -0.23727363470E+03  0.33498544891E+03  0.00000000000E+00 0. -1.
         -1    1    3    3    0  502 -0.32561729371E+02  0.52789788056E+01 -0.11235033536E+03  0.11709283365E+03  0.00000000000E+00 0.  1.
         13    1    5    5    0    0 -0.69486509300E+02  0.85057801007E+02  0.15700497275E+03  0.19160836609E+03  0.00000000000E+00 0.  1.
        -13    1    5    5    0    0  0.21303881775E+02  0.63204122363E+02  0.13066089260E+03  0.14669998404E+03  0.00000000000E+00 0. -1.
          1    1    6    6  503    0  0.21532928261E+03 -0.70259014439E+02  0.25087400943E+01  0.22651561279E+03  0.00000000000E+00 0. -1.
         -1    1    6    6    0  503  0.10130569116E+03 -0.99777042316E+02 -0.25010818751E+02  0.14437396680E+03  0.00000000000E+00 0.  1.
<mgrwt>
<rscale>  0 0.40733844E+03</rscale>
<asrwt>0</asrwt>
<pdfrwt beam="1">  1        1 0.95825876E-01 0.40733844E+03</pdfrwt>
<pdfrwt beam="2">  1       -1 0.82832002E-01 0.40733844E+03</pdfrwt>
<totfact> 0.49988637E+01</totfact>
</mgrwt>
</event>
<event>
12    1  0.1338445E-007  0.7008028E+03  0.7818608E-02  0.9715860E-01
          1   -1    0    0  501    0  0.00000000000E+00  0.00000000000E+00  0.20112457833E+04  0.20112457833E+04  0.00000000000E+00 0. -1.
         -1   -1    0    0    0  501 -0.00000000000E+00 -0.00000000000E+00 -0.29224472557E+03  0.29224472557E+03  0.00000000000E+00 0.  1.
         23    2    1    2    0    0  0.28781805335E+03  0.57806154210E+03  0.72051662536E+03  0.97151216523E+03  0.87734266313E+02 0.  0.
    5000000    2    1    2    0    0 -0.28781805335E+03 -0.57806154210E+03  0.99848443240E+03  0.13319783437E+04  0.60016728332E+03 0.  0.
         23    2    4    4    0    0 -0.31020462997E+03 -0.21034591847E+03  0.17114998447E+03  0.42248254912E+03  0.93417713840E+02 0.  0.
         23    2    4    4    0    0  0.22386576614E+02 -0.36771562364E+03  0.82733444792E+03  0.90949579454E+03  0.83572560646E+02 0.  0.
          2    1    3    3  502    0  0.97464288848E+02  0.24457191284E+03  0.34944696044E+03  0.43752472652E+03  0.00000000000E+00 0. -1.
         -2    1    3    3    0  502  0.19035376451E+03  0.33348962926E+03  0.37106966491E+03  0.53398743872E+03  0.00000000000E+00 0.  1.
         11    1    5    5    0    0 -0.19679463237E+03 -0.78102363656E+02  0.10248272596E+03  0.23522503195E+03  0.00000000000E+00 0. -1.
        -11    1    5    5    0    0 -0.11340999760E+03 -0.13224355481E+03  0.68667258515E+02  0.18725751717E+03  0.00000000000E+00 0.  1.
          4    1    6    6  503    0  0.11934594678E+02 -0.20194800607E+03  0.35219133411E+03  0.40615781112E+03  0.00000000000E+00 0.  1.
         -4    1    6    6    0  503  0.10451981936E+02 -0.16576761757E+03  0.47514311381E+03  0.50333798343E+03  0.00000000000E+00 0. -1.
<mgrwt>
<rscale>  0 0.70080280E+03</rscale>
<asrwt>0</asrwt>
<pdfrwt beam="1">  1        1 0.30942242E+00 0.70080280E+03</pdfrwt>
<pdfrwt beam="2">  1       -1 0.44960728E-01 0.70080280E+03</pdfrwt>
<totfact> 0.15097285E+01</totfact>
</mgrwt>
</event>
<event>
12    1  0.1382411E-007  0.7412801E+03  0.7818608E-02  0.9649131E-01
         -2   -1    0    0    0  501 -0.00000000000E+00  0.00000000000E+00  0.39508885605E+03  0.39508885605E+03  0.00000000000E+00 0.  1.
          2   -1    0    0  501    0  0.00000000000E+00 -0.00000000000E+00 -0.20856202247E+04  0.20856202247E+04  0.00000000000E+00 0. -1.
         23    2    1    2    0    0 -0.46925232689E+03 -0.41527851947E+03 -0.61205436792E+02  0.63480566046E+03  0.81105647358E+02 0.  0.
    5000000    2    1    2    0    0  0.46925232689E+03  0.41527851947E+03 -0.16293259319E+04  0.18459034203E+04  0.60000204149E+03 0.  0.
         23    2    4    4    0    0  0.59202820750E+03  0.30725140911E+03 -0.13700184487E+04  0.15264990476E+04  0.91367202056E+02 0.  0.
         23    2    4    4    0    0 -0.12277588061E+03  0.10802711037E+03 -0.25930748318E+03  0.31940437273E+03  0.89638212011E+02 0.  0.
          2    1    3    3  502    0 -0.32393397555E+03 -0.23506167707E+03 -0.44406033101E+02  0.40268984135E+03  0.00000000000E+00 0. -1.
         -2    1    3    3    0  502 -0.14531835134E+03 -0.18021684240E+03 -0.16799403691E+02  0.23211581912E+03  0.00000000000E+00 0.  1.
         11    1    5    5    0    0  0.51444640152E+03  0.29863135080E+03 -0.11950793370E+04  0.13349346072E+04  0.00000000000E+00 0. -1.
        -11    1    5    5    0    0  0.77581805979E+02  0.86200583031E+01 -0.17493911165E+03  0.19156444035E+03  0.00000000000E+00 0.  1.
          3    1    6    6  503    0 -0.88555376597E+02  0.11275569149E+03 -0.16296946610E+03  0.21705977879E+03  0.00000000000E+00 0. -1.
         -3    1    6    6    0  503 -0.34220504013E+02 -0.47285811202E+01 -0.96338017075E+02  0.10234459394E+03  0.00000000000E+00 0.  1.
<mgrwt>
<rscale>  0 0.74128009E+03</rscale>
<asrwt>0</asrwt>
<pdfrwt beam="1">  1        2 0.32086465E+00 0.74128009E+03</pdfrwt>
<pdfrwt beam="2">  1       -2 0.60782900E-01 0.74128009E+03</pdfrwt>
<totfact> 0.15654725E+01</totfact>
</mgrwt>
</event>
<event>
12    1  0.1338445E-007  0.1566337E+04  0.7818608E-02  0.8841500E-01
         -2   -1    0    0    0  501 -0.00000000000E+00  0.00000000000E+00  0.84733113136E+03  0.84733113136E+03  0.00000000000E+00 0. -1.
          2   -1    0    0  501    0  0.00000000000E+00 -0.00000000000E+00 -0.29537021522E+04  0.29537021522E+04  0.00000000000E+00 0.  1.
         23    2    1    2    0    0 -0.15122105175E+04 -0.17480259310E+03 -0.11039744658E+04  0.18821651759E+04  0.80308979853E+02 0.  0.
    5000000    2    1    2    0    0  0.15122105175E+04  0.17480259310E+03 -0.10023965550E+04  0.19188681077E+04  0.59993280070E+03 0.  0.
         23    2    4    4    0    0  0.15256716982E+03 -0.12229737036E+03 -0.28642320704E+02  0.21795346509E+03  0.91923567721E+02 0.  0.
         23    2    4    4    0    0  0.13596433477E+04  0.29709996346E+03 -0.97375423431E+03  0.17009146426E+04  0.89525925673E+02 0.  0.
          4    1    3    3  502    0 -0.69739009091E+03 -0.90176666504E+02 -0.46201262445E+03  0.84139196290E+03  0.00000000000E+00 0. -1.
         -4    1    3    3    0  502 -0.81482042659E+03 -0.84625926597E+02 -0.64196184136E+03  0.10407732130E+04  0.00000000000E+00 0.  1.
         13    1    5    5    0    0  0.10650915417E+03 -0.27042974938E+02 -0.20959713320E+02  0.11186970992E+03  0.00000000000E+00 0. -1.
        -13    1    5    5    0    0  0.46058015652E+02 -0.95254395423E+02 -0.76826073836E+01  0.10608375516E+03  0.00000000000E+00 0.  1.
          1    1    6    6  503    0  0.60036015301E+03  0.85922591068E+02 -0.41888387052E+03  0.73707442091E+03  0.00000000000E+00 0. -1.
         -1    1    6    6    0  503  0.75928319467E+03  0.21117737239E+03 -0.55487036379E+03  0.96384022168E+03  0.00000000000E+00 0.  1.
<mgrwt>
<rscale>  0 0.15663370E+04</rscale>
<asrwt>0</asrwt>
<pdfrwt beam="1">  1        2 0.45441572E+00 0.15663370E+04</pdfrwt>
<pdfrwt beam="2">  1       -2 0.13035863E+00 0.15663370E+04</pdfrwt>
<totfact> 0.75750880E-01</totfact>
</mgrwt>
</event>
<event>
12    1  0.1338445E-007  0.1041214E+04  0.7818608E-02  0.9264462E-01
          2   -1    0    0  501    0  0.00000000000E+00  0.00000000000E+00  0.21401576637E+04  0.21401576637E+04  0.00000000000E+00 0. -1.
         -2   -1    0    0    0  501 -0.00000000000E+00 -0.00000000000E+00 -0.93115349535E+03  0.93115349535E+03  0.00000000000E+00 0.  1.
         23    2    1    2    0    0  0.55042394120E+03 -0.84292544587E+03  0.15502404303E+04  0.18507008853E+04  0.91425120691E+02 0.  0.
    5000000    2    1    2    0    0 -0.55042394120E+03  0.84292544587E+03 -0.34123626193E+03  0.12206102738E+04  0.59996452537E+03 0.  0.
         23    2    4    4    0    0 -0.45090614500E+03  0.84274992646E+03 -0.43617090215E+03  0.10548329189E+04  0.94253067653E+02 0.  0.
         23    2    4    4    0    0 -0.99517796192E+02  0.17551940725E+00  0.94934640223E+02  0.16577735489E+03  0.92551190781E+02 0.  0.
          3    1    3    3  502    0  0.46238430594E+03 -0.70801412495E+03  0.12362769356E+04  0.14978197184E+04  0.00000000000E+00 0. -1.
         -3    1    3    3    0  502  0.88039635252E+02 -0.13491132092E+03  0.31396349476E+03  0.35288116686E+03  0.00000000000E+00 0.  1.
         13    1    5    5    0    0 -0.33505747386E+03  0.56328145257E+03 -0.26261936289E+03  0.70605837957E+03  0.00000000000E+00 0. -1.
        -13    1    5    5    0    0 -0.11584867114E+03  0.27946847389E+03 -0.17355153926E+03  0.34877453933E+03  0.00000000000E+00 0.  1.
          2    1    6    6  503    0 -0.10863899795E+03  0.70014299595E+00  0.49417716598E+02  0.11935255669E+03  0.00000000000E+00 0. -1.
         -2    1    6    6    0  503  0.91212017583E+01 -0.52462358870E+00  0.45516923625E+02  0.46424798198E+02  0.00000000000E+00 0.  1.
<mgrwt>
<rscale>  0 0.10412144E+04</rscale>
<asrwt>0</asrwt>
<pdfrwt beam="1">  1        2 0.32925502E+00 0.10412144E+04</pdfrwt>
<pdfrwt beam="2">  1       -2 0.14325438E+00 0.10412144E+04</pdfrwt>
<totfact> 0.18763142E+00</totfact>
</mgrwt>
</event>
<event>
12    1  0.1338445E-007  0.7299613E+03  0.7818608E-02  0.9667323E-01
         -2   -1    0    0    0  501 -0.00000000000E+00  0.00000000000E+00  0.13777526071E+04  0.13777526071E+04  0.00000000000E+00 0.  1.
          2   -1    0    0  501    0  0.00000000000E+00 -0.00000000000E+00 -0.11005332243E+04  0.11005332243E+04  0.00000000000E+00 0. -1.
         23    2    1    2    0    0 -0.55577623974E+01 -0.72280802797E+03  0.10390192103E+04  0.12686955761E+04  0.86863176140E+02 0.  0.
    5000000    2    1    2    0    0  0.55577623974E+01  0.72280802797E+03 -0.76179982752E+03  0.12095902554E+04  0.60023934784E+03 0.  0.
         23    2    4    4    0    0 -0.20685953878E+02  0.32544557051E+03  0.76754689579E+01  0.33854656257E+03  0.90620826273E+02 0.  0.
         23    2    4    4    0    0  0.26243716275E+02  0.39736245746E+03 -0.76947529647E+03  0.87104369281E+03  0.89661740209E+02 0.  0.
          4    1    3    3  502    0  0.26961198039E+02 -0.35801162241E+03  0.56957538424E+03  0.67328697174E+03  0.00000000000E+00 0. -1.
         -4    1    3    3    0  502 -0.32518960436E+02 -0.36479640556E+03  0.46944382607E+03  0.59540860435E+03  0.00000000000E+00 0.  1.
         13    1    5    5    0    0  0.24855087126E+01  0.27294958042E+02  0.27518998209E+02  0.38839255277E+02  0.00000000000E+00 0. -1.
        -13    1    5    5    0    0 -0.23171462590E+02  0.29815061247E+03 -0.19843529251E+02  0.29970730730E+03  0.00000000000E+00 0.  1.
          2    1    6    6  503    0  0.24644751299E+02  0.22623153228E+02 -0.62734574163E+02  0.71097099968E+02  0.00000000000E+00 0. -1.
         -2    1    6    6    0  503  0.15989649766E+01  0.37473930423E+03 -0.70674072231E+03  0.79994659284E+03  0.00000000000E+00 0.  1.
<mgrwt>
<rscale>  0 0.72996131E+03</rscale>
<asrwt>0</asrwt>
<pdfrwt beam="1">  1        2 0.16931280E+00 0.72996131E+03</pdfrwt>
<pdfrwt beam="2">  1       -2 0.21196194E+00 0.72996131E+03</pdfrwt>
<totfact> 0.24962035E+00</totfact>
</mgrwt>
</event>
<event>
12    1  0.1338445E-007  0.1915463E+04  0.7818608E-02  0.8647197E-01
          2   -1    0    0  501    0  0.00000000000E+00  0.00000000000E+00  0.20095396752E+04  0.20095396752E+04  0.00000000000E+00 0.  1.
         -2   -1    0    0    0  501 -0.00000000000E+00 -0.00000000000E+00 -0.19673785626E+04  0.19673785626E+04  0.00000000000E+00 0. -1.
         23    2    1    2    0    0  0.13839288054E+04 -0.12891311992E+04  0.46121114638E+03  0.19490124450E+04  0.93891438715E+02 0.  0.
    5000000    2    1    2    0    0 -0.13839288054E+04  0.12891311992E+04 -0.41905003377E+03  0.20279057927E+04  0.59973392967E+03 0.  0.
         23    2    4    4    0    0 -0.21192404578E+03  0.43926359586E+03  0.58208155622E+02  0.50035134817E+03  0.95388544427E+02 0.  0.
         23    2    4    4    0    0 -0.11720047596E+04  0.84986760332E+03 -0.47725818939E+03  0.15275544446E+04  0.98879229910E+02 0.  0.
          2    1    3    3  502    0  0.11797549818E+04 -0.10537859035E+04  0.37409376897E+03  0.16254946002E+04  0.00000000000E+00 0. -1.
         -2    1    3    3    0  502  0.20417382360E+03 -0.23534529573E+03  0.87117377410E+02  0.32351784481E+03  0.00000000000E+00 0.  1.
         13    1    5    5    0    0 -0.21327572782E+03  0.42885457394E+03  0.41677778897E+02  0.48077002706E+03  0.00000000000E+00 0. -1.
        -13    1    5    5    0    0  0.13516820415E+01  0.10409021918E+02  0.16530376726E+02  0.19581321108E+02  0.00000000000E+00 0.  1.
          1    1    6    6  503    0 -0.96886072861E+03  0.68794882123E+03 -0.35299429420E+03  0.12395844722E+04  0.00000000000E+00 0. -1.
         -1    1    6    6    0  503 -0.20314403098E+03  0.16191878209E+03 -0.12426389519E+03  0.28796997233E+03  0.00000000000E+00 0.  1.
<mgrwt>
<rscale>  0 0.19154631E+04</rscale>
<asrwt>0</asrwt>
<pdfrwt beam="1">  1        2 0.30915995E+00 0.19154631E+04</pdfrwt>
<pdfrwt beam="2">  1       -2 0.30267362E+00 0.19154631E+04</pdfrwt>
<totfact> 0.18133084E-01</totfact>
</mgrwt>
</event>
<event>
12    1  0.1338445E-007  0.4645563E+03  0.7818608E-02  0.1023468E+00
          2   -1    0    0  501    0  0.00000000000E+00  0.00000000000E+00  0.11611991393E+04  0.11611991393E+04  0.00000000000E+00 0. -1.
         -2   -1    0    0    0  501 -0.00000000000E+00 -0.00000000000E+00 -0.26114156587E+03  0.26114156587E+03  0.00000000000E+00 0.  1.
         23    2    1    2    0    0 -0.19423139278E+03 -0.22098705239E+03  0.10407202200E+02  0.30967413027E+03  0.96065841159E+02 0.  0.
    5000000    2    1    2    0    0  0.19423139278E+03  0.22098705239E+03  0.88965037119E+03  0.11126665749E+04  0.59999001041E+03 0.  0.
         23    2    4    4    0    0  0.37291241740E+03  0.49846714074E+02  0.65060645078E+03  0.75706060713E+03  0.91124327802E+02 0.  0.
         23    2    4    4    0    0 -0.17868102462E+03  0.17114033832E+03  0.23904392041E+03  0.35560596774E+03  0.89987134889E+02 0.  0.
          1    1    3    3  502    0 -0.10257040252E+03 -0.10213485952E+03 -0.41961918804E+02  0.15070839271E+03  0.00000000000E+00 0. -1.
         -1    1    3    3    0  502 -0.91660990256E+02 -0.11885219288E+03  0.52369121004E+02  0.15896573757E+03  0.00000000000E+00 0.  1.
         11    1    5    5    0    0  0.16153987349E+03 -0.22339833830E+02  0.29673866141E+03  0.33859715309E+03  0.00000000000E+00 0.  1.
        -11    1    5    5    0    0  0.21137254390E+03  0.72186547904E+02  0.35386778937E+03  0.41846345404E+03  0.00000000000E+00 0. -1.
          1    1    6    6  503    0 -0.23146499930E+02  0.15879260301E+02  0.78721030578E+02  0.83575786098E+02  0.00000000000E+00 0. -1.
         -1    1    6    6    0  503 -0.15553452469E+03  0.15526107802E+03  0.16032288983E+03  0.27203018164E+03  0.00000000000E+00 0.  1.
<mgrwt>
<rscale>  0 0.46455627E+03</rscale>
<asrwt>0</asrwt>
<pdfrwt beam="1">  1        2 0.17864602E+00 0.46455627E+03</pdfrwt>
<pdfrwt beam="2">  1       -2 0.40175626E-01 0.46455627E+03</pdfrwt>
<totfact> 0.12208344E+02</totfact>
</mgrwt>
</event>
<event>
12    1  0.1338445E-007  0.5848930E+03  0.7818608E-02  0.9937254E-01
         -2   -1    0    0    0  501 -0.00000000000E+00  0.00000000000E+00  0.19698835971E+03  0.19698835971E+03  0.00000000000E+00 0.  1.
          2   -1    0    0  501    0  0.00000000000E+00 -0.00000000000E+00 -0.25287146135E+04  0.25287146135E+04  0.00000000000E+00 0. -1.
         23    2    1    2    0    0 -0.49150570161E+03 -0.29094513890E+03 -0.84469325126E+03  0.10235132890E+04  0.88576720353E+02 0.  0.
    5000000    2    1    2    0    0  0.49150570161E+03  0.29094513890E+03 -0.14870330025E+04  0.17021896842E+04  0.59996303382E+03 0.  0.
         23    2    4    4    0    0  0.26854070368E+03  0.17572389687E+03 -0.13739941868E+04  0.14137744995E+04  0.88911824880E+02 0.  0.
         23    2    4    4    0    0  0.22296499793E+03  0.11522124203E+03 -0.11303881568E+03  0.28841518470E+03  0.86117477877E+02 0.  0.
          2    1    3    3  502    0 -0.20538026127E+03 -0.16976115121E+03 -0.36317211153E+03  0.45043743491E+03  0.00000000000E+00 0.  1.
         -2    1    3    3    0  502 -0.28612544035E+03 -0.12118398769E+03 -0.48152113973E+03  0.57307585405E+03  0.00000000000E+00 0. -1.
         13    1    5    5    0    0  0.10999155981E+03  0.11934471523E+03 -0.58937752060E+03  0.61131592984E+03  0.00000000000E+00 0.  1.
        -13    1    5    5    0    0  0.15854914387E+03  0.56379181647E+02 -0.78461666622E+03  0.80245856968E+03  0.00000000000E+00 0. -1.
          3    1    6    6  503    0  0.10018205874E+03  0.10654586536E+02 -0.21653751508E+02  0.10304780475E+03  0.00000000000E+00 0. -1.
         -3    1    6    6    0  503  0.12278293919E+03  0.10456665549E+03 -0.91385064169E+02  0.18536737995E+03  0.00000000000E+00 0.  1.
<mgrwt>
<rscale>  0 0.58489300E+03</rscale>
<asrwt>0</asrwt>
<pdfrwt beam="1">  1        2 0.38903297E+00 0.58489300E+03</pdfrwt>
<pdfrwt beam="2">  1       -2 0.30305905E-01 0.58489300E+03</pdfrwt>
<totfact> 0.36099166E+01</totfact>
</mgrwt>
</event>
<event>
12    1  0.1338445E-007  0.1240030E+04  0.7818608E-02  0.9078522E-01
          2   -1    0    0  501    0  0.00000000000E+00  0.00000000000E+00  0.19202566113E+04  0.19202566113E+04  0.00000000000E+00 0.  1.
         -2   -1    0    0    0  501 -0.00000000000E+00 -0.00000000000E+00 -0.82504167983E+03  0.82504167983E+03  0.00000000000E+00 0. -1.
         23    2    1    2    0    0 -0.72901855765E+03  0.92696380126E+03  0.38698448917E+03  0.12445270233E+04  0.91436155725E+02 0.  0.
    5000000    2    1    2    0    0  0.72901855765E+03 -0.92696380126E+03  0.70823044232E+03  0.15007712679E+04  0.59999507732E+03 0.  0.
         23    2    4    4    0    0  0.53083953167E+03 -0.23897298827E+03  0.42009669110E+03  0.72368243798E+03  0.91303579681E+02 0.  0.
         23    2    4    4    0    0  0.19817902599E+03 -0.68799081299E+03  0.28813375122E+03  0.77708882990E+03  0.90772825569E+02 0.  0.
          1    1    3    3  502    0 -0.54474776484E+03  0.63883551614E+03  0.24877157589E+03  0.87564161673E+03  0.00000000000E+00 0. -1.
         -1    1    3    3    0  502 -0.18427079282E+03  0.28812828512E+03  0.13821291328E+03  0.36888540655E+03  0.00000000000E+00 0.  1.
         13    1    5    5    0    0  0.43622873225E+03 -0.19429807054E+03  0.38472226815E+03  0.61323606439E+03  0.00000000000E+00 0.  1.
        -13    1    5    5    0    0  0.94610799421E+02 -0.44674917728E+02  0.35374422956E+02  0.11044637360E+03  0.00000000000E+00 0. -1.
          3    1    6    6  503    0  0.97625043559E+02 -0.29877126395E+03  0.79684946882E+02  0.32426009321E+03  0.00000000000E+00 0. -1.
         -3    1    6    6    0  503  0.10055398243E+03 -0.38921954904E+03  0.20844880434E+03  0.45282873669E+03  0.00000000000E+00 0.  1.
<mgrwt>
<rscale>  0 0.12400302E+04</rscale>
<asrwt>0</asrwt>
<pdfrwt beam="1">  1        2 0.29542409E+00 0.12400302E+04</pdfrwt>
<pdfrwt beam="2">  1       -2 0.12692949E+00 0.12400302E+04</pdfrwt>
<totfact> 0.33149860E+00</totfact>
</mgrwt>
</event>
<event>
12    1  0.1338445E-007  0.5743455E+03  0.7818608E-02  0.9960109E-01
          2   -1    0    0  501    0  0.00000000000E+00  0.00000000000E+00  0.10292471145E+04  0.10292471145E+04  0.00000000000E+00 0. -1.
         -2   -1    0    0    0  501 -0.00000000000E+00 -0.00000000000E+00 -0.42104859976E+03  0.42104859976E+03  0.00000000000E+00 0.  1.
         23    2    1    2    0    0 -0.25160009755E+03 -0.33037801114E+03  0.57940487648E+03  0.71999825750E+03  0.10116936579E+03 0.  0.
    5000000    2    1    2    0    0  0.25160009755E+03  0.33037801114E+03  0.28793638300E+02  0.73029745682E+03  0.60004421711E+03 0.  0.
         23    2    4    4    0    0 -0.16923120362E+03  0.20719272963E+03  0.15760620295E+02  0.28279748107E+03  0.90321595728E+02 0.  0.
         23    2    4    4    0    0  0.42083130118E+03  0.12318528151E+03  0.13033018005E+02  0.44749997575E+03  0.88389881247E+02 0.  0.
          1    1    3    3  502    0 -0.18019160142E+03 -0.15392821254E+03  0.32826721086E+03  0.40487315244E+03  0.00000000000E+00 0. -1.
         -1    1    3    3    0  502 -0.71408496134E+02 -0.17644979859E+03  0.25113766563E+03  0.31512510506E+03  0.00000000000E+00 0.  1.
         11    1    5    5    0    0 -0.77454555402E+02  0.30488221573E+02  0.51632227268E+01  0.83399032825E+02  0.00000000000E+00 0. -1.
        -11    1    5    5    0    0 -0.91776648221E+02  0.17670450806E+03  0.10597397568E+02  0.19939844824E+03  0.00000000000E+00 0.  1.
          1    1    6    6  503    0  0.75400096506E+02  0.13739532780E+02 -0.30605857823E+02  0.82526770489E+02  0.00000000000E+00 0. -1.
         -1    1    6    6    0  503  0.34543120467E+03  0.10944574873E+03  0.43638875829E+02  0.36497320526E+03  0.00000000000E+00 0.  1.
<mgrwt>
<rscale>  0 0.57434549E+03</rscale>
<asrwt>0</asrwt>
<pdfrwt beam="1">  1        2 0.15834571E+00 0.57434549E+03</pdfrwt>
<pdfrwt beam="2">  1       -2 0.64776708E-01 0.57434549E+03</pdfrwt>
<totfact> 0.54834184E+01</totfact>
</mgrwt>
</event>
<event>
12    1  0.1563838E-007  0.8297472E+03  0.7818608E-02  0.9517930E-01
          2   -1    0    0  501    0  0.00000000000E+00  0.00000000000E+00  0.23101163022E+04  0.23101163022E+04  0.00000000000E+00 0. -1.
         -2   -1    0    0    0  501 -0.00000000000E+00 -0.00000000000E+00 -0.37463583540E+03  0.37463583540E+03  0.00000000000E+00 0.  1.
         23    2    1    2    0    0  0.43652012925E+03 -0.64875936926E+03  0.46439428042E+03  0.91401261722E+03  0.91205670417E+02 0.  0.
    5000000    2    1    2    0    0 -0.43652012925E+03  0.64875936926E+03  0.14710861864E+04  0.17707395204E+04  0.59998778222E+03 0.  0.
         23    2    4    4    0    0 -0.32003690592E+03  0.17328352185E+03  0.10616213670E+04  0.11259395955E+04  0.90825358047E+02 0.  0.
         23    2    4    4    0    0 -0.11648322333E+03  0.47547584740E+03  0.40946481935E+03  0.64479992488E+03  0.91977617180E+02 0.  0.
          1    1    3    3  502    0  0.13145967100E+03 -0.26915888637E+03  0.19581834292E+03  0.35787284702E+03  0.00000000000E+00 0. -1.
         -1    1    3    3    0  502  0.30506045825E+03 -0.37960048289E+03  0.26857593749E+03  0.55613977020E+03  0.00000000000E+00 0.  1.
         13    1    5    5    0    0 -0.22500516075E+03  0.72455383282E+02  0.68517011411E+03  0.72480010361E+03  0.00000000000E+00 0.  1.
        -13    1    5    5    0    0 -0.95031745167E+02  0.10082813857E+03  0.37645125292E+03  0.40113949187E+03  0.00000000000E+00 0. -1.
          3    1    6    6  503    0 -0.10950056416E+03  0.25602078245E+03  0.22315681387E+03  0.35684167102E+03  0.00000000000E+00 0. -1.
         -3    1    6    6    0  503 -0.69826591677E+01  0.21945506496E+03  0.18630800548E+03  0.28795825387E+03  0.00000000000E+00 0.  1.
<mgrwt>
<rscale>  0 0.82974720E+03</rscale>
<asrwt>0</asrwt>
<pdfrwt beam="1">  1        2 0.35540250E+00 0.82974720E+03</pdfrwt>
<pdfrwt beam="2">  1       -2 0.57636284E-01 0.82974720E+03</pdfrwt>
<totfact> 0.12996343E+01</totfact>
</mgrwt>
</event>
<event>
12    1  0.1338445E-007  0.4501275E+03  0.7818608E-02  0.1027684E+00
          1   -1    0    0  501    0  0.00000000000E+00  0.00000000000E+00  0.34902331363E+04  0.34902331363E+04  0.00000000000E+00 0. -1.
         -1   -1    0    0    0  501 -0.00000000000E+00 -0.00000000000E+00 -0.10138841338E+03  0.10138841338E+03  0.00000000000E+00 0.  1.
         23    2    1    2    0    0  0.24272754686E+03  0.31466964547E+03  0.72006763954E+03  0.82750602072E+03  0.91297103110E+02 0.  0.
    5000000    2    1    2    0    0 -0.24272754686E+03 -0.31466964547E+03  0.26687770834E+04  0.27641155289E+04  0.60002490690E+03 0.  0.
         23    2    4    4    0    0 -0.28757051829E+03 -0.23179818057E+03  0.75088318235E+03  0.84182677680E+03  0.91758210026E+02 0.  0.
         23    2    4    4    0    0  0.44842971430E+02 -0.82871464894E+02  0.19178939010E+04  0.19222887521E+04  0.89434105793E+02 0.  0.
          3    1    3    3  502    0  0.10983085349E+03  0.72799529165E+02  0.23631324372E+03  0.27056706559E+03  0.00000000000E+00 0. -1.
         -3    1    3    3    0  502  0.13289669337E+03  0.24187011630E+03  0.48375439582E+03  0.55693895514E+03  0.00000000000E+00 0.  1.
         11    1    5    5    0    0 -0.26567269172E+02 -0.34927401372E+02  0.40026026221E+02  0.59395504316E+02  0.00000000000E+00 0.  1.
        -11    1    5    5    0    0 -0.26100324911E+03 -0.19687077920E+03  0.71085715612E+03  0.78243127249E+03  0.00000000000E+00 0. -1.
          4    1    6    6  503    0 -0.21750749091E+02 -0.27728235949E+02  0.91377142283E+03  0.91445074407E+03  0.00000000000E+00 0. -1.
         -4    1    6    6    0  503  0.66593720521E+02 -0.55143228945E+02  0.10041224782E+04  0.10078380081E+04  0.00000000000E+00 0.  1.
<mgrwt>
<rscale>  0 0.45012746E+03</rscale>
<asrwt>0</asrwt>
<pdfrwt beam="1">  1        1 0.53695885E+00 0.45012746E+03</pdfrwt>
<pdfrwt beam="2">  1       -1 0.15598220E-01 0.45012746E+03</pdfrwt>
<totfact> 0.90365010E+00</totfact>
</mgrwt>
</event>
<event>
12    1  0.1338445E-007  0.2044804E+04  0.7818608E-02  0.8585955E-01
          1   -1    0    0  501    0  0.00000000000E+00  0.00000000000E+00  0.26903829356E+04  0.26903829356E+04  0.00000000000E+00 0. -1.
         -1   -1    0    0    0  501 -0.00000000000E+00 -0.00000000000E+00 -0.15926702012E+04  0.15926702012E+04  0.00000000000E+00 0.  1.
         23    2    1    2    0    0  0.81761468943E+03  0.18425942981E+04  0.74189238368E+03  0.21499825986E+04  0.91505943642E+02 0.  0.
    5000000    2    1    2    0    0 -0.81761468943E+03 -0.18425942981E+04  0.35582035073E+03  0.21330705382E+04  0.59977851847E+03 0.  0.
         23    2    4    4    0    0 -0.86842553314E+03 -0.16010391613E+04  0.39769577660E+03  0.18664950484E+04  0.90291373688E+02 0.  0.
         23    2    4    4    0    0  0.50810843714E+02 -0.24155513671E+03 -0.41875425866E+02  0.26657548978E+03  0.91533133620E+02 0.  0.
          1    1    3    3  502    0  0.28538298370E+03  0.63999108832E+03  0.30453688506E+03  0.76405153942E+03  0.00000000000E+00 0. -1.
         -1    1    3    3    0  502  0.53223170573E+03  0.12026032097E+04  0.43735549862E+03  0.13859310592E+04  0.00000000000E+00 0.  1.
         13    1    5    5    0    0 -0.73163131963E+03 -0.13045812258E+04  0.35434962600E+03  0.15371337677E+04  0.00000000000E+00 0. -1.
        -13    1    5    5    0    0 -0.13679421351E+03 -0.29645793558E+03  0.43346150601E+02  0.32936128065E+03  0.00000000000E+00 0.  1.
          1    1    6    6  503    0  0.59972221373E+02 -0.19255736709E+03 -0.32281573999E+00  0.20168071590E+03  0.00000000000E+00 0. -1.
         -1    1    6    6    0  503 -0.91613776597E+01 -0.48997769620E+02 -0.41552610126E+02  0.64894773878E+02  0.00000000000E+00 0.  1.
<mgrwt>
<rscale>  0 0.20448038E+04</rscale>
<asrwt>0</asrwt>
<pdfrwt beam="1">  1        1 0.41390507E+00 0.20448038E+04</pdfrwt>
<pdfrwt beam="2">  1       -1 0.24502619E+00 0.20448038E+04</pdfrwt>
<totfact> 0.66450731E-02</totfact>
</mgrwt>
</event>
<event>
12    1  0.1338445E-007  0.1334507E+04  0.7818608E-02  0.9002640E-01
         -2   -1    0    0    0  501 -0.00000000000E+00  0.00000000000E+00  0.10466671383E+04  0.10466671383E+04  0.00000000000E+00 0.  1.
          2   -1    0    0  501    0  0.00000000000E+00 -0.00000000000E+00 -0.29075438556E+04  0.29075438556E+04  0.00000000000E+00 0. -1.
         23    2    1    2    0    0 -0.51834516936E+03 -0.12000197943E+04 -0.21204147234E+04  0.24926609319E+04  0.92036409341E+02 0.  0.
    5000000    2    1    2    0    0  0.51834516936E+03  0.12000197943E+04  0.25953800610E+03  0.14615500620E+04  0.60003282048E+03 0.  0.
         23    2    4    4    0    0  0.33154695201E+03  0.35869301481E+03 -0.12585853761E+03  0.51306815317E+03  0.93885558262E+02 0.  0.
         23    2    4    4    0    0  0.18679821735E+03  0.84132677952E+03  0.38539654371E+03  0.94848190880E+03  0.91450049023E+02 0.  0.
          1    1    3    3  502    0 -0.37194349785E+03 -0.75517458414E+03 -0.13879071458E+04  0.16232427001E+04  0.00000000000E+00 0. -1.
         -1    1    3    3    0  502 -0.14640167151E+03 -0.44484521019E+03 -0.73250757762E+03  0.86941823176E+03  0.00000000000E+00 0.  1.
         13    1    5    5    0    0  0.28458787614E+03  0.25167563652E+03 -0.10699855939E+03  0.39468921568E+03  0.00000000000E+00 0. -1.
        -13    1    5    5    0    0  0.46959075867E+02  0.10701737829E+03 -0.18859978218E+02  0.11837893749E+03  0.00000000000E+00 0.  1.
          3    1    6    6  503    0  0.67196611209E+02  0.25399616037E+03  0.16287845237E+03  0.30912590362E+03  0.00000000000E+00 0. -1.
         -3    1    6    6    0  503  0.11960160614E+03  0.58733061915E+03  0.22251809134E+03  0.63935600518E+03  0.00000000000E+00 0.  1.
<mgrwt>
<rscale>  0 0.13345070E+04</rscale>
<asrwt>0</asrwt>
<pdfrwt beam="1">  1        2 0.44731444E+00 0.13345070E+04</pdfrwt>
<pdfrwt beam="2">  1       -2 0.16102571E+00 0.13345070E+04</pdfrwt>
<totfact> 0.47468651E-01</totfact>
</mgrwt>
</event>
<event>
12    1  0.1338445E-007  0.8673824E+03  0.7818608E-02  0.9467299E-01
          1   -1    0    0  501    0  0.00000000000E+00  0.00000000000E+00  0.15340097073E+04  0.15340097073E+04  0.00000000000E+00 0. -1.
         -1   -1    0    0    0  501 -0.00000000000E+00 -0.00000000000E+00 -0.72871536727E+03  0.72871536727E+03  0.00000000000E+00 0.  1.
         23    2    1    2    0    0 -0.50054483558E+03 -0.57798482517E+03  0.10095560397E+04  0.12696095050E+04  0.89962811688E+02 0.  0.
    5000000    2    1    2    0    0  0.50054483558E+03  0.57798482517E+03 -0.20426169963E+03  0.99311556956E+03  0.59995341653E+03 0.  0.
         23    2    4    4    0    0  0.28352537383E+03 -0.45917497618E+02 -0.98544527039E+02  0.31809726073E+03  0.94761750115E+02 0.  0.
         23    2    4    4    0    0  0.21701946175E+03  0.62390232279E+03 -0.10571717259E+03  0.67501830882E+03  0.90122369603E+02 0.  0.
          2    1    3    3  502    0 -0.22488492321E+03 -0.21763025211E+03  0.46994939270E+03  0.56461366174E+03  0.00000000000E+00 0.  1.
         -2    1    3    3    0  502 -0.27565991236E+03 -0.36035457306E+03  0.53960664697E+03  0.70499584330E+03  0.00000000000E+00 0. -1.
         13    1    5    5    0    0  0.14567739403E+02 -0.29581805470E+02 -0.95939156474E+01  0.34341599608E+02  0.00000000000E+00 0. -1.
        -13    1    5    5    0    0  0.26895763443E+03 -0.16335692147E+02 -0.88950611391E+02  0.28375566113E+03  0.00000000000E+00 0.  1.
          1    1    6    6  503    0  0.10728728937E+03  0.19072776230E+03 -0.52161464426E+02  0.22496324176E+03  0.00000000000E+00 0. -1.
         -1    1    6    6    0  503  0.10973217238E+03  0.43317456049E+03 -0.53555708166E+02  0.45005506706E+03  0.00000000000E+00 0.  1.
<mgrwt>
<rscale>  0 0.86738242E+03</rscale>
<asrwt>0</asrwt>
<pdfrwt beam="1">  1        1 0.23600149E+00 0.86738242E+03</pdfrwt>
<pdfrwt beam="2">  1       -1 0.11211006E+00 0.86738242E+03</pdfrwt>
<totfact> 0.46276414E+00</totfact>
</mgrwt>
</event>
<event>
12    1  0.1338445E-007  0.4729229E+03  0.7818608E-02  0.1021098E+00
         -4   -1    0    0    0  501 -0.00000000000E+00  0.00000000000E+00  0.50797328305E+03  0.50797328305E+03  0.00000000000E+00 0. -1.
          4   -1    0    0  501    0  0.00000000000E+00 -0.00000000000E+00 -0.46993536634E+03  0.46993536634E+03  0.00000000000E+00 0.  1.
         23    2    1    2    0    0  0.25320180578E+03 -0.13611713183E+03 -0.55207311057E+02  0.30607689318E+03  0.89421414182E+02 0.  0.
    5000000    2    1    2    0    0 -0.25320180578E+03  0.13611713183E+03  0.93245227766E+02  0.67183175621E+03  0.60002017309E+03 0.  0.
         23    2    4    4    0    0 -0.39859589443E+03 -0.41218155469E+02  0.86418801043E+01  0.41087976959E+03  0.90387386120E+02 0.  0.
         23    2    4    4    0    0  0.14539408864E+03  0.17733528730E+03  0.84603347662E+02  0.26095198662E+03  0.91383629559E+02 0.  0.
          2    1    3    3  502    0  0.15574367137E+03 -0.39105639983E+02 -0.83261817705E+01  0.16079386665E+03  0.00000000000E+00 0. -1.
         -2    1    3    3    0  502  0.97458134419E+02 -0.97011491849E+02 -0.46881129286E+02  0.14528302653E+03  0.00000000000E+00 0.  1.
         13    1    5    5    0    0 -0.31064353264E+03 -0.58253247516E+01  0.34506569043E+02  0.31260844852E+03  0.00000000000E+00 0.  1.
        -13    1    5    5    0    0 -0.87952361785E+02 -0.35392830717E+02 -0.25864688939E+02  0.98271321064E+02  0.00000000000E+00 0. -1.
          3    1    6    6  503    0  0.15013663204E+03  0.14217189153E+03  0.53043555039E+02  0.21346539240E+03  0.00000000000E+00 0. -1.
         -3    1    6    6    0  503 -0.47425433999E+01  0.35163395774E+02  0.31559792623E+02  0.47486594221E+02  0.00000000000E+00 0.  1.
<mgrwt>
<rscale>  0 0.47292288E+03</rscale>
<asrwt>0</asrwt>
<pdfrwt beam="1">  1        4 0.72297749E-01 0.47292288E+03</pdfrwt>
<pdfrwt beam="2">  1       -4 0.78149736E-01 0.47292288E+03</pdfrwt>
<totfact> 0.49498681E+00</totfact>
</mgrwt>
</event>
<event>
12    1  0.1338445E-007  0.9190981E+03  0.7818608E-02  0.9402018E-01
         -1   -1    0    0    0  501 -0.00000000000E+00  0.00000000000E+00  0.40440423671E+03  0.40440423671E+03  0.00000000000E+00 0.  1.
          1   -1    0    0  501    0  0.00000000000E+00 -0.00000000000E+00 -0.23263087890E+04  0.23263087890E+04  0.00000000000E+00 0. -1.
         23    2    1    2    0    0 -0.52316156444E+03 -0.66437973111E+03 -0.11847714269E+04  0.14585087987E+04  0.92011588824E+02 0.  0.
    5000000    2    1    2    0    0  0.52316156444E+03  0.66437973111E+03 -0.73713312544E+03  0.12722042270E+04  0.60003324983E+03 0.  0.
         23    2    4    4    0    0  0.61124370843E+03  0.53714331787E+03 -0.44807212998E+03  0.93345413756E+03  0.91794216749E+02 0.  0.
         23    2    4    4    0    0 -0.88082143993E+02  0.12723641323E+03 -0.28906099546E+03  0.33875008941E+03  0.85133982870E+02 0.  0.
          2    1    3    3  502    0 -0.43791385191E+03 -0.52766307598E+03 -0.10102882858E+04  0.12210156772E+04  0.00000000000E+00 0. -1.
         -2    1    3    3    0  502 -0.85247712530E+02 -0.13671665512E+03 -0.17448314102E+03  0.23749312154E+03  0.00000000000E+00 0.  1.
         13    1    5    5    0    0  0.40289160639E+03  0.32656549908E+03 -0.24007108266E+03  0.57148997928E+03  0.00000000000E+00 0.  1.
        -13    1    5    5    0    0  0.20835210205E+03  0.21057781879E+03 -0.20800104732E+03  0.36196415828E+03  0.00000000000E+00 0. -1.
          1    1    6    6  503    0  0.17116004400E+02  0.16350403280E+02 -0.34921905108E+02  0.42188064075E+02  0.00000000000E+00 0. -1.
         -1    1    6    6    0  503 -0.10519814839E+03  0.11088600995E+03 -0.25413909035E+03  0.29656202534E+03  0.00000000000E+00 0.  1.
<mgrwt>
<rscale>  0 0.91909808E+03</rscale>
<asrwt>0</asrwt>
<pdfrwt beam="1">  1        1 0.35789366E+00 0.91909808E+03</pdfrwt>
<pdfrwt beam="2">  1       -1 0.62216037E-01 0.91909808E+03</pdfrwt>
<totfact> 0.48066682E+00</totfact>
</mgrwt>
</event>
<event>
12    1  0.1338445E-007  0.6108600E+03  0.7818608E-02  0.9883128E-01
          3   -1    0    0  501    0  0.00000000000E+00  0.00000000000E+00  0.10428696024E+04  0.10428696024E+04  0.00000000000E+00 0. -1.
         -3   -1    0    0    0  501 -0.00000000000E+00 -0.00000000000E+00 -0.42120594509E+03  0.42120594509E+03  0.00000000000E+00 0.  1.
         23    2    1    2    0    0  0.30123521934E+03 -0.40529524459E+03  0.39669849461E+03  0.64856585800E+03  0.90890504898E+02 0.  0.
    5000000    2    1    2    0    0 -0.30123521934E+03  0.40529524459E+03  0.22496516266E+03  0.81550968944E+03  0.59953301535E+03 0.  0.
         23    2    4    4    0    0 -0.22647372246E+03 -0.48174993936E+02 -0.73663183889E+02  0.25932654385E+03  0.90624580976E+02 0.  0.
         23    2    4    4    0    0 -0.74761496878E+02  0.45347023853E+03  0.29862834655E+03  0.55618314559E+03  0.94531811717E+02 0.  0.
          2    1    3    3  502    0  0.15050557713E+03 -0.25681218035E+03  0.19228716626E+03  0.35437096246E+03  0.00000000000E+00 0. -1.
         -2    1    3    3    0  502  0.15072964221E+03 -0.14848306424E+03  0.20441132835E+03  0.29419489555E+03  0.00000000000E+00 0.  1.
         13    1    5    5    0    0 -0.17587051685E+02 -0.29837760727E+02  0.57372918647E+01  0.35107162661E+02  0.00000000000E+00 0. -1.
        -13    1    5    5    0    0 -0.20888667078E+03 -0.18337233210E+02 -0.79400475754E+02  0.22421938119E+03  0.00000000000E+00 0.  1.
          1    1    6    6  503    0 -0.12672072498E+02  0.32713465426E+03  0.22574028405E+03  0.39766360065E+03  0.00000000000E+00 0.  1.
         -1    1    6    6    0  503 -0.62089424380E+02  0.12633558427E+03  0.72888062502E+02  0.15851954494E+03  0.00000000000E+00 0. -1.
<mgrwt>
<rscale>  0 0.61085998E+03</rscale>
<asrwt>0</asrwt>
<pdfrwt beam="1">  1        3 0.16044148E+00 0.61085998E+03</pdfrwt>
<pdfrwt beam="2">  1       -3 0.64800915E-01 0.61085998E+03</pdfrwt>
<totfact> 0.16379698E+00</totfact>
</mgrwt>
</event>
<event>
12    1  0.1338445E-007  0.7728651E+03  0.7818608E-02  0.9600146E-01
          2   -1    0    0  501    0  0.00000000000E+00  0.00000000000E+00  0.29545479503E+04  0.29545479503E+04  0.00000000000E+00 0. -1.
         -2   -1    0    0    0  501 -0.00000000000E+00 -0.00000000000E+00 -0.47362233582E+03  0.47362233582E+03  0.00000000000E+00 0.  1.
         23    2    1    2    0    0  0.14373961560E+03 -0.74393181130E+03  0.23276037444E+04  0.24494932503E+04  0.90456484423E+02 0.  0.
    5000000    2    1    2    0    0 -0.14373961560E+03  0.74393181130E+03  0.15332187008E+03  0.97867703577E+03  0.60017124851E+03 0.  0.
         23    2    4    4    0    0 -0.47180244610E+02  0.55600350683E+03  0.35956983857E+03  0.66974297817E+03  0.88878078861E+02 0.  0.
         23    2    4    4    0    0 -0.96559370991E+02  0.18792830447E+03 -0.20624796849E+03  0.30893405760E+03  0.90891516074E+02 0.  0.
          1    1    3    3  502    0  0.82316656488E+02 -0.46193378957E+03  0.15767049219E+04  0.16450402028E+04  0.00000000000E+00 0. -1.
         -1    1    3    3    0  502  0.61422959114E+02 -0.28199802173E+03  0.75089882243E+03  0.80445304754E+03  0.00000000000E+00 0.  1.
         13    1    5    5    0    0 -0.38261908231E+02  0.50403145152E+03  0.35314283222E+03  0.61662106491E+03  0.00000000000E+00 0. -1.
        -13    1    5    5    0    0 -0.89183363799E+01  0.51972055316E+02  0.64270063481E+01  0.53121913257E+02  0.00000000000E+00 0.  1.
          2    1    6    6  503    0 -0.21688775282E+02 -0.54217382009E+01 -0.25047873755E+02  0.33573712901E+02  0.00000000000E+00 0. -1.
         -2    1    6    6    0  503 -0.74870595709E+02  0.19335004267E+03 -0.18120009473E+03  0.27536034470E+03  0.00000000000E+00 0.  1.
<mgrwt>
<rscale>  0 0.77286509E+03</rscale>
<asrwt>0</asrwt>
<pdfrwt beam="1">  1        2 0.45454583E+00 0.77286509E+03</pdfrwt>
<pdfrwt beam="2">  1       -2 0.72864977E-01 0.77286509E+03</pdfrwt>
<totfact> 0.33554589E+00</totfact>
</mgrwt>
</event>
<event>
12    1  0.1338445E-007  0.6844791E+03  0.7818608E-02  0.9744149E-01
          2   -1    0    0  501    0  0.00000000000E+00  0.00000000000E+00  0.29840793832E+04  0.29840793832E+04  0.00000000000E+00 0. -1.
         -2   -1    0    0    0  501 -0.00000000000E+00 -0.00000000000E+00 -0.20851827283E+03  0.20851827283E+03  0.00000000000E+00 0.  1.
         23    2    1    2    0    0 -0.25335255336E+03 -0.49917957676E+03  0.44169734848E+03  0.71868675262E+03  0.89701363375E+02 0.  0.
    5000000    2    1    2    0    0  0.25335255336E+03  0.49917957676E+03  0.23338637619E+04  0.24739109034E+04  0.59995610901E+03 0.  0.
         23    2    4    4    0    0  0.73790592059E+02 -0.11784513480E+03  0.59409755605E+03  0.61702011615E+03  0.91811711414E+02 0.  0.
         23    2    4    4    0    0  0.17956196130E+03  0.61702471156E+03  0.17397662058E+04  0.18568907872E+04  0.91076628002E+02 0.  0.
          3    1    3    3  502    0 -0.20108319662E+03 -0.41113324248E+03  0.31411575495E+03  0.55509792158E+03  0.00000000000E+00 0. -1.
         -3    1    3    3    0  502 -0.52269356744E+02 -0.88046334279E+02  0.12758159352E+03  0.16358883104E+03  0.00000000000E+00 0.  1.
         13    1    5    5    0    0  0.72047636945E+02 -0.13003072916E+03  0.57767788912E+03  0.59649861366E+03  0.00000000000E+00 0. -1.
        -13    1    5    5    0    0  0.17429551146E+01  0.12185594358E+02  0.16419666927E+02  0.20521502488E+02  0.00000000000E+00 0.  1.
          4    1    6    6  503    0  0.17435135302E+03  0.47802483861E+03  0.14093203429E+04  0.14983624293E+04  0.00000000000E+00 0. -1.
         -4    1    6    6    0  503  0.52106082818E+01  0.13899987295E+03  0.33044586288E+03  0.35852835790E+03  0.00000000000E+00 0.  1.
<mgrwt>
<rscale>  0 0.68447910E+03</rscale>
<asrwt>0</asrwt>
<pdfrwt beam="1">  1        2 0.45908911E+00 0.68447910E+03</pdfrwt>
<pdfrwt beam="2">  1       -2 0.32079736E-01 0.68447910E+03</pdfrwt>
<totfact> 0.17265549E+01</totfact>
</mgrwt>
</event>
<event>
12    1  0.1338445E-007  0.6746618E+03  0.7818608E-02  0.9761573E-01
         -3   -1    0    0    0  501 -0.00000000000E+00  0.00000000000E+00  0.52681247091E+03  0.52681247091E+03  0.00000000000E+00 0.  1.
          3   -1    0    0  501    0  0.00000000000E+00 -0.00000000000E+00 -0.12239961185E+04  0.12239961185E+04  0.00000000000E+00 0. -1.
         23    2    1    2    0    0 -0.60267226235E+03  0.16401679399E+01 -0.66290298278E+03  0.89974583619E+03  0.82979872321E+02 0.  0.
    5000000    2    1    2    0    0  0.60267226235E+03 -0.16401679399E+01 -0.34280664771E+02  0.85106275318E+03  0.59993007919E+03 0.  0.
         23    2    4    4    0    0  0.53691482632E+03 -0.14815991227E+03 -0.20390361810E+03  0.60012601893E+03  0.91354599195E+02 0.  0.
         23    2    4    4    0    0  0.65757436033E+02  0.14651974433E+03  0.16962295333E+03  0.25093673426E+03  0.91680000179E+02 0.  0.
          3    1    3    3  502    0 -0.17418660410E+03 -0.26025827973E+02 -0.23374998492E+03  0.29267280745E+03  0.00000000000E+00 0. -1.
         -3    1    3    3    0  502 -0.42848565826E+03  0.27665995913E+02 -0.42915299786E+03  0.60707302875E+03  0.00000000000E+00 0.  1.
         13    1    5    5    0    0  0.20286604954E+03 -0.32822261836E+02 -0.11589998242E+03  0.23593376370E+03  0.00000000000E+00 0. -1.
        -13    1    5    5    0    0  0.33404877678E+03 -0.11533765043E+03 -0.88003635676E+02  0.36419225523E+03  0.00000000000E+00 0.  1.
          1    1    6    6  503    0  0.11986297385E+02  0.12723286468E+03  0.11651613028E+03  0.17293895395E+03  0.00000000000E+00 0. -1.
         -1    1    6    6    0  503  0.53771138648E+02  0.19286879649E+02  0.53106823046E+02  0.77997780303E+02  0.00000000000E+00 0.  1.
<mgrwt>
<rscale>  0 0.67466178E+03</rscale>
<asrwt>0</asrwt>
<pdfrwt beam="1">  1        3 0.18830710E+00 0.67466178E+03</pdfrwt>
<pdfrwt beam="2">  1       -3 0.81048072E-01 0.67466178E+03</pdfrwt>
<totfact> 0.64641897E-01</totfact>
</mgrwt>
</event>
<event>
12    1  0.1338445E-007  0.6035551E+03  0.7818608E-02  0.9898058E-01
          2   -1    0    0  501    0  0.00000000000E+00  0.00000000000E+00  0.16954022605E+03  0.16954022605E+03  0.00000000000E+00 0. -1.
         -2   -1    0    0    0  501 -0.00000000000E+00 -0.00000000000E+00 -0.25122448887E+04  0.25122448887E+04  0.00000000000E+00 0.  1.
         23    2    1    2    0    0  0.79666265124E+02 -0.46886776704E+03 -0.54897444174E+03  0.73145473776E+03  0.86425684518E+02 0.  0.
    5000000    2    1    2    0    0 -0.79666265124E+02  0.46886776704E+03 -0.17937302209E+04  0.19503303770E+04  0.60011397017E+03 0.  0.
         23    2    4    4    0    0 -0.15701729153E+03 -0.54935176794E+02 -0.23870086615E+03  0.30539500887E+03  0.92820819082E+02 0.  0.
         23    2    4    4    0    0  0.77351026403E+02  0.52380294384E+03 -0.15550293547E+04  0.16449353681E+04  0.85693440984E+02 0.  0.
          1    1    3    3  502    0 -0.14843967175E+02 -0.14645979132E+03 -0.17682358962E+03  0.23008128060E+03  0.00000000000E+00 0. -1.
         -1    1    3    3    0  502  0.94510232299E+02 -0.32240797573E+03 -0.37215085212E+03  0.50137345717E+03  0.00000000000E+00 0.  1.
         13    1    5    5    0    0  0.19028152010E+01 -0.27771143795E+02 -0.23061031858E+02  0.36147867486E+02  0.00000000000E+00 0. -1.
        -13    1    5    5    0    0 -0.15892010673E+03 -0.27164032999E+02 -0.21563983429E+03  0.26924714139E+03  0.00000000000E+00 0.  1.
          2    1    6    6  503    0  0.51132622574E+02  0.48700021146E+03 -0.14545323926E+04  0.15347469603E+04  0.00000000000E+00 0.  1.
         -2    1    6    6    0  503  0.26218403829E+02  0.36802732379E+02 -0.10049696214E+03  0.11018840778E+03  0.00000000000E+00 0. -1.
<mgrwt>
<rscale>  0 0.60355506E+03</rscale>
<asrwt>0</asrwt>
<pdfrwt beam="1">  1        2 0.26083114E-01 0.60355506E+03</pdfrwt>
<pdfrwt beam="2">  1       -2 0.38649919E+00 0.60355506E+03</pdfrwt>
<totfact> 0.20585823E+00</totfact>
</mgrwt>
</event>
<event>
12    1  0.1338445E-007  0.6889273E+03  0.7818608E-02  0.9736358E-01
         -2   -1    0    0    0  501 -0.00000000000E+00  0.00000000000E+00  0.49530605418E+03  0.49530605418E+03  0.00000000000E+00 0.  1.
          2   -1    0    0  501    0  0.00000000000E+00 -0.00000000000E+00 -0.11272538855E+04  0.11272538855E+04  0.00000000000E+00 0. -1.
         23    2    1    2    0    0 -0.51521440313E+03  0.33654668464E+03 -0.16229108648E+03  0.64319059589E+03  0.92984911454E+02 0.  0.
    5000000    2    1    2    0    0  0.51521440313E+03 -0.33654668464E+03 -0.46965674485E+03  0.97936934380E+03  0.59989774250E+03 0.  0.
         23    2    4    4    0    0 -0.50513509454E+02 -0.72842560734E+02  0.73580175630E+02  0.14683681209E+03  0.91045888683E+02 0.  0.
         23    2    4    4    0    0  0.56572791258E+03 -0.26370412390E+03 -0.54323692048E+03  0.83253253171E+03  0.91739460153E+02 0.  0.
          3    1    3    3  502    0 -0.27685765560E+03  0.12955599172E+03 -0.61443608265E+02  0.31178555684E+03  0.00000000000E+00 0. -1.
         -3    1    3    3    0  502 -0.23835674752E+03  0.20699069292E+03 -0.10084747822E+03  0.33140503905E+03  0.00000000000E+00 0.  1.
         13    1    5    5    0    0 -0.67154566752E+02 -0.19776968690E+02  0.51901716563E+02  0.87147303506E+02  0.00000000000E+00 0.  1.
        -13    1    5    5    0    0  0.16641057298E+02 -0.53065592044E+02  0.21678459067E+02  0.59689508580E+02  0.00000000000E+00 0. -1.
          4    1    6    6  503    0  0.36901187643E+03 -0.21913486015E+03 -0.36913047595E+03  0.56608052445E+03  0.00000000000E+00 0. -1.
         -4    1    6    6    0  503  0.19671603615E+03 -0.44569263755E+02 -0.17410644452E+03  0.26645200727E+03  0.00000000000E+00 0.  1.
<mgrwt>
<rscale>  0 0.68892732E+03</rscale>
<asrwt>0</asrwt>
<pdfrwt beam="1">  1        2 0.17342367E+00 0.68892732E+03</pdfrwt>
<pdfrwt beam="2">  1       -2 0.76200931E-01 0.68892732E+03</pdfrwt>
<totfact> 0.33087192E+01</totfact>
</mgrwt>
</event>
<event>
12    1  0.1338445E-007  0.1757461E+04  0.7818608E-02  0.8729254E-01
         -2   -1    0    0    0  501 -0.00000000000E+00  0.00000000000E+00  0.12404096194E+04  0.12404096194E+04  0.00000000000E+00 0.  1.
          2   -1    0    0  501    0  0.00000000000E+00 -0.00000000000E+00 -0.26245987637E+04  0.26245987637E+04  0.00000000000E+00 0. -1.
         23    2    1    2    0    0  0.15330861542E+04 -0.83868851133E+03 -0.52185550379E+03  0.18260179378E+04  0.90866754486E+02 0.  0.
    5000000    2    1    2    0    0 -0.15330861542E+04  0.83868851133E+03 -0.86233364052E+03  0.20389904452E+04  0.60009262013E+03 0.  0.
         23    2    4    4    0    0 -0.24247918082E+03  0.24477973496E+03  0.32910363942E+02  0.35719326267E+03  0.88264732850E+02 0.  0.
         23    2    4    4    0    0 -0.12906069734E+04  0.59390877638E+03 -0.89524400446E+03  0.16817971825E+04  0.92660353953E+02 0.  0.
          4    1    3    3  502    0  0.85864253713E+03 -0.46629182676E+03 -0.24472855264E+03  0.10072671635E+04  0.00000000000E+00 0. -1.
         -4    1    3    3    0  502  0.67444361712E+03 -0.37239668457E+03 -0.27712695115E+03  0.81875077429E+03  0.00000000000E+00 0.  1.
         11    1    5    5    0    0 -0.64076580305E+02  0.68304552843E+02 -0.30262932459E+02  0.98423397440E+02  0.00000000000E+00 0. -1.
        -11    1    5    5    0    0 -0.17840260052E+03  0.17647518211E+03  0.63173296401E+02  0.25876986523E+03  0.00000000000E+00 0.  1.
          2    1    6    6  503    0 -0.61611233125E+03  0.24093327028E+03 -0.38642372003E+03  0.76613741381E+03  0.00000000000E+00 0.  1.
         -2    1    6    6    0  503 -0.67449464217E+03  0.35297550610E+03 -0.50882028444E+03  0.91565976873E+03  0.00000000000E+00 0. -1.
<mgrwt>
<rscale>  0 0.17574613E+04</rscale>
<asrwt>0</asrwt>
<pdfrwt beam="1">  1        2 0.40378442E+00 0.17574613E+04</pdfrwt>
<pdfrwt beam="2">  1       -2 0.19083225E+00 0.17574613E+04</pdfrwt>
<totfact> 0.41261954E-01</totfact>
</mgrwt>
</event>
<event>
12    1  0.1338445E-007  0.8239575E+03  0.7818608E-02  0.9525973E-01
         -2   -1    0    0    0  501 -0.00000000000E+00  0.00000000000E+00  0.57316567260E+03  0.57316567260E+03  0.00000000000E+00 0.  1.
          2   -1    0    0  501    0  0.00000000000E+00 -0.00000000000E+00 -0.12311535065E+04  0.12311535065E+04  0.00000000000E+00 0. -1.
         23    2    1    2    0    0  0.72233571942E+03 -0.10704629302E+03 -0.28085763867E+03  0.78673672985E+03  0.82739763631E+02 0.  0.
    5000000    2    1    2    0    0 -0.72233571942E+03  0.10704629302E+03 -0.37713019521E+03  0.10175824492E+04  0.60001588016E+03 0.  0.
         23    2    4    4    0    0 -0.27514285212E+03 -0.22684765482E+03 -0.22869656373E+03  0.43305006941E+03  0.89815348261E+02 0.  0.
         23    2    4    4    0    0 -0.44719286730E+03  0.33389394784E+03 -0.14843363148E+03  0.58453237983E+03  0.90437443235E+02 0.  0.
          4    1    3    3  502    0  0.32265055373E+03 -0.18772997134E+02 -0.92585726803E+02  0.33619625526E+03  0.00000000000E+00 0. -1.
         -4    1    3    3    0  502  0.39968516569E+03 -0.88273295885E+02 -0.18827191187E+03  0.45054047459E+03  0.00000000000E+00 0.  1.
         11    1    5    5    0    0 -0.72751008859E+02 -0.66886207561E+02 -0.11358695639E+03  0.15056052176E+03  0.00000000000E+00 0. -1.
        -11    1    5    5    0    0 -0.20239184326E+03 -0.15996144726E+03 -0.11510960734E+03  0.28248954765E+03  0.00000000000E+00 0.  1.
          2    1    6    6  503    0 -0.14457681324E+03  0.12205727876E+03 -0.93586348930E+02  0.21108964667E+03  0.00000000000E+00 0. -1.
         -2    1    6    6    0  503 -0.30261605407E+03  0.21183666908E+03 -0.54847282553E+02  0.37344273316E+03  0.00000000000E+00 0.  1.
<mgrwt>
<rscale>  0 0.82395746E+03</rscale>
<asrwt>0</asrwt>
<pdfrwt beam="1">  1        2 0.18940823E+00 0.82395746E+03</pdfrwt>
<pdfrwt beam="2">  1       -2 0.88179335E-01 0.82395746E+03</pdfrwt>
<totfact> 0.20334921E+01</totfact>
</mgrwt>
</event>
<event>
12    1  0.1338445E-007  0.6741713E+03  0.7818608E-02  0.9762452E-01
          2   -1    0    0  501    0  0.00000000000E+00  0.00000000000E+00  0.25150861826E+04  0.25150861826E+04  0.00000000000E+00 0. -1.
         -2   -1    0    0    0  501 -0.00000000000E+00 -0.00000000000E+00 -0.56774754702E+03  0.56774754702E+03  0.00000000000E+00 0.  1.
         23    2    1    2    0    0 -0.50644314054E+01  0.65282077033E+03 -0.25658548462E+03  0.70723931876E+03  0.90281429075E+02 0.  0.
    5000000    2    1    2    0    0  0.50644314054E+01 -0.65282077033E+03  0.22039241202E+04  0.23755944108E+04  0.59997222490E+03 0.  0.
         23    2    4    4    0    0 -0.75471427256E+02 -0.85665550998E+02  0.12541089004E+04  0.12626561442E+04  0.92069981166E+02 0.  0.
         23    2    4    4    0    0  0.80535858661E+02 -0.56715521933E+03  0.94981521976E+03  0.11129382666E+04  0.91277413961E+02 0.  0.
          1    1    3    3  502    0  0.96306230962E+01  0.35684569133E+03 -0.93629447524E+02  0.36905022662E+03  0.00000000000E+00 0. -1.
         -1    1    3    3    0  502 -0.14695054502E+02  0.29597507900E+03 -0.16295603709E+03  0.33818909214E+03  0.00000000000E+00 0.  1.
         13    1    5    5    0    0 -0.44002497473E+02 -0.74628781332E+02  0.47514412567E+03  0.48297786176E+03  0.00000000000E+00 0. -1.
        -13    1    5    5    0    0 -0.31468929782E+02 -0.11036769666E+02  0.77896477472E+03  0.77967828242E+03  0.00000000000E+00 0.  1.
          3    1    6    6  503    0 -0.64650123626E+01 -0.20111642144E+02  0.71394807573E+02  0.74454637753E+02  0.00000000000E+00 0. -1.
         -3    1    6    6    0  503  0.87000871024E+02 -0.54704357719E+03  0.87842041219E+03  0.10384836289E+04  0.00000000000E+00 0.  1.
<mgrwt>
<rscale>  0 0.67417131E+03</rscale>
<asrwt>0</asrwt>
<pdfrwt beam="1">  1        2 0.38693633E+00 0.67417131E+03</pdfrwt>
<pdfrwt beam="2">  1       -2 0.87345778E-01 0.67417131E+03</pdfrwt>
<totfact> 0.41182242E+00</totfact>
</mgrwt>
</event>
<event>
12    1  0.1338445E-007  0.5799321E+03  0.7818608E-02  0.9947938E-01
          1   -1    0    0  501    0  0.00000000000E+00  0.00000000000E+00  0.17493003840E+04  0.17493003840E+04  0.00000000000E+00 0. -1.
         -1   -1    0    0    0  501 -0.00000000000E+00 -0.00000000000E+00 -0.32025212747E+03  0.32025212747E+03  0.00000000000E+00 0.  1.
         23    2    1    2    0    0  0.43368364761E+03 -0.19634026277E+03  0.44543198013E+02  0.48730032974E+03  0.94055887016E+02 0.  0.
    5000000    2    1    2    0    0 -0.43368364761E+03  0.19634026277E+03  0.13845050585E+04  0.15822521817E+04  0.60003058633E+03 0.  0.
         23    2    4    4    0    0 -0.53232521211E+02  0.28359374701E+03  0.30201125098E+03  0.42779798075E+03  0.92418623415E+02 0.  0.
         23    2    4    4    0    0 -0.38045112640E+03 -0.87253484240E+02  0.10824938075E+04  0.11544542010E+04  0.92819333740E+02 0.  0.
          4    1    3    3  502    0  0.14817006275E+03 -0.93859889181E+02  0.54861334748E+02  0.18377652827E+03  0.00000000000E+00 0. -1.
         -4    1    3    3    0  502  0.28551358486E+03 -0.10248037359E+03 -0.10318136735E+02  0.30352380147E+03  0.00000000000E+00 0.  1.
         11    1    5    5    0    0 -0.39443532812E+02  0.20596850949E+03  0.27195765228E+03  0.34342362152E+03  0.00000000000E+00 0. -1.
        -11    1    5    5    0    0 -0.13788988399E+02  0.77625237516E+02  0.30053598707E+02  0.84374359232E+02  0.00000000000E+00 0.  1.
          1    1    6    6  503    0 -0.23765410364E+03 -0.33573111748E+02  0.77300785381E+03  0.80941198957E+03  0.00000000000E+00 0. -1.
         -1    1    6    6    0  503 -0.14279702276E+03 -0.53680372491E+02  0.30948595372E+03  0.34504221140E+03  0.00000000000E+00 0.  1.
<mgrwt>
<rscale>  0 0.57993211E+03</rscale>
<asrwt>0</asrwt>
<pdfrwt beam="1">  1        1 0.26912313E+00 0.57993211E+03</pdfrwt>
<pdfrwt beam="2">  1       -1 0.49269559E-01 0.57993211E+03</pdfrwt>
<totfact> 0.19413369E+01</totfact>
</mgrwt>
</event>
<event>
12    1  0.1338445E-007  0.5514352E+03  0.7818608E-02  0.1001162E+00
         -2   -1    0    0    0  501 -0.00000000000E+00  0.00000000000E+00  0.92789259816E+03  0.92789259816E+03  0.00000000000E+00 0.  1.
          2   -1    0    0  501    0  0.00000000000E+00 -0.00000000000E+00 -0.38732216529E+03  0.38732216529E+03  0.00000000000E+00 0. -1.
         23    2    1    2    0    0  0.41309351774E+03  0.13100754242E+03  0.10570238455E+03  0.45674922875E+03  0.98171448470E+02 0.  0.
    5000000    2    1    2    0    0 -0.41309351774E+03 -0.13100754242E+03  0.43486804832E+03  0.85846553469E+03  0.60003635243E+03 0.  0.
         23    2    4    4    0    0  0.93353194214E+02  0.52788211056E+02 -0.26491832025E+02  0.14362953512E+03  0.91794401237E+02 0.  0.
         23    2    4    4    0    0 -0.50644671196E+03 -0.18379575347E+03  0.46135988034E+03  0.71483599957E+03  0.88704092622E+02 0.  0.
          4    1    3    3  502    0  0.19296178202E+03  0.11268044854E+03  0.52204879967E+02  0.22947000304E+03  0.00000000000E+00 0. -1.
         -4    1    3    3    0  502  0.22013173573E+03  0.18327093876E+02  0.53497504587E+02  0.22727922571E+03  0.00000000000E+00 0.  1.
         11    1    5    5    0    0  0.39700627099E+02  0.51407500875E+02 -0.52941744356E+02  0.83795580037E+02  0.00000000000E+00 0. -1.
        -11    1    5    5    0    0  0.53652567115E+02  0.13807101813E+01  0.26449912331E+02  0.59833955084E+02  0.00000000000E+00 0.  1.
          2    1    6    6  503    0 -0.40614720730E+03 -0.13228326551E+03  0.31838978502E+03  0.53275366872E+03  0.00000000000E+00 0. -1.
         -2    1    6    6    0  503 -0.10029950465E+03 -0.51512487968E+02  0.14297009533E+03  0.18208233085E+03  0.00000000000E+00 0.  1.
<mgrwt>
<rscale>  0 0.55143518E+03</rscale>
<asrwt>0</asrwt>
<pdfrwt beam="1">  1        2 0.59588026E-01 0.55143518E+03</pdfrwt>
<pdfrwt beam="2">  1       -2 0.14275271E+00 0.55143518E+03</pdfrwt>
<totfact> 0.28988392E+01</totfact>
</mgrwt>
</event>
<event>
12    1  0.1338445E-007  0.5685844E+03  0.7818608E-02  0.9972816E-01
         -2   -1    0    0    0  501 -0.00000000000E+00  0.00000000000E+00  0.10368819671E+04  0.10368819671E+04  0.00000000000E+00 0.  1.
          2   -1    0    0  501    0  0.00000000000E+00 -0.00000000000E+00 -0.61509892823E+03  0.61509892823E+03  0.00000000000E+00 0. -1.
         23    2    1    2    0    0  0.95787446822E+02 -0.42943317586E+03 -0.35770525804E+03  0.57446676394E+03  0.92037621332E+02 0.  0.
    5000000    2    1    2    0    0 -0.95787446822E+02  0.42943317586E+03  0.77948829690E+03  0.10775141314E+04  0.59987216206E+03 0.  0.
         23    2    4    4    0    0  0.21474168746E+03  0.21939494598E+03  0.52514381761E+03  0.61502200392E+03  0.90707780710E+02 0.  0.
         23    2    4    4    0    0 -0.31052913428E+03  0.21003822988E+03  0.25434447929E+03  0.46249212745E+03  0.93077669524E+02 0.  0.
          3    1    3    3  502    0  0.29810603920E+02 -0.14214635963E+03 -0.17602792969E+03  0.22821063011E+03  0.00000000000E+00 0. -1.
         -3    1    3    3    0  502  0.65976842903E+02 -0.28728681623E+03 -0.18167732835E+03  0.34625613383E+03  0.00000000000E+00 0.  1.
         13    1    5    5    0    0  0.10018140727E+03  0.14225904162E+03  0.22331494039E+03  0.28309629437E+03  0.00000000000E+00 0. -1.
        -13    1    5    5    0    0  0.11456028019E+03  0.77135904365E+02  0.30182887721E+03  0.33192570955E+03  0.00000000000E+00 0.  1.
          3    1    6    6  503    0 -0.27644419619E+03  0.21553350872E+03  0.24141352004E+03  0.42562492249E+03  0.00000000000E+00 0. -1.
         -3    1    6    6    0  503 -0.34084938091E+02 -0.54952788478E+01  0.12930959245E+02  0.36867204956E+02  0.00000000000E+00 0.  1.
<mgrwt>
<rscale>  0 0.56858439E+03</rscale>
<asrwt>0</asrwt>
<pdfrwt beam="1">  1        2 0.94630605E-01 0.56858439E+03</pdfrwt>
<pdfrwt beam="2">  1       -2 0.15952030E+00 0.56858439E+03</pdfrwt>
<totfact> 0.12674308E+01</totfact>
</mgrwt>
</event>
<event>
12    1  0.1338445E-007  0.4457515E+03  0.7818608E-02  0.1028997E+00
         -2   -1    0    0    0  501 -0.00000000000E+00  0.00000000000E+00  0.23627557407E+03  0.23627557407E+03  0.00000000000E+00 0.  1.
          2   -1    0    0  501    0  0.00000000000E+00 -0.00000000000E+00 -0.99189014265E+03  0.99189014265E+03  0.00000000000E+00 0. -1.
         23    2    1    2    0    0 -0.26528110616E+03  0.48567027213E+02 -0.36493524555E+03  0.46317805612E+03  0.92862031053E+02 0.  0.
    5000000    2    1    2    0    0  0.26528110616E+03 -0.48567027213E+02 -0.39067932302E+03  0.76498766060E+03  0.59986912407E+03 0.  0.
         23    2    4    4    0    0 -0.16347420799E+03  0.52475913202E+02 -0.19554467619E+03  0.27477757201E+03  0.88246561102E+02 0.  0.
         23    2    4    4    0    0  0.42875531415E+03 -0.10104294042E+03 -0.19513464683E+03  0.49021008859E+03  0.90485387496E+02 0.  0.
          2    1    3    3  502    0 -0.64430717757E+02  0.67485129413E+01 -0.16259914480E+03  0.17502954524E+03  0.00000000000E+00 0. -1.
         -2    1    3    3    0  502 -0.20085038840E+03  0.41818514271E+02 -0.20233610076E+03  0.28814851088E+03  0.00000000000E+00 0.  1.
         13    1    5    5    0    0 -0.12730766978E+03  0.30219369481E+02 -0.19175439099E+03  0.23214262758E+03  0.00000000000E+00 0.  1.
        -13    1    5    5    0    0 -0.36166538210E+02  0.22256543722E+02 -0.37902852076E+01  0.42634944429E+02  0.00000000000E+00 0. -1.
          2    1    6    6  503    0  0.51858635571E+02 -0.42051139791E+02 -0.15469845566E+02  0.68534170768E+02  0.00000000000E+00 0. -1.
         -2    1    6    6    0  503  0.37689667857E+03 -0.58991800624E+02 -0.17966480126E+03  0.42167591783E+03  0.00000000000E+00 0.  1.
<mgrwt>
<rscale>  0 0.44575147E+03</rscale>
<asrwt>0</asrwt>
<pdfrwt beam="1">  1        2 0.15259849E+00 0.44575147E+03</pdfrwt>
<pdfrwt beam="2">  1       -2 0.36350088E-01 0.44575147E+03</pdfrwt>
<totfact> 0.18783378E+02</totfact>
</mgrwt>
</event>
<event>
12    1  0.1338445E-007  0.4914532E+03  0.7818608E-02  0.1016034E+00
          2   -1    0    0  501    0  0.00000000000E+00  0.00000000000E+00  0.15971598486E+04  0.15971598486E+04  0.00000000000E+00 0. -1.
         -2   -1    0    0    0  501 -0.00000000000E+00 -0.00000000000E+00 -0.16382021990E+03  0.16382021990E+03  0.00000000000E+00 0.  1.
         23    2    1    2    0    0  0.15687754222E+03 -0.27183967236E+03  0.31053447804E+03  0.44976609401E+03  0.85735095197E+02 0.  0.
    5000000    2    1    2    0    0 -0.15687754222E+03  0.27183967236E+03  0.11228051507E+04  0.13112139745E+04  0.60006942086E+03 0.  0.
         23    2    4    4    0    0  0.64529804386E+02 -0.15098031511E+03  0.37659563358E+03  0.42067060746E+03  0.90445218482E+02 0.  0.
         23    2    4    4    0    0 -0.22140734660E+03  0.42281998747E+03  0.74620951710E+03  0.89054336705E+03  0.91874317720E+02 0.  0.
          4    1    3    3  502    0  0.14964102615E+03 -0.21555745897E+03  0.28541243804E+03  0.38770828546E+03  0.00000000000E+00 0. -1.
         -4    1    3    3    0  502  0.72365160698E+01 -0.56282213387E+02  0.25122040004E+02  0.62057808554E+02  0.00000000000E+00 0.  1.
         13    1    5    5    0    0  0.26185304070E+02 -0.14467784162E+03  0.31821626185E+03  0.35054092102E+03  0.00000000000E+00 0.  1.
        -13    1    5    5    0    0  0.38344500316E+02 -0.63024734904E+01  0.58379371724E+02  0.70129686435E+02  0.00000000000E+00 0. -1.
          4    1    6    6  503    0 -0.92962311709E+02  0.20294517652E+03  0.26822652431E+03  0.34896160879E+03  0.00000000000E+00 0. -1.
         -4    1    6    6    0  503 -0.12844503489E+03  0.21987481096E+03  0.47798299279E+03  0.54158175826E+03  0.00000000000E+00 0.  1.
<mgrwt>
<rscale>  0 0.49145324E+03</rscale>
<asrwt>0</asrwt>
<pdfrwt beam="1">  1        2 0.24571689E+00 0.49145324E+03</pdfrwt>
<pdfrwt beam="2">  1       -2 0.25203112E-01 0.49145324E+03</pdfrwt>
<totfact> 0.16507640E+02</totfact>
</mgrwt>
</event>
<event>
12    1  0.1338445E-007  0.9678880E+03  0.7818608E-02  0.9344483E-01
          2   -1    0    0  501    0  0.00000000000E+00  0.00000000000E+00  0.37698774927E+03  0.37698774927E+03  0.00000000000E+00 0. -1.
         -2   -1    0    0    0  501 -0.00000000000E+00 -0.00000000000E+00 -0.33932417767E+04  0.33932417767E+04  0.00000000000E+00 0.  1.
         23    2    1    2    0    0 -0.83566209064E+03  0.39503796149E+03 -0.57644459845E+03  0.10930891458E+04  0.90384649835E+02 0.  0.
    5000000    2    1    2    0    0  0.83566209064E+03 -0.39503796149E+03 -0.24398094290E+04  0.26771403801E+04  0.60002037002E+03 0.  0.
         23    2    4    4    0    0  0.30878962999E+03  0.45397142979E+02 -0.13274556849E+04  0.13666317717E+04  0.90176870311E+02 0.  0.
         23    2    4    4    0    0  0.52687246066E+03 -0.44043510447E+03 -0.11123537441E+04  0.13105086084E+04  0.92327079949E+02 0.  0.
          3    1    3    3  502    0 -0.23143051747E+03  0.14250506118E+03 -0.20283590961E+03  0.33913151300E+03  0.00000000000E+00 0. -1.
         -3    1    3    3    0  502 -0.60423157317E+03  0.25253290031E+03 -0.37360868884E+03  0.75395763285E+03  0.00000000000E+00 0.  1.
         13    1    5    5    0    0  0.33756194888E+02 -0.10926184391E+02 -0.27873663612E+03  0.28098571941E+03  0.00000000000E+00 0.  1.
        -13    1    5    5    0    0  0.27503343510E+03  0.56323327370E+02 -0.10487190488E+04  0.10856460523E+04  0.00000000000E+00 0. -1.
          1    1    6    6  503    0  0.22912501177E+03 -0.13311630120E+03 -0.42821465675E+03  0.50357324484E+03  0.00000000000E+00 0. -1.
         -1    1    6    6    0  503  0.29774744889E+03 -0.30731880327E+03 -0.68413908734E+03  0.80693536358E+03  0.00000000000E+00 0.  1.
<mgrwt>
<rscale>  0 0.96788795E+03</rscale>
<asrwt>0</asrwt>
<pdfrwt beam="1">  1        2 0.57998116E-01 0.96788795E+03</pdfrwt>
<pdfrwt beam="2">  1       -2 0.52203719E+00 0.96788795E+03</pdfrwt>
<totfact> 0.10458978E-01</totfact>
</mgrwt>
</event>
<event>
12    1  0.1338445E-007  0.1863575E+04  0.7818608E-02  0.8673203E-01
         -2   -1    0    0    0  501 -0.00000000000E+00  0.00000000000E+00  0.88664965577E+03  0.88664965577E+03  0.00000000000E+00 0.  1.
          2   -1    0    0  501    0  0.00000000000E+00 -0.00000000000E+00 -0.40649919148E+04  0.40649919148E+04  0.00000000000E+00 0. -1.
         23    2    1    2    0    0 -0.10024182421E+04  0.15198180278E+04 -0.19781590735E+04  0.26899873302E+04  0.90715749210E+02 0.  0.
    5000000    2    1    2    0    0  0.10024182421E+04 -0.15198180278E+04 -0.12001831856E+04  0.22616542404E+04  0.59995921067E+03 0.  0.
         23    2    4    4    0    0  0.31201247830E+03 -0.97812243011E+03 -0.56654725889E+03  0.11758603653E+04  0.87158058797E+02 0.  0.
         23    2    4    4    0    0  0.69040576379E+03 -0.54169559766E+03 -0.63363592667E+03  0.10857938751E+04  0.85788183226E+02 0.  0.
          3    1    3    3  502    0 -0.48306497697E+03  0.80529558067E+03 -0.10504292349E+04  0.14089905329E+04  0.00000000000E+00 0. -1.
         -3    1    3    3    0  502 -0.51935326512E+03  0.71452244710E+03 -0.92772983857E+03  0.12809967973E+04  0.00000000000E+00 0.  1.
         13    1    5    5    0    0  0.83893918390E+02 -0.29924752144E+03 -0.21614778277E+03  0.37855928548E+03  0.00000000000E+00 0. -1.
        -13    1    5    5    0    0  0.22811855991E+03 -0.67887490867E+03 -0.35039947611E+03  0.79730107980E+03  0.00000000000E+00 0.  1.
          4    1    6    6  503    0  0.62171294192E+03 -0.49539941256E+03 -0.54129589984E+03  0.96174259098E+03  0.00000000000E+00 0.  1.
         -4    1    6    6    0  503  0.68692821876E+02 -0.46296185103E+02 -0.92340026829E+02  0.12405128410E+03  0.00000000000E+00 0. -1.
<mgrwt>
<rscale>  0 0.18635748E+04</rscale>
<asrwt>0</asrwt>
<pdfrwt beam="1">  1        2 0.62538337E+00 0.18635748E+04</pdfrwt>
<pdfrwt beam="2">  1       -2 0.13640764E+00 0.18635748E+04</pdfrwt>
<totfact> 0.10718633E-01</totfact>
</mgrwt>
</event>
<event>
12    1  0.1338445E-007  0.1018206E+04  0.7818608E-02  0.9288799E-01
          2   -1    0    0  501    0  0.00000000000E+00  0.00000000000E+00  0.48487390291E+03  0.48487390291E+03  0.00000000000E+00 0. -1.
         -2   -1    0    0    0  501 -0.00000000000E+00 -0.00000000000E+00 -0.22425398738E+04  0.22425398738E+04  0.00000000000E+00 0.  1.
         23    2    1    2    0    0  0.78591465587E+03 -0.53223741287E+03 -0.68019174022E+03  0.11714037501E+04  0.92668400090E+02 0.  0.
    5000000    2    1    2    0    0 -0.78591465587E+03  0.53223741287E+03 -0.10774742306E+04  0.15560100266E+04  0.59939801057E+03 0.  0.
         23    2    4    4    0    0 -0.15055723539E+03  0.38370376286E+03 -0.62916730066E+03  0.75864136307E+03  0.98940218209E+02 0.  0.
         23    2    4    4    0    0 -0.63535742048E+03  0.14853365002E+03 -0.44830692997E+03  0.79736866348E+03  0.95270064010E+02 0.  0.
          1    1    3    3  502    0  0.19789860227E+03 -0.88942724864E+02 -0.16788438612E+03  0.27433525510E+03  0.00000000000E+00 0. -1.
         -1    1    3    3    0  502  0.58801605359E+03 -0.44329468801E+03 -0.51230735410E+03  0.89706849502E+03  0.00000000000E+00 0.  1.
         11    1    5    5    0    0 -0.93696286477E+02  0.11182587567E+03 -0.20458889361E+03  0.25127800532E+03  0.00000000000E+00 0. -1.
        -11    1    5    5    0    0 -0.56860948913E+02  0.27187788719E+03 -0.42457840705E+03  0.50736335775E+03  0.00000000000E+00 0.  1.
          3    1    6    6  503    0 -0.27914296655E+03  0.11397810836E+03 -0.20350485556E+03  0.36376645144E+03  0.00000000000E+00 0. -1.
         -3    1    6    6    0  503 -0.35621445393E+03  0.34555541655E+02 -0.24480207441E+03  0.43360221204E+03  0.00000000000E+00 0.  1.
<mgrwt>
<rscale>  0 0.10182060E+04</rscale>
<asrwt>0</asrwt>
<pdfrwt beam="1">  1        2 0.74595986E-01 0.10182060E+04</pdfrwt>
<pdfrwt beam="2">  1       -2 0.34500613E+00 0.10182060E+04</pdfrwt>
<totfact> 0.10799606E+00</totfact>
</mgrwt>
</event>
<event>
12    1  0.1338445E-007  0.7503823E+03  0.7818608E-02  0.9634751E-01
         -1   -1    0    0    0  501 -0.00000000000E+00  0.00000000000E+00  0.39195800336E+03  0.39195800336E+03  0.00000000000E+00 0.  1.
          1   -1    0    0  501    0  0.00000000000E+00 -0.00000000000E+00 -0.15135467416E+04  0.15135467416E+04  0.00000000000E+00 0. -1.
         23    2    1    2    0    0  0.15873646582E+03  0.62319648730E+03 -0.59179164427E+03  0.87866314171E+03  0.90886957364E+02 0.  0.
    5000000    2    1    2    0    0 -0.15873646582E+03 -0.62319648730E+03 -0.52979709399E+03  0.10268416033E+04  0.60012297909E+03 0.  0.
         23    2    4    4    0    0  0.18933413387E+03 -0.37803164516E+03 -0.34797853593E+03  0.55526014826E+03  0.92029515859E+02 0.  0.
         23    2    4    4    0    0 -0.34807059968E+03 -0.24516484214E+03 -0.18181855806E+03  0.47158145501E+03  0.89845080372E+02 0.  0.
          4    1    3    3  502    0  0.13375731641E+03  0.38928785356E+03 -0.33798454738E+03  0.53260642776E+03  0.00000000000E+00 0. -1.
         -4    1    3    3    0  502  0.24979149408E+02  0.23390863374E+03 -0.25380709689E+03  0.34605671396E+03  0.00000000000E+00 0.  1.
         13    1    5    5    0    0  0.97149125287E+02 -0.25881376089E+03 -0.18150425066E+03  0.33070577312E+03  0.00000000000E+00 0. -1.
        -13    1    5    5    0    0  0.92185008579E+02 -0.11921788427E+03 -0.16647428527E+03  0.22455437514E+03  0.00000000000E+00 0.  1.
          2    1    6    6  503    0 -0.85521052428E+02 -0.76104337457E+02 -0.93846355747E+01  0.11486423278E+03  0.00000000000E+00 0. -1.
         -2    1    6    6    0  503 -0.26254954725E+03 -0.16906050469E+03 -0.17243392249E+03  0.35671722223E+03  0.00000000000E+00 0.  1.
<mgrwt>
<rscale>  0 0.75038233E+03</rscale>
<asrwt>0</asrwt>
<pdfrwt beam="1">  1        1 0.23285335E+00 0.75038233E+03</pdfrwt>
<pdfrwt beam="2">  1       -1 0.60301231E-01 0.75038233E+03</pdfrwt>
<totfact> 0.18480330E+01</totfact>
</mgrwt>
</event>
<event>
12    1  0.1368870E-007  0.8007307E+03  0.7818608E-02  0.9558960E-01
          1   -1    0    0  501    0  0.00000000000E+00  0.00000000000E+00  0.14291120046E+04  0.14291120046E+04  0.00000000000E+00 0. -1.
         -1   -1    0    0    0  501 -0.00000000000E+00 -0.00000000000E+00 -0.97058670457E+03  0.97058670457E+03  0.00000000000E+00 0.  1.
         23    2    1    2    0    0 -0.50569802889E+03  0.55622205296E+03 -0.60240263871E+03  0.96767803854E+03  0.91642667579E+02 0.  0.
    5000000    2    1    2    0    0  0.50569802889E+03 -0.55622205296E+03  0.10609279387E+04  0.14320206706E+04  0.60000136772E+03 0.  0.
         23    2    4    4    0    0  0.13807242680E+03  0.39298020185E+02  0.50768110529E+03  0.53513569150E+03  0.89564357955E+02 0.  0.
         23    2    4    4    0    0  0.36762560209E+03 -0.59552007315E+03  0.55324683344E+03  0.89688497911E+03  0.92346446675E+02 0.  0.
          2    1    3    3  502    0 -0.32618025614E+03  0.36952147086E+03 -0.33864443471E+03  0.59801315210E+03  0.00000000000E+00 0. -1.
         -2    1    3    3    0  502 -0.17951777276E+03  0.18670058210E+03 -0.26375820400E+03  0.36966488644E+03  0.00000000000E+00 0.  1.
         11    1    5    5    0    0  0.68881716859E+02  0.41276905053E+02  0.14355318164E+03  0.16448705046E+03  0.00000000000E+00 0.  1.
        -11    1    5    5    0    0  0.69190709939E+02 -0.19788848677E+01  0.36412792365E+03  0.37064864104E+03  0.00000000000E+00 0. -1.
          3    1    6    6  503    0  0.20020902472E+03 -0.33986881653E+03  0.25389153000E+03  0.46910060225E+03  0.00000000000E+00 0. -1.
         -3    1    6    6    0  503  0.16741657738E+03 -0.25565125662E+03  0.29935530343E+03  0.42778437686E+03  0.00000000000E+00 0.  1.
<mgrwt>
<rscale>  0 0.80073073E+03</rscale>
<asrwt>0</asrwt>
<pdfrwt beam="1">  1        1 0.21986339E+00 0.80073073E+03</pdfrwt>
<pdfrwt beam="2">  1       -1 0.14932103E+00 0.80073073E+03</pdfrwt>
<totfact> 0.26802594E+00</totfact>
</mgrwt>
</event>
<event>
12    1  0.1338445E-007  0.5651542E+03  0.7818608E-02  0.9980459E-01
          2   -1    0    0  501    0  0.00000000000E+00  0.00000000000E+00  0.26913539974E+04  0.26913539974E+04  0.00000000000E+00 0.  1.
         -2   -1    0    0    0  501 -0.00000000000E+00 -0.00000000000E+00 -0.13627314785E+03  0.13627314785E+03  0.00000000000E+00 0. -1.
         23    2    1    2    0    0 -0.54778298129E+02  0.42225015167E+03  0.61730988074E+03  0.75539778782E+03  0.90876160004E+02 0.  0.
    5000000    2    1    2    0    0  0.54778298129E+02 -0.42225015167E+03  0.19377709688E+04  0.20722293574E+04  0.59823267189E+03 0.  0.
         23    2    4    4    0    0 -0.22951940061E+03 -0.32332063751E+03  0.90168345903E+03  0.98930131406E+03  0.92025212987E+02 0.  0.
         23    2    4    4    0    0  0.28429769874E+03 -0.98929514164E+02  0.10360875098E+04  0.10829280434E+04  0.92970903583E+02 0.  0.
          4    1    3    3  502    0 -0.34728705616E+02  0.27452434277E+03  0.47250329623E+03  0.54756649159E+03  0.00000000000E+00 0. -1.
         -4    1    3    3    0  502 -0.20049592513E+02  0.14772580890E+03  0.14480658451E+03  0.20783129623E+03  0.00000000000E+00 0.  1.
         11    1    5    5    0    0 -0.99933589698E+02 -0.87658115817E+02  0.22803334579E+03  0.26395051508E+03  0.00000000000E+00 0. -1.
        -11    1    5    5    0    0 -0.12958581091E+03 -0.23566252169E+03  0.67365011324E+03  0.72535079898E+03  0.00000000000E+00 0.  1.
          2    1    6    6  503    0  0.23323191146E+02 -0.17832640887E+02  0.37529570330E+02  0.47649165527E+02  0.00000000000E+00 0. -1.
         -2    1    6    6    0  503  0.26097450759E+03 -0.81096873278E+02  0.99855793946E+03  0.10352788779E+04  0.00000000000E+00 0.  1.
<mgrwt>
<rscale>  0 0.56515425E+03</rscale>
<asrwt>0</asrwt>
<pdfrwt beam="1">  1        2 0.41405442E+00 0.56515425E+03</pdfrwt>
<pdfrwt beam="2">  1       -2 0.20965102E-01 0.56515425E+03</pdfrwt>
<totfact> 0.56797841E+01</totfact>
</mgrwt>
</event>
<event>
12    1  0.1338445E-007  0.1505390E+04  0.7818608E-02  0.8880876E-01
         -1   -1    0    0    0  501 -0.00000000000E+00  0.00000000000E+00  0.73610990847E+03  0.73610990847E+03  0.00000000000E+00 0.  1.
          1   -1    0    0  501    0  0.00000000000E+00 -0.00000000000E+00 -0.32937258006E+04  0.32937258006E+04  0.00000000000E+00 0. -1.
         23    2    1    2    0    0  0.42253128835E+03  0.14035227901E+04 -0.83310505310E+03  0.16883958145E+04  0.90595170469E+02 0.  0.
    5000000    2    1    2    0    0 -0.42253128835E+03 -0.14035227901E+04 -0.17245108390E+04  0.23414398946E+04  0.59999519493E+03 0.  0.
         23    2    4    4    0    0 -0.51884045612E+03 -0.11048814137E+04 -0.11474196736E+04  0.16782377164E+04  0.99757546789E+02 0.  0.
         23    2    4    4    0    0  0.96309167762E+02 -0.29864137645E+03 -0.57709116544E+03  0.66320217820E+03  0.91327916974E+02 0.  0.
          1    1    3    3  502    0  0.38738699073E+03  0.11789952224E+04 -0.71584302697E+03  0.14326652276E+04  0.00000000000E+00 0. -1.
         -1    1    3    3    0  502  0.35144297621E+02  0.22452756770E+03 -0.11726202613E+03  0.25573058692E+03  0.00000000000E+00 0.  1.
         13    1    5    5    0    0 -0.43767463422E+03 -0.92051388717E+03 -0.10059957949E+04  0.14321076919E+04  0.00000000000E+00 0.  1.
        -13    1    5    5    0    0 -0.81165821899E+02 -0.18436752649E+03 -0.14142387868E+03  0.24613002443E+03  0.00000000000E+00 0. -1.
          3    1    6    6  503    0  0.63916279077E+02 -0.88433810223E+02 -0.25332643762E+03  0.27582623791E+03  0.00000000000E+00 0. -1.
         -3    1    6    6    0  503  0.32392888685E+02 -0.21020756623E+03 -0.32376472781E+03  0.38737594029E+03  0.00000000000E+00 0.  1.
<mgrwt>
<rscale>  0 0.15053904E+04</rscale>
<asrwt>0</asrwt>
<pdfrwt beam="1">  1        1 0.50672704E+00 0.15053904E+04</pdfrwt>
<pdfrwt beam="2">  1       -1 0.11324768E+00 0.15053904E+04</pdfrwt>
<totfact> 0.24644510E-01</totfact>
</mgrwt>
</event>
<event>
12    1  0.1338445E-007  0.9231026E+03  0.7818608E-02  0.9397154E-01
         -2   -1    0    0    0  501 -0.00000000000E+00  0.00000000000E+00  0.53716501170E+03  0.53716501170E+03  0.00000000000E+00 0.  1.
          2   -1    0    0  501    0  0.00000000000E+00 -0.00000000000E+00 -0.19531751045E+04  0.19531751045E+04  0.00000000000E+00 0. -1.
         23    2    1    2    0    0 -0.81024084564E+03 -0.33458635264E+03 -0.26242425971E+03  0.92212481315E+03  0.11405886043E+03 0.  0.
    5000000    2    1    2    0    0  0.81024084564E+03  0.33458635264E+03 -0.11535858330E+04  0.15682153030E+04  0.60008391666E+03 0.  0.
         23    2    4    4    0    0  0.47771970465E+03  0.40216571183E+03 -0.42716352604E+03  0.76124025951E+03  0.84051643283E+02 0.  0.
         23    2    4    4    0    0  0.33252114099E+03 -0.67579359189E+02 -0.72642230701E+03  0.80697504348E+03  0.91553665678E+02 0.  0.
          3    1    3    3  502    0 -0.73914967792E+03 -0.28761080553E+03 -0.20444473042E+03  0.81906035774E+03  0.00000000000E+00 0. -1.
         -3    1    3    3    0  502 -0.71091167721E+02 -0.46975547112E+02 -0.57979529285E+02  0.10306445542E+03  0.00000000000E+00 0.  1.
         11    1    5    5    0    0  0.18234233004E+03  0.18173159038E+03 -0.13353629924E+03  0.29001213678E+03  0.00000000000E+00 0. -1.
        -11    1    5    5    0    0  0.29537737461E+03  0.22043412145E+03 -0.29362722680E+03  0.47122812273E+03  0.00000000000E+00 0.  1.
          2    1    6    6  503    0  0.79979504905E+02 -0.34710286150E+02 -0.27716864426E+03  0.29055805363E+03  0.00000000000E+00 0. -1.
         -2    1    6    6    0  503  0.25254163608E+03 -0.32869073038E+02 -0.44925366274E+03  0.51641698985E+03  0.00000000000E+00 0.  1.
<mgrwt>
<rscale>  0 0.92310261E+03</rscale>
<asrwt>0</asrwt>
<pdfrwt beam="1">  1        2 0.30048848E+00 0.92310261E+03</pdfrwt>
<pdfrwt beam="2">  1       -2 0.82640770E-01 0.92310261E+03</pdfrwt>
<totfact> 0.92069228E+00</totfact>
</mgrwt>
</event>
<event>
12    1  0.1338445E-007  0.9964330E+03  0.7818608E-02  0.9312466E-01
         -2   -1    0    0    0  501 -0.00000000000E+00  0.00000000000E+00  0.54384475754E+03  0.54384475754E+03  0.00000000000E+00 0.  1.
          2   -1    0    0  501    0  0.00000000000E+00 -0.00000000000E+00 -0.34204818351E+04  0.34204818351E+04  0.00000000000E+00 0. -1.
         23    2    1    2    0    0  0.95214174863E+03  0.88911484907E+02 -0.98376849619E+02  0.96547829517E+03  0.89393356979E+02 0.  0.
    5000000    2    1    2    0    0 -0.95214174863E+03 -0.88911484907E+02 -0.27782602280E+04  0.29988482975E+04  0.59990170487E+03 0.  0.
         23    2    4    4    0    0 -0.57490419289E+03  0.12668699913E+03 -0.98171116182E+03  0.11482279923E+04  0.90034939932E+02 0.  0.
         23    2    4    4    0    0 -0.37723755574E+03 -0.21559848404E+03 -0.17965490661E+04  0.18506203052E+04  0.91739233833E+02 0.  0.
          1    1    3    3  502    0  0.57584110642E+03  0.66496907461E+02 -0.10155880081E+03  0.58849724601E+03  0.00000000000E+00 0. -1.
         -1    1    3    3    0  502  0.37630064221E+03  0.22414577445E+02  0.31819511879E+01  0.37698104915E+03  0.00000000000E+00 0.  1.
         11    1    5    5    0    0 -0.42883515163E+03  0.57624934779E+02 -0.68033559404E+03  0.80627336611E+03  0.00000000000E+00 0. -1.
        -11    1    5    5    0    0 -0.14606904126E+03  0.69062064353E+02 -0.30137556778E+03  0.34195462623E+03  0.00000000000E+00 0.  1.
          3    1    6    6  503    0 -0.27607453999E+03 -0.19688675094E+03 -0.12974818230E+04  0.13410595159E+04  0.00000000000E+00 0. -1.
         -3    1    6    6    0  503 -0.10116301576E+03 -0.18711733094E+02 -0.49906724316E+03  0.50956078922E+03  0.00000000000E+00 0.  1.
<mgrwt>
<rscale>  0 0.99643297E+03</rscale>
<asrwt>0</asrwt>
<pdfrwt beam="1">  1        2 0.52622798E+00 0.99643297E+03</pdfrwt>
<pdfrwt beam="2">  1       -2 0.83668423E-01 0.99643297E+03</pdfrwt>
<totfact> 0.11910677E+00</totfact>
</mgrwt>
</event>
<event>
12    1  0.1338445E-007  0.1172441E+04  0.7818608E-02  0.9137327E-01
          2   -1    0    0  501    0  0.00000000000E+00  0.00000000000E+00  0.16621493964E+04  0.16621493964E+04  0.00000000000E+00 0. -1.
         -2   -1    0    0    0  501 -0.00000000000E+00 -0.00000000000E+00 -0.94503543432E+03  0.94503543432E+03  0.00000000000E+00 0.  1.
         23    2    1    2    0    0  0.16938470654E+03  0.10873240584E+04 -0.10349890156E+03  0.11090679235E+04  0.91404866330E+02 0.  0.
    5000000    2    1    2    0    0 -0.16938470654E+03 -0.10873240584E+04  0.82061286361E+03  0.14981169072E+04  0.59998667402E+03 0.  0.
         23    2    4    4    0    0 -0.37901796947E+03 -0.68084322581E+03  0.46868397586E+03  0.91384665581E+03  0.90823575070E+02 0.  0.
         23    2    4    4    0    0  0.20963326293E+03 -0.40648083255E+03  0.35192888776E+03  0.58427025140E+03  0.91351039781E+02 0.  0.
          3    1    3    3  502    0  0.85164060980E+02  0.32351696654E+03 -0.71520736233E+01  0.33461514771E+03  0.00000000000E+00 0. -1.
         -3    1    3    3    0  502  0.84220645564E+02  0.76380709183E+03 -0.96346827938E+02  0.77445277578E+03  0.00000000000E+00 0.  1.
         13    1    5    5    0    0 -0.10489626772E+03 -0.11440717164E+03  0.94646409735E+02  0.18179705933E+03  0.00000000000E+00 0.  1.
        -13    1    5    5    0    0 -0.27412170175E+03 -0.56643605417E+03  0.37403756612E+03  0.73204959648E+03  0.00000000000E+00 0. -1.
          4    1    6    6  503    0  0.14394466295E+03 -0.28634573597E+03  0.19145441188E+03  0.37332122674E+03  0.00000000000E+00 0. -1.
         -4    1    6    6    0  503  0.65688599975E+02 -0.12013509658E+03  0.16047447588E+03  0.21094902466E+03  0.00000000000E+00 0.  1.
<mgrwt>
<rscale>  0 0.11724413E+04</rscale>
<asrwt>0</asrwt>
<pdfrwt beam="1">  1        2 0.25571529E+00 0.11724413E+04</pdfrwt>
<pdfrwt beam="2">  1       -2 0.14539007E+00 0.11724413E+04</pdfrwt>
<totfact> 0.32665740E+00</totfact>
</mgrwt>
</event>
<event>
12    1  0.1338445E-007  0.5947649E+03  0.7818608E-02  0.9916327E-01
          2   -1    0    0  501    0  0.00000000000E+00  0.00000000000E+00  0.12103844032E+04  0.12103844032E+04  0.00000000000E+00 0.  1.
         -2   -1    0    0    0  501 -0.00000000000E+00 -0.00000000000E+00 -0.39632877451E+03  0.39632877451E+03  0.00000000000E+00 0. -1.
         23    2    1    2    0    0 -0.50307827382E+03  0.16008860975E+03  0.12140314517E+03  0.54922628499E+03  0.90524449180E+02 0.  0.
    5000000    2    1    2    0    0  0.50307827382E+03 -0.16008860975E+03  0.69265248353E+03  0.10574868927E+04  0.59982910299E+03 0.  0.
         23    2    4    4    0    0  0.44454559098E+03 -0.25876950076E+03  0.73763407608E+03  0.90402391980E+03  0.92589310310E+02 0.  0.
         23    2    4    4    0    0  0.58532682842E+02  0.98680891007E+02 -0.44981592547E+02  0.15346297294E+03  0.91452431261E+02 0.  0.
          2    1    3    3  502    0 -0.14290869051E+03  0.29357318732E+02  0.72633150079E+02  0.16297337352E+03  0.00000000000E+00 0. -1.
         -2    1    3    3    0  502 -0.36016958331E+03  0.13073129102E+03  0.48769995094E+02  0.38625291147E+03  0.00000000000E+00 0.  1.
         11    1    5    5    0    0  0.12350600711E+03 -0.56069361646E+02  0.26572502688E+03  0.29834090738E+03  0.00000000000E+00 0. -1.
        -11    1    5    5    0    0  0.32103958387E+03 -0.20270013911E+03  0.47190904920E+03  0.60568301241E+03  0.00000000000E+00 0.  1.
          1    1    6    6  503    0  0.10182094497E+00  0.85195076937E+02 -0.15321451495E+02  0.86561876006E+02  0.00000000000E+00 0. -1.
         -1    1    6    6    0  503  0.58430861897E+02  0.13485814070E+02 -0.29660141052E+02  0.66901096929E+02  0.00000000000E+00 0.  1.
<mgrwt>
<rscale>  0 0.59476493E+03</rscale>
<asrwt>0</asrwt>
<pdfrwt beam="1">  1        2 0.18621298E+00 0.59476493E+03</pdfrwt>
<pdfrwt beam="2">  1       -2 0.60973658E-01 0.59476493E+03</pdfrwt>
<totfact> 0.48373793E+01</totfact>
</mgrwt>
</event>
<event>
12    1  0.1338445E-007  0.7023927E+03  0.7818608E-02  0.9713149E-01
         -1   -1    0    0    0  501 -0.00000000000E+00  0.00000000000E+00  0.42716279359E+03  0.42716279359E+03  0.00000000000E+00 0.  1.
          1   -1    0    0  501    0  0.00000000000E+00 -0.00000000000E+00 -0.12964878250E+04  0.12964878250E+04  0.00000000000E+00 0. -1.
         23    2    1    2    0    0  0.52509035380E+02 -0.60007609994E+03 -0.53184151531E+03  0.80888229514E+03  0.92664154219E+02 0.  0.
    5000000    2    1    2    0    0 -0.52509035380E+02  0.60007609994E+03 -0.33748351610E+03  0.91476832344E+03  0.60004786260E+03 0.  0.
         23    2    4    4    0    0 -0.86875240025E+02  0.67585249386E+03 -0.37862103329E+03  0.78459448463E+03  0.88942215376E+02 0.  0.
         23    2    4    4    0    0  0.34366204646E+02 -0.75776393925E+02  0.41137517188E+02  0.13017383881E+03  0.91267930246E+02 0.  0.
          2    1    3    3  502    0 -0.14654804005E+02 -0.35451276602E+03 -0.30421335485E+03  0.46737546985E+03  0.00000000000E+00 0. -1.
         -2    1    3    3    0  502  0.67163839385E+02 -0.24556333392E+03 -0.22762816046E+03  0.34150682529E+03  0.00000000000E+00 0.  1.
         13    1    5    5    0    0 -0.34420374348E+02  0.47730741510E+03 -0.29938565551E+03  0.56448109039E+03  0.00000000000E+00 0. -1.
        -13    1    5    5    0    0 -0.52454865677E+02  0.19854507876E+03 -0.79235377781E+02  0.22011339425E+03  0.00000000000E+00 0.  1.
          2    1    6    6  503    0  0.42336615461E+02 -0.78101352427E+01  0.44163487095E+02  0.61674960994E+02  0.00000000000E+00 0. -1.
         -2    1    6    6    0  503 -0.79704108151E+01 -0.67966258683E+02 -0.30259699073E+01  0.68498877814E+02  0.00000000000E+00 0.  1.
<mgrwt>
<rscale>  0 0.70239274E+03</rscale>
<asrwt>0</asrwt>
<pdfrwt beam="1">  1        1 0.19945967E+00 0.70239274E+03</pdfrwt>
<pdfrwt beam="2">  1       -1 0.65717352E-01 0.70239274E+03</pdfrwt>
<totfact> 0.22165355E+01</totfact>
</mgrwt>
</event>
<event>
12    1  0.1338445E-007  0.6951410E+03  0.7818608E-02  0.9725578E-01
         -2   -1    0    0    0  501 -0.00000000000E+00  0.00000000000E+00  0.91479883633E+03  0.91479883633E+03  0.00000000000E+00 0. -1.
          2   -1    0    0  501    0  0.00000000000E+00 -0.00000000000E+00 -0.69270959724E+03  0.69270959724E+03  0.00000000000E+00 0.  1.
         23    2    1    2    0    0  0.50627214592E+03  0.32647269317E+03 -0.22144670616E+03  0.64852031244E+03  0.92973366420E+02 0.  0.
    5000000    2    1    2    0    0 -0.50627214592E+03 -0.32647269317E+03  0.44353594525E+03  0.95898812112E+03  0.60003181300E+03 0.  0.
         23    2    4    4    0    0 -0.58991648931E+03 -0.34206829793E+03  0.46859886020E+03  0.83223125996E+03  0.89508622282E+02 0.  0.
         23    2    4    4    0    0  0.83644343389E+02  0.15595604760E+02 -0.25062914954E+02  0.12675686117E+03  0.90551383632E+02 0.  0.
          3    1    3    3  502    0  0.39626087490E+03  0.20824292894E+03 -0.17301929447E+03  0.47992027952E+03  0.00000000000E+00 0. -1.
         -3    1    3    3    0  502  0.11001127102E+03  0.11822976422E+03 -0.48427411685E+02  0.16860003292E+03  0.00000000000E+00 0.  1.
         13    1    5    5    0    0 -0.14586766680E+03 -0.64704628553E+02  0.15207188145E+03  0.22043121898E+03  0.00000000000E+00 0. -1.
        -13    1    5    5    0    0 -0.44404882251E+03 -0.27736366937E+03  0.31652697875E+03  0.61180004098E+03  0.00000000000E+00 0.  1.
          3    1    6    6  503    0  0.22874973112E+02  0.27826518249E+02  0.27630866460E+02  0.45398725688E+02  0.00000000000E+00 0. -1.
         -3    1    6    6    0  503  0.60769370277E+02 -0.12230913489E+02 -0.52693781414E+02  0.81358135478E+02  0.00000000000E+00 0.  1.
<mgrwt>
<rscale>  0 0.69514101E+03</rscale>
<asrwt>0</asrwt>
<pdfrwt beam="1">  1        2 0.10657071E+00 0.69514101E+03</pdfrwt>
<pdfrwt beam="2">  1       -2 0.14073828E+00 0.69514101E+03</pdfrwt>
<totfact> 0.15009502E+01</totfact>
</mgrwt>
</event>
<event>
12    1  0.1338445E-007  0.1060556E+04  0.7818608E-02  0.9244513E-01
         -1   -1    0    0    0  501 -0.00000000000E+00  0.00000000000E+00  0.14883464240E+04  0.14883464240E+04  0.00000000000E+00 0.  1.
          1   -1    0    0  501    0  0.00000000000E+00 -0.00000000000E+00 -0.89243070221E+03  0.89243070221E+03  0.00000000000E+00 0. -1.
         23    2    1    2    0    0 -0.32697756808E+03 -0.92257266675E+03  0.73152103488E+03  0.12248763010E+04  0.84523800689E+02 0.  0.
    5000000    2    1    2    0    0  0.32697756808E+03  0.92257266675E+03 -0.13560531312E+03  0.11559008252E+04  0.59971931866E+03 0.  0.
         23    2    4    4    0    0  0.24735168048E+03  0.54720951151E+02 -0.64157775107E+02  0.27683231457E+03  0.91338239278E+02 0.  0.
         23    2    4    4    0    0  0.79625887602E+02  0.86785171560E+03 -0.71447538011E+02  0.87906851058E+03  0.90276316716E+02 0.  0.
          1    1    3    3  502    0 -0.19506392027E+03 -0.48676555795E+03  0.43679521916E+03  0.68248128537E+03  0.00000000000E+00 0. -1.
         -1    1    3    3    0  502 -0.13191364781E+03 -0.43580710880E+03  0.29472581572E+03  0.54239501566E+03  0.00000000000E+00 0.  1.
         11    1    5    5    0    0  0.22416305084E+03  0.73695893903E+02 -0.70363003146E+02  0.24623385298E+03  0.00000000000E+00 0.  1.
        -11    1    5    5    0    0  0.23188629635E+02 -0.18974942752E+02  0.62052280388E+01  0.30598461593E+02  0.00000000000E+00 0. -1.
          1    1    6    6  503    0 -0.16802834289E+02  0.19573984800E+03 -0.30794919971E+02  0.19885861920E+03  0.00000000000E+00 0. -1.
         -1    1    6    6    0  503  0.96428721891E+02  0.67211186760E+03 -0.40652618039E+02  0.68020989137E+03  0.00000000000E+00 0.  1.
<mgrwt>
<rscale>  0 0.10605562E+04</rscale>
<asrwt>0</asrwt>
<pdfrwt beam="1">  1        1 0.13729703E+00 0.10605562E+04</pdfrwt>
<pdfrwt beam="2">  1       -1 0.22897637E+00 0.10605562E+04</pdfrwt>
<totfact> 0.17668834E+00</totfact>
</mgrwt>
</event>
<event>
12    1  0.1338445E-007  0.1108807E+04  0.7818608E-02  0.9196650E-01
          2   -1    0    0  501    0  0.00000000000E+00  0.00000000000E+00  0.15385550752E+04  0.15385550752E+04  0.00000000000E+00 0. -1.
         -2   -1    0    0    0  501 -0.00000000000E+00 -0.00000000000E+00 -0.10417175752E+04  0.10417175752E+04  0.00000000000E+00 0.  1.
         23    2    1    2    0    0  0.10208394032E+04 -0.12132330960E+03 -0.38206392733E+03  0.11006574111E+04  0.92959451045E+02 0.  0.
    5000000    2    1    2    0    0 -0.10208394032E+04  0.12132330960E+03  0.87890142734E+03  0.14796152393E+04  0.59996758647E+03 0.  0.
         23    2    4    4    0    0 -0.66208088456E+03 -0.20123946107E+03  0.48327150000E+03  0.84902484896E+03  0.91888155125E+02 0.  0.
         23    2    4    4    0    0 -0.35875851865E+03  0.32256277068E+03  0.39562992733E+03  0.63059039034E+03  0.91470133143E+02 0.  0.
          2    1    3    3  502    0  0.28099379901E+03 -0.12032459581E+01 -0.13249556712E+03  0.31066708578E+03  0.00000000000E+00 0.  1.
         -2    1    3    3    0  502  0.73984560420E+03 -0.12012006365E+03 -0.24956836021E+03  0.78999032536E+03  0.00000000000E+00 0. -1.
         11    1    5    5    0    0 -0.46197384947E+03 -0.99741157712E+02  0.34937512421E+03  0.58773387987E+03  0.00000000000E+00 0. -1.
        -11    1    5    5    0    0 -0.20010703509E+03 -0.10149830336E+03  0.13389637580E+03  0.26129096909E+03  0.00000000000E+00 0.  1.
          3    1    6    6  503    0  0.45996461410E+01  0.91444874192E+01  0.32678394218E+01  0.10745099779E+02  0.00000000000E+00 0. -1.
         -3    1    6    6    0  503 -0.36335816479E+03  0.31341828326E+03  0.39236208791E+03  0.61984529056E+03  0.00000000000E+00 0.  1.
<mgrwt>
<rscale>  0 0.11088075E+04</rscale>
<asrwt>0</asrwt>
<pdfrwt beam="1">  1        2 0.23670078E+00 0.11088075E+04</pdfrwt>
<pdfrwt beam="2">  1       -2 0.16026424E+00 0.11088075E+04</pdfrwt>
<totfact> 0.29687888E+00</totfact>
</mgrwt>
</event>
<event>
12    1  0.1338445E-007  0.1470160E+04  0.7818608E-02  0.8904543E-01
          1   -1    0    0  501    0  0.00000000000E+00  0.00000000000E+00  0.17260658197E+04  0.17260658197E+04  0.00000000000E+00 0. -1.
         -1   -1    0    0    0  501 -0.00000000000E+00 -0.00000000000E+00 -0.18298081941E+04  0.18298081941E+04  0.00000000000E+00 0.  1.
         23    2    1    2    0    0 -0.32614922879E+03  0.13831977833E+04  0.92832490272E+03  0.16999066132E+04  0.91027146552E+02 0.  0.
    5000000    2    1    2    0    0  0.32614922879E+03 -0.13831977833E+04 -0.10320672771E+04  0.18559674005E+04  0.59986890236E+03 0.  0.
         23    2    4    4    0    0  0.46041011905E+03 -0.12024964359E+04 -0.93305233068E+03  0.15927774776E+04  0.91532973487E+02 0.  0.
         23    2    4    4    0    0 -0.13426089026E+03 -0.18070134746E+03 -0.99014946464E+02  0.26318992296E+03  0.93733730859E+02 0.  0.
          3    1    3    3  502    0 -0.31083229475E+03  0.12214239675E+04  0.84383471049E+03  0.15167564875E+04  0.00000000000E+00 0. -1.
         -3    1    3    3    0  502 -0.15316934041E+02  0.16177381583E+03  0.84490192235E+02  0.18315012569E+03  0.00000000000E+00 0.  1.
         11    1    5    5    0    0  0.20661723860E+03 -0.65803579574E+03 -0.51978155114E+03  0.86364034914E+03  0.00000000000E+00 0.  1.
        -11    1    5    5    0    0  0.25379288044E+03 -0.54446064014E+03 -0.41327077954E+03  0.72913712842E+03  0.00000000000E+00 0. -1.
          3    1    6    6  503    0 -0.81959690591E+02 -0.85568588114E+02 -0.99349548608E+02  0.15462763971E+03  0.00000000000E+00 0. -1.
         -3    1    6    6    0  503 -0.52301199667E+02 -0.95132759342E+02  0.33460214350E+00  0.10856228325E+03  0.00000000000E+00 0.  1.
<mgrwt>
<rscale>  0 0.14701596E+04</rscale>
<asrwt>0</asrwt>
<pdfrwt beam="1">  1        1 0.26554859E+00 0.14701596E+04</pdfrwt>
<pdfrwt beam="2">  1       -1 0.28150895E+00 0.14701596E+04</pdfrwt>
<totfact> 0.18864605E-01</totfact>
</mgrwt>
</event>
<event>
12    1  0.1338445E-007  0.5218966E+03  0.7818608E-02  0.1008216E+00
         -2   -1    0    0    0  501 -0.00000000000E+00  0.00000000000E+00  0.34747976393E+03  0.34747976393E+03  0.00000000000E+00 0.  1.
          2   -1    0    0  501    0  0.00000000000E+00 -0.00000000000E+00 -0.13468941892E+04  0.13468941892E+04  0.00000000000E+00 0. -1.
         23    2    1    2    0    0 -0.32339478002E+03  0.33572749844E+03 -0.47607443974E+02  0.47661374270E+03  0.87161081060E+02 0.  0.
    5000000    2    1    2    0    0  0.32339478002E+03 -0.33572749844E+03 -0.95180698130E+03  0.12177602104E+04  0.59975516964E+03 0.  0.
         23    2    4    4    0    0  0.15350905035E+03 -0.36380060659E+03 -0.94151543754E+03  0.10254034209E+04  0.95314986320E+02 0.  0.
         23    2    4    4    0    0  0.16988572967E+03  0.28073108144E+02 -0.10291543762E+02  0.19235678952E+03  0.85123193390E+02 0.  0.
          3    1    3    3  502    0 -0.17949962752E+03  0.20094986149E+03 -0.69445747237E+02  0.27825110049E+03  0.00000000000E+00 0. -1.
         -3    1    3    3    0  502 -0.14389515250E+03  0.13477763695E+03  0.21838303263E+02  0.19836264221E+03  0.00000000000E+00 0.  1.
         13    1    5    5    0    0 -0.44277061913E+01 -0.57262419021E+01 -0.66046149025E+02  0.66441615193E+02  0.00000000000E+00 0. -1.
        -13    1    5    5    0    0  0.15793675654E+03 -0.35807436469E+03 -0.87546928851E+03  0.95896180573E+03  0.00000000000E+00 0.  1.
          4    1    6    6  503    0  0.11032684809E+03 -0.50536391053E+01  0.28335809397E+02  0.11401960696E+03  0.00000000000E+00 0.  1.
         -4    1    6    6    0  503  0.59558881588E+02  0.33126747249E+02 -0.38627353159E+02  0.78337182560E+02  0.00000000000E+00 0. -1.
<mgrwt>
<rscale>  0 0.52189665E+03</rscale>
<asrwt>0</asrwt>
<pdfrwt beam="1">  1        2 0.20721449E+00 0.52189665E+03</pdfrwt>
<pdfrwt beam="2">  1       -2 0.53458425E-01 0.52189665E+03</pdfrwt>
<totfact> 0.53620157E+01</totfact>
</mgrwt>
</event>
<event>
12    1  0.1338445E-007  0.1682754E+04  0.7818608E-02  0.8771262E-01
         -1   -1    0    0    0  501 -0.00000000000E+00  0.00000000000E+00  0.23876540358E+04  0.23876540358E+04  0.00000000000E+00 0.  1.
          1   -1    0    0  501    0  0.00000000000E+00 -0.00000000000E+00 -0.11923260658E+04  0.11923260658E+04  0.00000000000E+00 0. -1.
         23    2    1    2    0    0 -0.11945044062E+04 -0.11129289581E+04  0.59536249200E+03  0.17399994552E+04  0.87692444616E+02 0.  0.
    5000000    2    1    2    0    0  0.11945044062E+04  0.11129289581E+04  0.59996547793E+03  0.18399806464E+04  0.60009879373E+03 0.  0.
         23    2    4    4    0    0  0.76175546185E+03  0.32481699714E+03  0.33984268777E+03  0.89987168804E+03  0.92187511113E+02 0.  0.
         23    2    4    4    0    0  0.43274894434E+03  0.78811196099E+03  0.26012279016E+03  0.94010895839E+03  0.88027699022E+02 0.  0.
          1    1    3    3  502    0 -0.24469305043E+03 -0.19131759226E+03  0.13629624024E+03  0.33919577701E+03  0.00000000000E+00 0. -1.
         -1    1    3    3    0  502 -0.94981135576E+03 -0.92161136587E+03  0.45906625175E+03  0.14008036782E+04  0.00000000000E+00 0.  1.
         13    1    5    5    0    0  0.62829938561E+03  0.26958138390E+03  0.31713066482E+03  0.75366179356E+03  0.00000000000E+00 0.  1.
        -13    1    5    5    0    0  0.13345607624E+03  0.55235613247E+02  0.22712022948E+02  0.14620989448E+03  0.00000000000E+00 0. -1.
          4    1    6    6  503    0  0.37300698704E+03  0.60529663841E+03  0.19967238927E+03  0.73850341630E+03  0.00000000000E+00 0. -1.
         -4    1    6    6    0  503  0.59741957301E+02  0.18281532258E+03  0.60450400888E+02  0.20160554208E+03  0.00000000000E+00 0.  1.
<mgrwt>
<rscale>  0 0.16827538E+04</rscale>
<asrwt>0</asrwt>
<pdfrwt beam="1">  1        1 0.18343478E+00 0.16827538E+04</pdfrwt>
<pdfrwt beam="2">  1       -1 0.36733139E+00 0.16827538E+04</pdfrwt>
<totfact> 0.11993372E-01</totfact>
</mgrwt>
</event>
<event>
12    1  0.1338445E-007  0.1923199E+04  0.7818608E-02  0.8643394E-01
         -1   -1    0    0    0  501 -0.00000000000E+00  0.00000000000E+00  0.46439817097E+04  0.46439817097E+04  0.00000000000E+00 0.  1.
          1   -1    0    0  501    0  0.00000000000E+00 -0.00000000000E+00 -0.85983193564E+03  0.85983193564E+03  0.00000000000E+00 0. -1.
         23    2    1    2    0    0  0.71270423687E+03  0.17821362996E+04  0.23411091435E+04  0.30286739608E+04  0.90093394701E+02 0.  0.
    5000000    2    1    2    0    0 -0.71270423687E+03 -0.17821362996E+04  0.14430406305E+04  0.24751396844E+04  0.59999423037E+03 0.  0.
         23    2    4    4    0    0 -0.63426829220E+03 -0.14322761293E+04  0.87149896968E+03  0.17947045784E+04  0.87993707614E+02 0.  0.
         23    2    4    4    0    0 -0.78435944671E+02 -0.34986017028E+03  0.57154166085E+03  0.68043510600E+03  0.88191423733E+02 0.  0.
          3    1    3    3  502    0  0.41315726850E+03  0.10422127063E+04  0.14368157072E+04  0.18224559337E+04  0.00000000000E+00 0. -1.
         -3    1    3    3    0  502  0.29954696837E+03  0.73992359331E+03  0.90429343627E+03  0.12062180272E+04  0.00000000000E+00 0.  1.
         11    1    5    5    0    0 -0.36105790292E+03 -0.84121824521E+03  0.55718084579E+03  0.10716629322E+04  0.00000000000E+00 0.  1.
        -11    1    5    5    0    0 -0.27321038928E+03 -0.59105788414E+03  0.31431812389E+03  0.72304164625E+03  0.00000000000E+00 0. -1.
          3    1    6    6  503    0 -0.75712832676E+02 -0.26667675993E+03  0.36955830286E+03  0.46197647833E+03  0.00000000000E+00 0. -1.
         -3    1    6    6    0  503 -0.27231119952E+01 -0.83183410349E+02  0.20198335799E+03  0.21845862766E+03  0.00000000000E+00 0.  1.
<mgrwt>
<rscale>  0 0.19231987E+04</rscale>
<asrwt>0</asrwt>
<pdfrwt beam="1">  1        1 0.13228184E+00 0.19231987E+04</pdfrwt>
<pdfrwt beam="2">  1       -1 0.71445871E+00 0.19231987E+04</pdfrwt>
<totfact> 0.31320080E-03</totfact>
</mgrwt>
</event>
<event>
12    1  0.1338445E-007  0.5473131E+03  0.7818608E-02  0.1002118E+00
          2   -1    0    0  501    0  0.00000000000E+00  0.00000000000E+00  0.14569820418E+04  0.14569820418E+04  0.00000000000E+00 0. -1.
         -2   -1    0    0    0  501 -0.00000000000E+00 -0.00000000000E+00 -0.26165051006E+03  0.26165051006E+03  0.00000000000E+00 0.  1.
         23    2    1    2    0    0  0.39624268446E+03 -0.36897646115E+02  0.11884647618E+03  0.42360436112E+03  0.83345477306E+02 0.  0.
    5000000    2    1    2    0    0 -0.39624268446E+03  0.36897646115E+02  0.10764850555E+04  0.12950281907E+04  0.59992352736E+03 0.  0.
         23    2    4    4    0    0 -0.47031942571E+03 -0.12975270417E+03  0.61068928644E+03  0.78656566384E+03  0.87795287581E+02 0.  0.
         23    2    4    4    0    0  0.74076741245E+02  0.16665035029E+03  0.46579576909E+03  0.50846252687E+03  0.91152289542E+02 0.  0.
          1    1    3    3  502    0  0.32468655132E+03 -0.59722386293E+01  0.71898146881E+02  0.33260542354E+03  0.00000000000E+00 0. -1.
         -1    1    3    3    0  502  0.71556133140E+02 -0.30925407485E+02  0.46948329297E+02  0.90998937587E+02  0.00000000000E+00 0.  1.
         13    1    5    5    0    0 -0.28524660714E+03 -0.11644530087E+03  0.34567388763E+03  0.46305029053E+03  0.00000000000E+00 0. -1.
        -13    1    5    5    0    0 -0.18507281857E+03 -0.13307403302E+02  0.26501539881E+03  0.32351537330E+03  0.00000000000E+00 0.  1.
          2    1    6    6  503    0  0.18524900168E+02  0.13093637582E+03  0.36241660799E+03  0.38578919657E+03  0.00000000000E+00 0.  1.
         -2    1    6    6    0  503  0.55551841077E+02  0.35713974466E+02  0.10337916109E+03  0.12267333030E+03  0.00000000000E+00 0. -1.
<mgrwt>
<rscale>  0 0.54731311E+03</rscale>
<asrwt>0</asrwt>
<pdfrwt beam="1">  1        2 0.22415108E+00 0.54731311E+03</pdfrwt>
<pdfrwt beam="2">  1       -2 0.40253925E-01 0.54731311E+03</pdfrwt>
<totfact> 0.81707467E+01</totfact>
</mgrwt>
</event>
<event>
12    1  0.1338445E-007  0.3850609E+03  0.7818608E-02  0.1049079E+00
          2   -1    0    0  501    0  0.00000000000E+00  0.00000000000E+00  0.18887563470E+03  0.18887563470E+03  0.00000000000E+00 0. -1.
         -2   -1    0    0    0  501 -0.00000000000E+00 -0.00000000000E+00 -0.11645205540E+04  0.11645205540E+04  0.00000000000E+00 0.  1.
         23    2    1    2    0    0  0.23736663087E+03 -0.17614410987E+02 -0.11995129470E+03  0.28201193370E+03  0.92137032320E+02 0.  0.
    5000000    2    1    2    0    0 -0.23736663087E+03  0.17614410987E+02 -0.85569362462E+03  0.10713842550E+04  0.59916563468E+03 0.  0.
         23    2    4    4    0    0  0.64719700966E+01  0.20648286381E+03 -0.93083548538E+02  0.24372738989E+03  0.89785489538E+02 0.  0.
         23    2    4    4    0    0 -0.24383860096E+03 -0.18886845282E+03 -0.76261007608E+03  0.82765686513E+03  0.91176764993E+02 0.  0.
          1    1    3    3  502    0  0.40995864277E+02 -0.38945822143E+02 -0.15812025635E+02  0.58715058588E+02  0.00000000000E+00 0. -1.
         -1    1    3    3    0  502  0.19637076659E+03  0.21331411156E+02 -0.10413926907E+03  0.22329687511E+03  0.00000000000E+00 0.  1.
         13    1    5    5    0    0  0.44540386228E+01  0.48237676520E+02  0.16563886380E+02  0.51196427884E+02  0.00000000000E+00 0. -1.
        -13    1    5    5    0    0  0.20179314738E+01  0.15824518729E+03 -0.10964743492E+03  0.19253096201E+03  0.00000000000E+00 0.  1.
          1    1    6    6  503    0 -0.10536991440E+03 -0.66825686883E+02 -0.20185171034E+03  0.23730276917E+03  0.00000000000E+00 0. -1.
         -1    1    6    6    0  503 -0.13846868657E+03 -0.12204276594E+03 -0.56075836574E+03  0.59035409596E+03  0.00000000000E+00 0.  1.
<mgrwt>
<rscale>  0 0.38506088E+03</rscale>
<asrwt>0</asrwt>
<pdfrwt beam="1">  1        2 0.29057789E-01 0.38506088E+03</pdfrwt>
<pdfrwt beam="2">  1       -2 0.17915702E+00 0.38506088E+03</pdfrwt>
<totfact> 0.35479430E+01</totfact>
</mgrwt>
</event>
<event>
12    1  0.1338445E-007  0.1127126E+04  0.7818608E-02  0.9179149E-01
         -2   -1    0    0    0  501 -0.00000000000E+00  0.00000000000E+00  0.94444292279E+03  0.94444292279E+03  0.00000000000E+00 0.  1.
          2   -1    0    0  501    0  0.00000000000E+00 -0.00000000000E+00 -0.15815555299E+04  0.15815555299E+04  0.00000000000E+00 0. -1.
         23    2    1    2    0    0 -0.70885886511E+03  0.83047867527E+03 -0.66165650907E+03  0.12799756268E+04  0.91501630613E+02 0.  0.
    5000000    2    1    2    0    0  0.70885886511E+03 -0.83047867527E+03  0.24543901998E+02  0.12460228259E+04  0.59982894128E+03 0.  0.
         23    2    4    4    0    0  0.16520340662E+03 -0.46175913449E+03  0.23319976477E+03  0.55078982158E+03  0.92052340641E+02 0.  0.
         23    2    4    4    0    0  0.54365545849E+03 -0.36871954077E+03 -0.20865586277E+03  0.69523300431E+03  0.91084048686E+02 0.  0.
          1    1    3    3  502    0 -0.28905861333E+03  0.40250652164E+03 -0.27743052692E+03  0.56792083882E+03  0.00000000000E+00 0. -1.
         -1    1    3    3    0  502 -0.41980025177E+03  0.42797215363E+03 -0.38422598215E+03  0.71205478794E+03  0.00000000000E+00 0.  1.
         11    1    5    5    0    0 -0.11661577126E+02 -0.32370290231E+02  0.20036280025E+02  0.39815582225E+02  0.00000000000E+00 0. -1.
        -11    1    5    5    0    0  0.17686498374E+03 -0.42938884426E+03  0.21316348474E+03  0.51097423935E+03  0.00000000000E+00 0.  1.
          1    1    6    6  503    0  0.58646595136E+02 -0.16236358442E+02 -0.38429925368E+02  0.71971533402E+02  0.00000000000E+00 0. -1.
         -1    1    6    6    0  503  0.48500886335E+03 -0.35248318233E+03 -0.17022593740E+03  0.62326147091E+03  0.00000000000E+00 0.  1.
<mgrwt>
<rscale>  0 0.11271260E+04</rscale>
<asrwt>0</asrwt>
<pdfrwt beam="1">  1        2 0.24331623E+00 0.11271260E+04</pdfrwt>
<pdfrwt beam="2">  1       -2 0.14529891E+00 0.11271260E+04</pdfrwt>
<totfact> 0.36459660E+00</totfact>
</mgrwt>
</event>
<event>
12    1  0.1338445E-007  0.5469244E+03  0.7818608E-02  0.1002208E+00
          1   -1    0    0  501    0  0.00000000000E+00  0.00000000000E+00  0.20098411443E+04  0.20098411443E+04  0.00000000000E+00 0.  1.
         -1   -1    0    0    0  501 -0.00000000000E+00 -0.00000000000E+00 -0.15815560743E+03  0.15815560743E+03  0.00000000000E+00 0. -1.
         23    2    1    2    0    0 -0.18482261738E+03  0.33802880332E+03  0.85728966997E+03  0.94441892492E+03  0.92513003059E+02 0.  0.
    5000000    2    1    2    0    0  0.18482261738E+03 -0.33802880332E+03  0.99439586694E+03  0.12235778269E+04  0.59991389916E+03 0.  0.
         23    2    4    4    0    0 -0.16046612421E+03  0.40851816714E+02  0.31153296074E+03  0.36453070354E+03  0.91714776602E+02 0.  0.
         23    2    4    4    0    0  0.34528874158E+03 -0.37888062004E+03  0.68286290620E+03  0.85904712331E+03  0.94262251762E+02 0.  0.
          1    1    3    3  502    0 -0.14312354702E+03  0.18389316364E+03  0.56889795504E+03  0.61477307081E+03  0.00000000000E+00 0.  1.
         -1    1    3    3    0  502 -0.41699070354E+02  0.15413563969E+03  0.28839171493E+03  0.32964585411E+03  0.00000000000E+00 0. -1.
         13    1    5    5    0    0 -0.27639777596E+02  0.45352147743E+02  0.12184957738E+03  0.13292138322E+03  0.00000000000E+00 0.  1.
        -13    1    5    5    0    0 -0.13282634661E+03 -0.45003310283E+01  0.18968338337E+03  0.23160932032E+03  0.00000000000E+00 0. -1.
          1    1    6    6  503    0  0.47497740293E+02 -0.81195240337E+02  0.78792727440E+02  0.12270695287E+03  0.00000000000E+00 0. -1.
         -1    1    6    6    0  503  0.29779100129E+03 -0.29768537970E+03  0.60407017876E+03  0.73634017044E+03  0.00000000000E+00 0.  1.
<mgrwt>
<rscale>  0 0.54692444E+03</rscale>
<asrwt>0</asrwt>
<pdfrwt beam="1">  1        1 0.30920631E+00 0.54692444E+03</pdfrwt>
<pdfrwt beam="2">  1       -1 0.24331633E-01 0.54692444E+03</pdfrwt>
<totfact> 0.45833695E+01</totfact>
</mgrwt>
</event>
<event>
12    1  0.1338445E-007  0.1272007E+04  0.7818608E-02  0.9052063E-01
          1   -1    0    0  501    0  0.00000000000E+00  0.00000000000E+00  0.14175521996E+04  0.14175521996E+04  0.00000000000E+00 0. -1.
         -1   -1    0    0    0  501 -0.00000000000E+00 -0.00000000000E+00 -0.15510577047E+04  0.15510577047E+04  0.00000000000E+00 0.  1.
         23    2    1    2    0    0 -0.79464357546E+03 -0.91512365372E+03 -0.80595187698E+03  0.14583583846E+04  0.91329274492E+02 0.  0.
    5000000    2    1    2    0    0  0.79464357546E+03  0.91512365372E+03  0.67244637187E+03  0.15102515197E+04  0.59980481494E+03 0.  0.
         23    2    4    4    0    0  0.84873882570E+03  0.87240203194E+03  0.67761547276E+03  0.13961691413E+04  0.93180699164E+02 0.  0.
         23    2    4    4    0    0 -0.54095250236E+02  0.42721621788E+02 -0.51691008963E+01  0.11408237835E+03  0.90755916497E+02 0.  0.
          3    1    3    3  502    0 -0.41039994355E+03 -0.53535598016E+03 -0.47050039461E+03  0.82243830194E+03  0.00000000000E+00 0.  1.
         -3    1    3    3    0  502 -0.38424363192E+03 -0.37976767356E+03 -0.33545148237E+03  0.63592008269E+03  0.00000000000E+00 0. -1.
         11    1    5    5    0    0  0.43056234354E+03  0.46569533323E+03  0.40284182316E+03  0.75135717841E+03  0.00000000000E+00 0.  1.
        -11    1    5    5    0    0  0.41817648216E+03  0.40670669870E+03  0.27477364961E+03  0.64481196292E+03  0.00000000000E+00 0. -1.
          2    1    6    6  503    0 -0.78255131699E+02  0.26884145035E+02  0.63380725569E+01  0.82986710112E+02  0.00000000000E+00 0.  1.
         -2    1    6    6    0  503  0.24159881463E+02  0.15837476753E+02 -0.11507173453E+02  0.31095668236E+02  0.00000000000E+00 0. -1.
<mgrwt>
<rscale>  0 0.12720075E+04</rscale>
<asrwt>0</asrwt>
<pdfrwt beam="1">  1        1 0.21808495E+00 0.12720075E+04</pdfrwt>
<pdfrwt beam="2">  1       -1 0.23862426E+00 0.12720075E+04</pdfrwt>
<totfact> 0.60057241E-01</totfact>
</mgrwt>
</event>
<event>
12    1  0.1338445E-007  0.7393662E+03  0.7818608E-02  0.9652182E-01
         -1   -1    0    0    0  501 -0.00000000000E+00  0.00000000000E+00  0.13229868175E+04  0.13229868175E+04  0.00000000000E+00 0.  1.
          1   -1    0    0  501    0  0.00000000000E+00 -0.00000000000E+00 -0.73716155097E+03  0.73716155097E+03  0.00000000000E+00 0. -1.
         23    2    1    2    0    0  0.61625161891E+03  0.12923230577E+03 -0.39530547383E+03  0.74913748517E+03  0.92051656091E+02 0.  0.
    5000000    2    1    2    0    0 -0.61625161891E+03 -0.12923230577E+03  0.98113074035E+03  0.13110108833E+04  0.59972073482E+03 0.  0.
         23    2    4    4    0    0 -0.67367994785E+03  0.72629557475E+00  0.65628830805E+03  0.94472909596E+03  0.89182519694E+02 0.  0.
         23    2    4    4    0    0  0.57428328943E+02 -0.12995860134E+03  0.32484243230E+03  0.36628178733E+03  0.91937429158E+02 0.  0.
          3    1    3    3  502    0  0.18974893780E+03  0.66388962114E+02 -0.16678609075E+03  0.26120825744E+03  0.00000000000E+00 0. -1.
         -3    1    3    3    0  502  0.42650268111E+03  0.62843343655E+02 -0.22851938309E+03  0.48792922774E+03  0.00000000000E+00 0.  1.
         11    1    5    5    0    0 -0.42542994671E+03 -0.33735914428E+02  0.37656515260E+03  0.56914854443E+03  0.00000000000E+00 0. -1.
        -11    1    5    5    0    0 -0.24825000114E+03  0.34462210003E+02  0.27972315546E+03  0.37558055152E+03  0.00000000000E+00 0.  1.
          2    1    6    6  503    0 -0.22738293726E+02 -0.54725074712E+02  0.11718776141E+03  0.13131959195E+03  0.00000000000E+00 0. -1.
         -2    1    6    6    0  503  0.80166622669E+02 -0.75233526631E+02  0.20765467088E+03  0.23496219538E+03  0.00000000000E+00 0.  1.
<mgrwt>
<rscale>  0 0.73936616E+03</rscale>
<asrwt>0</asrwt>
<pdfrwt beam="1">  1        1 0.11340947E+00 0.73936616E+03</pdfrwt>
<pdfrwt beam="2">  1       -1 0.20353643E+00 0.73936616E+03</pdfrwt>
<totfact> 0.37247189E+00</totfact>
</mgrwt>
</event>
<event>
12    1  0.1338445E-007  0.5482076E+03  0.7818608E-02  0.1001910E+00
         -2   -1    0    0    0  501 -0.00000000000E+00  0.00000000000E+00  0.35177656291E+03  0.35177656291E+03  0.00000000000E+00 0.  1.
          2   -1    0    0  501    0  0.00000000000E+00 -0.00000000000E+00 -0.18994606587E+04  0.18994606587E+04  0.00000000000E+00 0. -1.
         23    2    1    2    0    0  0.23106278515E+03 -0.33073317334E+03  0.12183877930E+03  0.43189354522E+03  0.94408175678E+02 0.  0.
    5000000    2    1    2    0    0 -0.23106278515E+03  0.33073317334E+03 -0.16695228751E+04  0.18193436764E+04  0.59994194698E+03 0.  0.
         23    2    4    4    0    0  0.17147494864E+03  0.61104214772E+02 -0.73360920556E+03  0.76155223555E+03  0.92962131607E+02 0.  0.
         23    2    4    4    0    0 -0.40253773380E+03  0.26962895856E+03 -0.93591366954E+03  0.10577914408E+04  0.90840151260E+02 0.  0.
          1    1    3    3  502    0  0.12046797845E+03 -0.23930140948E+03  0.54577217761E+02  0.27341611348E+03  0.00000000000E+00 0. -1.
         -1    1    3    3    0  502  0.11059480670E+03 -0.91431763857E+02  0.67261561539E+02  0.15847743174E+03  0.00000000000E+00 0.  1.
         11    1    5    5    0    0  0.36625810655E+02 -0.21123927522E+02 -0.22663032120E+03  0.23054060988E+03  0.00000000000E+00 0.  1.
        -11    1    5    5    0    0  0.13484913799E+03  0.82228142294E+02 -0.50697888436E+03  0.53101162566E+03  0.00000000000E+00 0. -1.
          2    1    6    6  503    0 -0.21884499876E+03  0.13657115054E+03 -0.59265028557E+03  0.64635839411E+03  0.00000000000E+00 0.  1.
         -2    1    6    6    0  503 -0.18369273504E+03  0.13305780802E+03 -0.34326338396E+03  0.41143304674E+03  0.00000000000E+00 0. -1.
<mgrwt>
<rscale>  0 0.54820765E+03</rscale>
<asrwt>0</asrwt>
<pdfrwt beam="1">  1        2 0.29222471E+00 0.54820765E+03</pdfrwt>
<pdfrwt beam="2">  1       -2 0.54119472E-01 0.54820765E+03</pdfrwt>
<totfact> 0.25982932E+01</totfact>
</mgrwt>
</event>
<event>
12    1  0.1338445E-007  0.6080271E+03  0.7818608E-02  0.9888891E-01
          1   -1    0    0  501    0  0.00000000000E+00  0.00000000000E+00  0.10394085278E+04  0.10394085278E+04  0.00000000000E+00 0. -1.
         -1   -1    0    0    0  501 -0.00000000000E+00 -0.00000000000E+00 -0.48749943521E+03  0.48749943521E+03  0.00000000000E+00 0.  1.
         23    2    1    2    0    0  0.31657478816E+03  0.44328797076E+03  0.44606855273E+03  0.70961794354E+03  0.88637748931E+02 0.  0.
    5000000    2    1    2    0    0 -0.31657478816E+03 -0.44328797076E+03  0.10584053983E+03  0.81729001945E+03  0.60003077796E+03 0.  0.
         23    2    4    4    0    0 -0.35723558400E+03 -0.21185642401E+03 -0.15649004514E+03  0.45364049538E+03  0.93809157049E+02 0.  0.
         23    2    4    4    0    0  0.40660795838E+02 -0.23143154675E+03  0.26233058498E+03  0.36364952407E+03  0.90607832955E+02 0.  0.
          3    1    3    3  502    0  0.26013516569E+03  0.31240453673E+03  0.36065686255E+03  0.54345217959E+03  0.00000000000E+00 0. -1.
         -3    1    3    3    0  502  0.56439622469E+02  0.13088343404E+03  0.85411690185E+02  0.16616576395E+03  0.00000000000E+00 0.  1.
         13    1    5    5    0    0 -0.27396470712E+03 -0.20513373215E+03 -0.12592176646E+03  0.36468177920E+03  0.00000000000E+00 0. -1.
        -13    1    5    5    0    0 -0.83270876875E+02 -0.67226918637E+01 -0.30568278689E+02  0.88958716175E+02  0.00000000000E+00 0.  1.
          4    1    6    6  503    0 -0.10209036334E+02 -0.95736115096E+02  0.15822231702E+03  0.18521320082E+03  0.00000000000E+00 0. -1.
         -4    1    6    6    0  503  0.50869832172E+02 -0.13569543165E+03  0.10410826796E+03  0.17843632325E+03  0.00000000000E+00 0.  1.
<mgrwt>
<rscale>  0 0.60802710E+03</rscale>
<asrwt>0</asrwt>
<pdfrwt beam="1">  1        1 0.15990900E+00 0.60802710E+03</pdfrwt>
<pdfrwt beam="2">  1       -1 0.74999913E-01 0.60802710E+03</pdfrwt>
<totfact> 0.26398224E+01</totfact>
</mgrwt>
</event>
<event>
12    1  0.1338445E-007  0.5908221E+03  0.7818608E-02  0.9924632E-01
          2   -1    0    0  501    0  0.00000000000E+00  0.00000000000E+00  0.23498685272E+04  0.23498685272E+04  0.00000000000E+00 0. -1.
         -2   -1    0    0    0  501 -0.00000000000E+00 -0.00000000000E+00 -0.21458314302E+03  0.21458314302E+03  0.00000000000E+00 0.  1.
         23    2    1    2    0    0 -0.24572933703E+03 -0.37408910293E+03  0.21813412339E+03  0.50619086208E+03  0.91220222829E+02 0.  0.
    5000000    2    1    2    0    0  0.24572933703E+03  0.37408910293E+03  0.19171512608E+04  0.20582608082E+04  0.60053562223E+03 0.  0.
         23    2    4    4    0    0  0.14157580448E+03 -0.13747050469E+03  0.51342471925E+03  0.55774017938E+03  0.92343474453E+02 0.  0.
         23    2    4    4    0    0  0.10415353255E+03  0.51155960763E+03  0.14037265416E+04  0.15005206288E+04  0.92589218815E+02 0.  0.
          4    1    3    3  502    0 -0.13173537172E+03 -0.13023192062E+03  0.11433536541E+03  0.21768586792E+03  0.00000000000E+00 0.  1.
         -4    1    3    3    0  502 -0.11399396531E+03 -0.24385718232E+03  0.10379875798E+03  0.28850499415E+03  0.00000000000E+00 0. -1.
         13    1    5    5    0    0  0.67190407093E+02 -0.62685184296E+02  0.12433570939E+03  0.15460708834E+03  0.00000000000E+00 0.  1.
        -13    1    5    5    0    0  0.74385397389E+02 -0.74785320396E+02  0.38908900986E+03  0.40313309103E+03  0.00000000000E+00 0. -1.
          2    1    6    6  503    0  0.11864749411E+03  0.39634515441E+03  0.10727929187E+04  0.11498049207E+04  0.00000000000E+00 0. -1.
         -2    1    6    6    0  503 -0.14493961558E+02  0.11521445322E+03  0.33093362285E+03  0.35071570806E+03  0.00000000000E+00 0.  1.
<mgrwt>
<rscale>  0 0.59082215E+03</rscale>
<asrwt>0</asrwt>
<pdfrwt beam="1">  1        2 0.36151822E+00 0.59082215E+03</pdfrwt>
<pdfrwt beam="2">  1       -2 0.33012793E-01 0.59082215E+03</pdfrwt>
<totfact> 0.38699571E+01</totfact>
</mgrwt>
</event>
<event>
12    1  0.1338445E-007  0.8714924E+03  0.7818608E-02  0.9461936E-01
         -1   -1    0    0    0  501 -0.00000000000E+00  0.00000000000E+00  0.36981412877E+03  0.36981412877E+03  0.00000000000E+00 0.  1.
          1   -1    0    0  501    0  0.00000000000E+00 -0.00000000000E+00 -0.23316314784E+04  0.23316314784E+04  0.00000000000E+00 0. -1.
         23    2    1    2    0    0 -0.37978664149E+03 -0.73566884933E+03 -0.80705384586E+03  0.11590732264E+04  0.81659568103E+02 0.  0.
    5000000    2    1    2    0    0  0.37978664149E+03  0.73566884933E+03 -0.11547635038E+04  0.15423723808E+04  0.59998938527E+03 0.  0.
         23    2    4    4    0    0 -0.24262380057E+02  0.32591988067E+03 -0.77617623363E+03  0.84718205299E+03  0.91953540212E+02 0.  0.
         23    2    4    4    0    0  0.40404902155E+03  0.40974896866E+03 -0.37858727014E+03  0.69519032780E+03  0.93869279391E+02 0.  0.
          3    1    3    3  502    0 -0.26731627952E+03 -0.45140080993E+03 -0.47472534719E+03  0.70752020450E+03  0.00000000000E+00 0. -1.
         -3    1    3    3    0  502 -0.11247036197E+03 -0.28426803940E+03 -0.33232849867E+03  0.45155302188E+03  0.00000000000E+00 0.  1.
         13    1    5    5    0    0  0.14130660023E+02  0.19863307251E+03 -0.54850218612E+03  0.58353185109E+03  0.00000000000E+00 0. -1.
        -13    1    5    5    0    0 -0.38393040080E+02  0.12728680816E+03 -0.22767404750E+03  0.26365020191E+03  0.00000000000E+00 0.  1.
          2    1    6    6  503    0  0.31588206621E+03  0.36151134645E+03 -0.33634210442E+03  0.58617228233E+03  0.00000000000E+00 0. -1.
         -2    1    6    6    0  503  0.88166955342E+02  0.48237622206E+02 -0.42245165728E+02  0.10901804547E+03  0.00000000000E+00 0.  1.
<mgrwt>
<rscale>  0 0.87149237E+03</rscale>
<asrwt>0</asrwt>
<pdfrwt beam="1">  1        1 0.35871254E+00 0.87149237E+03</pdfrwt>
<pdfrwt beam="2">  1       -1 0.56894481E-01 0.87149237E+03</pdfrwt>
<totfact> 0.57263734E+00</totfact>
</mgrwt>
</event>
<event>
12    1  0.1338445E-007  0.7746842E+03  0.7818608E-02  0.9597401E-01
         -1   -1    0    0    0  501 -0.00000000000E+00  0.00000000000E+00  0.10801877170E+04  0.10801877170E+04  0.00000000000E+00 0.  1.
          1   -1    0    0  501    0  0.00000000000E+00 -0.00000000000E+00 -0.76790018802E+03  0.76790018802E+03  0.00000000000E+00 0. -1.
         23    2    1    2    0    0 -0.62584587350E+03  0.24853064306E+03 -0.31561943643E+03  0.74915242797E+03  0.90350394353E+02 0.  0.
    5000000    2    1    2    0    0  0.62584587350E+03 -0.24853064306E+03  0.62790696542E+03  0.10989354771E+04  0.59995123769E+03 0.  0.
         23    2    4    4    0    0  0.20158892497E+03  0.17631760832E+03  0.11985521422E+03  0.30690980466E+03  0.90013122065E+02 0.  0.
         23    2    4    4    0    0  0.42425694853E+03 -0.42484825139E+03  0.50805175120E+03  0.79202567241E+03  0.93263544723E+02 0.  0.
          1    1    3    3  502    0 -0.44897471213E+03  0.15648393698E+03 -0.18187627448E+03  0.50906236738E+03  0.00000000000E+00 0. -1.
         -1    1    3    3    0  502 -0.17687116138E+03  0.92046706080E+02 -0.13374316194E+03  0.24009006059E+03  0.00000000000E+00 0.  1.
         11    1    5    5    0    0  0.77046739653E+02  0.63996020907E+02  0.93732524318E+02  0.13717680889E+03  0.00000000000E+00 0. -1.
        -11    1    5    5    0    0  0.12454218532E+03  0.11232158741E+03  0.26122689899E+02  0.16973299576E+03  0.00000000000E+00 0.  1.
          1    1    6    6  503    0  0.21557968854E+03 -0.27651654419E+03  0.31551376248E+03  0.47168308814E+03  0.00000000000E+00 0.  1.
         -1    1    6    6    0  503  0.20867725999E+03 -0.14833170720E+03  0.19253798873E+03  0.32034258427E+03  0.00000000000E+00 0. -1.
<mgrwt>
<rscale>  0 0.77468417E+03</rscale>
<asrwt>0</asrwt>
<pdfrwt beam="1">  1        1 0.11813849E+00 0.77468417E+03</pdfrwt>
<pdfrwt beam="2">  1       -1 0.16618273E+00 0.77468417E+03</pdfrwt>
<totfact> 0.63858370E+00</totfact>
</mgrwt>
</event>
<event>
12    1  0.1338445E-007  0.8349351E+03  0.7818608E-02  0.9510783E-01
         -2   -1    0    0    0  501 -0.00000000000E+00  0.00000000000E+00  0.38221711220E+03  0.38221711220E+03  0.00000000000E+00 0.  1.
          2   -1    0    0  501    0  0.00000000000E+00 -0.00000000000E+00 -0.26958776131E+04  0.26958776131E+04  0.00000000000E+00 0. -1.
         23    2    1    2    0    0  0.30800772097E+03  0.66736503512E+03 -0.19071993984E+04  0.20458309823E+04  0.88147697093E+02 0.  0.
    5000000    2    1    2    0    0 -0.30800772097E+03 -0.66736503512E+03 -0.40646110247E+03  0.10322637430E+04  0.60009412679E+03 0.  0.
         23    2    4    4    0    0  0.10251854750E+03 -0.44099577995E+03 -0.27332626928E+03  0.53679682016E+03  0.91957849826E+02 0.  0.
         23    2    4    4    0    0 -0.41052626847E+03 -0.22636925517E+03 -0.13313483319E+03  0.49546692283E+03  0.89374107101E+02 0.  0.
          2    1    3    3  502    0  0.25286923597E+03  0.54252999364E+03 -0.14496844346E+04  0.15683961886E+04  0.00000000000E+00 0. -1.
         -2    1    3    3    0  502  0.55138484997E+02  0.12483504148E+03 -0.45751496380E+03  0.47743479368E+03  0.00000000000E+00 0.  1.
         13    1    5    5    0    0  0.76633372815E+02 -0.16954029766E+03 -0.79966289813E+02  0.20251220671E+03  0.00000000000E+00 0.  1.
        -13    1    5    5    0    0  0.25885174688E+02 -0.27145548229E+03 -0.19335997947E+03  0.33428461346E+03  0.00000000000E+00 0. -1.
          3    1    6    6  503    0 -0.29686811222E+03 -0.11929353033E+03 -0.10552225586E+03  0.33689251834E+03  0.00000000000E+00 0. -1.
         -3    1    6    6    0  503 -0.11365815625E+03 -0.10707572484E+03 -0.27612577328E+02  0.15857440449E+03  0.00000000000E+00 0.  1.
<mgrwt>
<rscale>  0 0.83493514E+03</rscale>
<asrwt>0</asrwt>
<pdfrwt beam="1">  1        2 0.41475041E+00 0.83493514E+03</pdfrwt>
<pdfrwt beam="2">  1       -2 0.58802632E-01 0.83493514E+03</pdfrwt>
<totfact> 0.75073226E+00</totfact>
</mgrwt>
</event>
<event>
12    1  0.1338445E-007  0.7879813E+03  0.7818608E-02  0.9577578E-01
          1   -1    0    0  501    0  0.00000000000E+00  0.00000000000E+00  0.72168150337E+03  0.72168150337E+03  0.00000000000E+00 0. -1.
         -1   -1    0    0    0  501 -0.00000000000E+00 -0.00000000000E+00 -0.93033917629E+03  0.93033917629E+03  0.00000000000E+00 0.  1.
         23    2    1    2    0    0 -0.22496337414E+03 -0.64774114872E+03 -0.26091602661E+03  0.73940434600E+03  0.92002709206E+02 0.  0.
    5000000    2    1    2    0    0  0.22496337414E+03  0.64774114872E+03  0.52258353694E+02  0.91261633366E+03  0.59996710034E+03 0.  0.
         23    2    4    4    0    0 -0.82272903061E+02 -0.51444158029E+02  0.56142901043E+02  0.14345908724E+03  0.89516213068E+02 0.  0.
         23    2    4    4    0    0  0.30723627720E+03  0.69918530674E+03 -0.38845473486E+01  0.76915724641E+03  0.91288316938E+02 0.  0.
          3    1    3    3  502    0 -0.97495988175E+02 -0.29689264615E+03 -0.16773896664E+03  0.35466473180E+03  0.00000000000E+00 0. -1.
         -3    1    3    3    0  502 -0.12746738596E+03 -0.35084850256E+03 -0.93177059968E+02  0.38473961420E+03  0.00000000000E+00 0.  1.
         13    1    5    5    0    0  0.15891035331E+00  0.15695950382E+02  0.30183469536E+02  0.34021022092E+02  0.00000000000E+00 0.  1.
        -13    1    5    5    0    0 -0.82431813414E+02 -0.67140108411E+02  0.25959431506E+02  0.10943806515E+03  0.00000000000E+00 0. -1.
          3    1    6    6  503    0  0.26611177600E+03  0.65888569715E+03 -0.13809677295E+02  0.71072958741E+03  0.00000000000E+00 0. -1.
         -3    1    6    6    0  503  0.41124501195E+02  0.40299609596E+02  0.99251299464E+01  0.58427659003E+02  0.00000000000E+00 0.  1.
<mgrwt>
<rscale>  0 0.78798132E+03</rscale>
<asrwt>0</asrwt>
<pdfrwt beam="1">  1        1 0.11102792E+00 0.78798132E+03</pdfrwt>
<pdfrwt beam="2">  1       -1 0.14312910E+00 0.78798132E+03</pdfrwt>
<totfact> 0.10545213E+01</totfact>
</mgrwt>
</event>
<event>
12    1  0.1338445E-007  0.1329166E+04  0.7818608E-02  0.9006751E-01
          3   -1    0    0  501    0  0.00000000000E+00  0.00000000000E+00  0.18339724934E+04  0.18339724934E+04  0.00000000000E+00 0. -1.
         -3   -1    0    0    0  501 -0.00000000000E+00 -0.00000000000E+00 -0.15250925482E+04  0.15250925482E+04  0.00000000000E+00 0.  1.
         23    2    1    2    0    0  0.11465538658E+04  0.60554676930E+03 -0.82115500956E+03  0.15374951073E+04  0.91230467343E+02 0.  0.
    5000000    2    1    2    0    0 -0.11465538658E+04 -0.60554676930E+03  0.11300349547E+04  0.18215699343E+04  0.59988779774E+03 0.  0.
         23    2    4    4    0    0 -0.93977245537E+03 -0.65172616612E+03  0.72630251254E+03  0.13571373627E+04  0.79920072872E+02 0.  0.
         23    2    4    4    0    0 -0.20678141042E+03  0.46179396818E+02  0.40373244217E+03  0.46443257164E+03  0.88355194289E+02 0.  0.
          2    1    3    3  502    0  0.71275642907E+03  0.34837291870E+03 -0.45807037904E+03  0.91608618034E+03  0.00000000000E+00 0.  1.
         -2    1    3    3    0  502  0.43379743672E+03  0.25717385060E+03 -0.36308463052E+03  0.62140892692E+03  0.00000000000E+00 0. -1.
         13    1    5    5    0    0 -0.84892320364E+03 -0.61071287718E+03  0.67843939888E+03  0.12465636133E+04  0.00000000000E+00 0.  1.
        -13    1    5    5    0    0 -0.90849251731E+02 -0.41013288935E+02  0.47863113661E+02  0.11057374941E+03  0.00000000000E+00 0. -1.
          1    1    6    6  503    0 -0.20071208306E+03  0.51452507437E+02  0.32593357961E+03  0.38621936658E+03  0.00000000000E+00 0. -1.
         -1    1    6    6    0  503 -0.60693273614E+01 -0.52731106193E+01  0.77798862558E+02  0.78213205058E+02  0.00000000000E+00 0.  1.
<mgrwt>
<rscale>  0 0.13291655E+04</rscale>
<asrwt>0</asrwt>
<pdfrwt beam="1">  1        3 0.28214961E+00 0.13291655E+04</pdfrwt>
<pdfrwt beam="2">  1       -3 0.23462962E+00 0.13291655E+04</pdfrwt>
<totfact> 0.10648687E-02</totfact>
</mgrwt>
</event>
<event>
12    1  0.1338445E-007  0.8372543E+03  0.7818608E-02  0.9507605E-01
         -2   -1    0    0    0  501 -0.00000000000E+00  0.00000000000E+00  0.53716790066E+03  0.53716790066E+03  0.00000000000E+00 0.  1.
          2   -1    0    0  501    0  0.00000000000E+00 -0.00000000000E+00 -0.21063739351E+04  0.21063739351E+04  0.00000000000E+00 0. -1.
         23    2    1    2    0    0  0.76190965972E+03  0.11097662527E+03  0.22707538466E+02  0.77571367178E+03  0.91618378911E+02 0.  0.
    5000000    2    1    2    0    0 -0.76190965972E+03 -0.11097662527E+03 -0.15919135729E+04  0.18678281640E+04  0.60147409387E+03 0.  0.
         23    2    4    4    0    0 -0.35442598296E+02 -0.14753901847E+03 -0.65533089696E+03  0.67888096221E+03  0.91634254529E+02 0.  0.
         23    2    4    4    0    0 -0.72646706142E+03  0.36562393200E+02 -0.93658267593E+03  0.11889472017E+04  0.85540281465E+02 0.  0.
          3    1    3    3  502    0  0.71768699327E+03  0.11298539682E+03  0.12688133348E+01  0.72652730857E+03  0.00000000000E+00 0. -1.
         -3    1    3    3    0  502  0.44222666447E+02 -0.20087715543E+01  0.21438725131E+02  0.49186363212E+02  0.00000000000E+00 0.  1.
         11    1    5    5    0    0  0.25809485640E+02 -0.63080624245E+02 -0.18601609761E+03  0.19810927105E+03  0.00000000000E+00 0.  1.
        -11    1    5    5    0    0 -0.61252083936E+02 -0.84458394223E+02 -0.46931479935E+03  0.48077169117E+03  0.00000000000E+00 0. -1.
          3    1    6    6  503    0 -0.62780914055E+02  0.24611337800E+02 -0.68071890967E+02  0.95817239877E+02  0.00000000000E+00 0.  1.
         -3    1    6    6    0  503 -0.66368614737E+03  0.11951055401E+02 -0.86851078496E+03  0.10931299619E+04  0.00000000000E+00 0. -1.
<mgrwt>
<rscale>  0 0.83725432E+03</rscale>
<asrwt>0</asrwt>
<pdfrwt beam="1">  1        2 0.32405753E+00 0.83725432E+03</pdfrwt>
<pdfrwt beam="2">  1       -2 0.82641215E-01 0.83725432E+03</pdfrwt>
<totfact> 0.76711897E+00</totfact>
</mgrwt>
</event>
<event>
12    1  0.1338445E-007  0.4832792E+03  0.7818608E-02  0.1018238E+00
          2   -1    0    0  501    0  0.00000000000E+00  0.00000000000E+00  0.48698089899E+04  0.48698089899E+04  0.00000000000E+00 0. -1.
         -2   -1    0    0    0  501 -0.00000000000E+00 -0.00000000000E+00 -0.53983118858E+02  0.53983118858E+02  0.00000000000E+00 0.  1.
         23    2    1    2    0    0 -0.57012587516E+02 -0.32032523387E+03  0.13872201167E+04  0.14279218734E+04  0.93394505615E+02 0.  0.
    5000000    2    1    2    0    0  0.57012587516E+02  0.32032523387E+03  0.34286057543E+04  0.34958702354E+04  0.59992715673E+03 0.  0.
         23    2    4    4    0    0 -0.16976829883E+03  0.34042203950E+03  0.26601111548E+04  0.26887375205E+04  0.91704185709E+02 0.  0.
         23    2    4    4    0    0  0.22678088635E+03 -0.20096805634E+02  0.76849459946E+03  0.80713271486E+03  0.95109505303E+02 0.  0.
          1    1    3    3  502    0 -0.48569488325E+02 -0.57043045968E+02  0.28922287031E+03  0.29876876176E+03  0.00000000000E+00 0. -1.
         -1    1    3    3    0  502 -0.84430991913E+01 -0.26328218790E+03  0.10979972464E+04  0.11291531117E+04  0.00000000000E+00 0.  1.
         11    1    5    5    0    0 -0.53349297315E+02  0.20211185383E+03  0.15423837095E+04  0.15564841330E+04  0.00000000000E+00 0.  1.
        -11    1    5    5    0    0 -0.11641900152E+03  0.13831018567E+03  0.11177274454E+04  0.11322533875E+04  0.00000000000E+00 0. -1.
          1    1    6    6  503    0  0.35440206805E+01 -0.14678251437E+02  0.15151492180E+02  0.21391093079E+02  0.00000000000E+00 0. -1.
         -1    1    6    6    0  503  0.22323686567E+03 -0.54185541964E+01  0.75334310728E+03  0.78574162179E+03  0.00000000000E+00 0.  1.
<mgrwt>
<rscale>  0 0.48327924E+03</rscale>
<asrwt>0</asrwt>
<pdfrwt beam="1">  1        2 0.74920104E+00 0.48327924E+03</pdfrwt>
<pdfrwt beam="2">  1       -2 0.83050991E-02 0.48327924E+03</pdfrwt>
<totfact> 0.57499494E+00</totfact>
</mgrwt>
</event>
<event>
12    1  0.1338445E-007  0.1377788E+04  0.7818608E-02  0.8970056E-01
          2   -1    0    0  501    0  0.00000000000E+00  0.00000000000E+00  0.31661583843E+04  0.31661583843E+04  0.00000000000E+00 0. -1.
         -2   -1    0    0    0  501 -0.00000000000E+00 -0.00000000000E+00 -0.85269075573E+03  0.85269075573E+03  0.00000000000E+00 0.  1.
         23    2    1    2    0    0  0.12993362868E+04 -0.34330483476E+03  0.21510281431E+04  0.25381461922E+04  0.95556395186E+02 0.  0.
    5000000    2    1    2    0    0 -0.12993362868E+04  0.34330483476E+03  0.16243948548E+03  0.14807029479E+04  0.59996803034E+03 0.  0.
         23    2    4    4    0    0 -0.13100959189E+04  0.38428305798E+03  0.14671436649E+03  0.13761857058E+04  0.91308302772E+02 0.  0.
         23    2    4    4    0    0  0.10759632089E+02 -0.40978223219E+02  0.15725118995E+02  0.10451724201E+03  0.94242188266E+02 0.  0.
          2    1    3    3  502    0  0.43877344372E+02 -0.29591218742E+02  0.95988713095E+02  0.10961156243E+03  0.00000000000E+00 0. -1.
         -2    1    3    3    0  502  0.12554589425E+04 -0.31371361602E+03  0.20550394300E+04  0.24285346298E+04  0.00000000000E+00 0.  1.
         11    1    5    5    0    0 -0.84309266666E+03  0.27121077542E+03  0.57749826883E+02  0.88752215284E+03  0.00000000000E+00 0.  1.
        -11    1    5    5    0    0 -0.46700325227E+03  0.11307228256E+03  0.88964539607E+02  0.48866355300E+03  0.00000000000E+00 0. -1.
          2    1    6    6  503    0  0.91706648905E+01 -0.37847043738E+02  0.53725727570E+02  0.66354755799E+02  0.00000000000E+00 0. -1.
         -2    1    6    6    0  503  0.15889671982E+01 -0.31311794814E+01 -0.38000608575E+02  0.38162486211E+02  0.00000000000E+00 0.  1.
<mgrwt>
<rscale>  0 0.13777879E+04</rscale>
<asrwt>0</asrwt>
<pdfrwt beam="1">  1        2 0.48710128E+00 0.13777879E+04</pdfrwt>
<pdfrwt beam="2">  1       -2 0.13118319E+00 0.13777879E+04</pdfrwt>
<totfact> 0.55948622E-01</totfact>
</mgrwt>
</event>
<event>
12    1  0.1338445E-007  0.7080026E+03  0.7818608E-02  0.9703644E-01
          2   -1    0    0  501    0  0.00000000000E+00  0.00000000000E+00  0.84288463791E+03  0.84288463791E+03  0.00000000000E+00 0.  1.
         -2   -1    0    0    0  501 -0.00000000000E+00 -0.00000000000E+00 -0.80261937791E+03  0.80261937791E+03  0.00000000000E+00 0. -1.
         23    2    1    2    0    0 -0.57052046612E+03  0.32472745845E+03  0.28753411178E+03  0.72237637873E+03  0.90610388865E+02 0.  0.
    5000000    2    1    2    0    0  0.57052046612E+03 -0.32472745845E+03 -0.24726885178E+03  0.92312763710E+03  0.60006768349E+03 0.  0.
         23    2    4    4    0    0  0.16716924636E+03 -0.30613577607E+03  0.10928832389E+03  0.37713625739E+03  0.92860909863E+02 0.  0.
         23    2    4    4    0    0  0.40335121977E+03 -0.18591682374E+02 -0.35655717567E+03  0.54599137970E+03  0.89082602402E+02 0.  0.
          1    1    3    3  502    0 -0.88131930771E+02  0.39681229247E+02  0.77877751656E+02  0.12412405641E+03  0.00000000000E+00 0. -1.
         -1    1    3    3    0  502 -0.48238853535E+03  0.28504622920E+03  0.20965636013E+03  0.59825232232E+03  0.00000000000E+00 0.  1.
         13    1    5    5    0    0  0.56758643929E+02 -0.15926445374E+03  0.12699461769E+02  0.16955231115E+03  0.00000000000E+00 0. -1.
        -13    1    5    5    0    0  0.11041060243E+03 -0.14687132233E+03  0.96588862120E+02  0.20758394624E+03  0.00000000000E+00 0.  1.
          2    1    6    6  503    0  0.27014404428E+03  0.85345853533E+01 -0.18698017923E+03  0.32865214320E+03  0.00000000000E+00 0.  1.
         -2    1    6    6    0  503  0.13320717549E+03 -0.27126267727E+02 -0.16957699644E+03  0.21733923650E+03  0.00000000000E+00 0. -1.
<mgrwt>
<rscale>  0 0.70800258E+03</rscale>
<asrwt>0</asrwt>
<pdfrwt beam="1">  1        2 0.12967456E+00 0.70800258E+03</pdfrwt>
<pdfrwt beam="2">  1       -2 0.12347990E+00 0.70800258E+03</pdfrwt>
<totfact> 0.16187616E+01</totfact>
</mgrwt>
</event>
<event>
12    1  0.1338445E-007  0.1731565E+04  0.7818608E-02  0.8743564E-01
          2   -1    0    0  501    0  0.00000000000E+00  0.00000000000E+00  0.41277603354E+04  0.41277603354E+04  0.00000000000E+00 0. -1.
         -2   -1    0    0    0  501 -0.00000000000E+00 -0.00000000000E+00 -0.87824813886E+03  0.87824813886E+03  0.00000000000E+00 0.  1.
         23    2    1    2    0    0 -0.98359425063E+03  0.14032124516E+04  0.64966159066E+03  0.18349209452E+04  0.91716184611E+02 0.  0.
    5000000    2    1    2    0    0  0.98359425063E+03 -0.14032124516E+04  0.25998506059E+04  0.31710875291E+04  0.60009175155E+03 0.  0.
         23    2    4    4    0    0  0.65504285995E+03 -0.65968112308E+03  0.96530087207E+03  0.13433033525E+04  0.91639460825E+02 0.  0.
         23    2    4    4    0    0  0.32855139068E+03 -0.74353132848E+03  0.16345497338E+04  0.18277841766E+04  0.90869747913E+02 0.  0.
          1    1    3    3  502    0 -0.83171558618E+03  0.12382767075E+04  0.55571960705E+03  0.15918242058E+04  0.00000000000E+00 0. -1.
         -1    1    3    3    0  502 -0.15187866445E+03  0.16493574406E+03  0.93941983612E+02  0.24309673932E+03  0.00000000000E+00 0.  1.
         11    1    5    5    0    0  0.53320711417E+02 -0.64232917631E+02  0.12659952839E+03  0.15164566120E+03  0.00000000000E+00 0.  1.
        -11    1    5    5    0    0  0.60172214854E+03 -0.59544820545E+03  0.83870134369E+03  0.11916576913E+04  0.00000000000E+00 0. -1.
          4    1    6    6  503    0  0.18496469325E+03 -0.51631582163E+03  0.10604202349E+04  0.11938530228E+04  0.00000000000E+00 0. -1.
         -4    1    6    6    0  503  0.14358669742E+03 -0.22721550685E+03  0.57412949897E+03  0.63393115385E+03  0.00000000000E+00 0.  1.
<mgrwt>
<rscale>  0 0.17315653E+04</rscale>
<asrwt>0</asrwt>
<pdfrwt beam="1">  1        2 0.63504004E+00 0.17315653E+04</pdfrwt>
<pdfrwt beam="2">  1       -2 0.13511510E+00 0.17315653E+04</pdfrwt>
<totfact> 0.98929127E-02</totfact>
</mgrwt>
</event>
<event>
12    1  0.1338445E-007  0.1322268E+04  0.7818608E-02  0.9012090E-01
          2   -1    0    0  501    0  0.00000000000E+00  0.00000000000E+00  0.15506118064E+04  0.15506118064E+04  0.00000000000E+00 0. -1.
         -2   -1    0    0    0  501 -0.00000000000E+00 -0.00000000000E+00 -0.12796205038E+04  0.12796205038E+04  0.00000000000E+00 0.  1.
         23    2    1    2    0    0 -0.12900794098E+04  0.14372360786E+03 -0.21599281194E+03  0.13194950056E+04  0.97225594144E+02 0.  0.
    5000000    2    1    2    0    0  0.12900794098E+04 -0.14372360786E+03  0.48698411451E+03  0.15107373046E+04  0.60017690468E+03 0.  0.
         23    2    4    4    0    0  0.50692990269E+03  0.10154890008E+03 -0.47679659547E+02  0.52724429910E+03  0.91777424465E+02 0.  0.
         23    2    4    4    0    0  0.78314950706E+03 -0.24527250794E+03  0.53466377405E+03  0.98349300554E+03  0.88945978576E+02 0.  0.
          3    1    3    3  502    0 -0.45833467257E+03  0.46467035823E+01 -0.81373920790E+02  0.46552548686E+03  0.00000000000E+00 0. -1.
         -3    1    3    3    0  502 -0.83174473718E+03  0.13907690428E+03 -0.13461889115E+03  0.85396951877E+03  0.00000000000E+00 0.  1.
         11    1    5    5    0    0  0.12643440850E+03  0.36285229952E+02 -0.51266700663E+02  0.14117560753E+03  0.00000000000E+00 0.  1.
        -11    1    5    5    0    0  0.38049549420E+03  0.65263670127E+02  0.35870411161E+01  0.38606869157E+03  0.00000000000E+00 0. -1.
          1    1    6    6  503    0  0.11486037382E+02  0.69899798820E+01  0.62873982592E+01  0.14843188686E+02  0.00000000000E+00 0. -1.
         -1    1    6    6    0  503  0.77166346968E+03 -0.25226248782E+03  0.52837637579E+03  0.96864981686E+03  0.00000000000E+00 0.  1.
<mgrwt>
<rscale>  0 0.13222683E+04</rscale>
<asrwt>0</asrwt>
<pdfrwt beam="1">  1        2 0.23855566E+00 0.13222683E+04</pdfrwt>
<pdfrwt beam="2">  1       -2 0.19686469E+00 0.13222683E+04</pdfrwt>
<totfact> 0.15880024E+00</totfact>
</mgrwt>
</event>
<event>
12    1  0.1338445E-007  0.8392323E+03  0.7818608E-02  0.9504904E-01
         -1   -1    0    0    0  501 -0.00000000000E+00  0.00000000000E+00  0.38926869724E+03  0.38926869724E+03  0.00000000000E+00 0.  1.
          1   -1    0    0  501    0  0.00000000000E+00 -0.00000000000E+00 -0.20186799335E+04  0.20186799335E+04  0.00000000000E+00 0. -1.
         23    2    1    2    0    0 -0.52919788553E+03 -0.55931350100E+03 -0.90755641548E+03  0.11939359701E+04  0.94564575316E+02 0.  0.
    5000000    2    1    2    0    0  0.52919788553E+03  0.55931350100E+03 -0.72185482079E+03  0.12140126607E+04  0.59989195990E+03 0.  0.
         23    2    4    4    0    0  0.39890961815E+03  0.88123029535E+02 -0.54359689080E+03  0.68550124405E+03  0.86716919454E+02 0.  0.
         23    2    4    4    0    0  0.13028826738E+03  0.47119047146E+03 -0.17825792999E+03  0.52851141663E+03  0.92482078771E+02 0.  0.
          3    1    3    3  502    0 -0.30470554803E+03 -0.35528089794E+03 -0.48776422441E+03  0.67600586245E+03  0.00000000000E+00 0. -1.
         -3    1    3    3    0  502 -0.22449233750E+03 -0.20403260306E+03 -0.41979219106E+03  0.51793010763E+03  0.00000000000E+00 0.  1.
         13    1    5    5    0    0  0.14640492230E+03  0.77676780999E+01 -0.25155762451E+03  0.29116314421E+03  0.00000000000E+00 0.  1.
        -13    1    5    5    0    0  0.25250469586E+03  0.80355351435E+02 -0.29203926630E+03  0.39433809985E+03  0.00000000000E+00 0. -1.
          1    1    6    6  503    0  0.12918777672E+03  0.33170150856E+03 -0.14946985414E+03  0.38607850203E+03  0.00000000000E+00 0. -1.
         -1    1    6    6    0  503  0.11004906671E+01  0.13948896290E+03 -0.28788075850E+02  0.14243291460E+03  0.00000000000E+00 0.  1.
<mgrwt>
<rscale>  0 0.83923232E+03</rscale>
<asrwt>0</asrwt>
<pdfrwt beam="1">  1        1 0.31056615E+00 0.83923232E+03</pdfrwt>
<pdfrwt beam="2">  1       -1 0.59887490E-01 0.83923232E+03</pdfrwt>
<totfact> 0.84520988E+00</totfact>
</mgrwt>
</event>
<event>
12    1  0.1338445E-007  0.5914781E+03  0.7818608E-02  0.9923246E-01
          2   -1    0    0  501    0  0.00000000000E+00  0.00000000000E+00  0.37801530157E+03  0.37801530157E+03  0.00000000000E+00 0. -1.
         -2   -1    0    0    0  501 -0.00000000000E+00 -0.00000000000E+00 -0.10876266861E+04  0.10876266861E+04  0.00000000000E+00 0.  1.
         23    2    1    2    0    0  0.48404897325E+03  0.13337839426E+02 -0.39915615395E+03  0.63443927657E+03  0.93307309248E+02 0.  0.
    5000000    2    1    2    0    0 -0.48404897325E+03 -0.13337839426E+02 -0.31045523060E+03  0.83120271112E+03  0.60002849124E+03 0.  0.
         23    2    4    4    0    0  0.78896491285E+01  0.15391154197E+03 -0.23841039209E+03  0.29862288052E+03  0.92655816877E+02 0.  0.
         23    2    4    4    0    0 -0.49193862238E+03 -0.16724938140E+03 -0.72044838514E+02  0.53257983059E+03  0.92058967150E+02 0.  0.
          4    1    3    3  502    0  0.15794143608E+03  0.47064763784E+02 -0.12033197355E+03  0.20405972920E+03  0.00000000000E+00 0. -1.
         -4    1    3    3    0  502  0.32610753717E+03 -0.33726924359E+02 -0.27882418040E+03  0.43037954738E+03  0.00000000000E+00 0.  1.
         11    1    5    5    0    0  0.29469987737E+02  0.10789799993E+03 -0.21566149976E+03  0.24294102380E+03  0.00000000000E+00 0. -1.
        -11    1    5    5    0    0 -0.21580338609E+02  0.46013542043E+02 -0.22748892322E+02  0.55681856719E+02  0.00000000000E+00 0.  1.
          1    1    6    6  503    0 -0.20597237429E+03 -0.11823371071E+03 -0.28676969387E+02  0.23921997803E+03  0.00000000000E+00 0. -1.
         -1    1    6    6    0  503 -0.28596624809E+03 -0.49015670688E+02 -0.43367869127E+02  0.29335985256E+03  0.00000000000E+00 0.  1.
<mgrwt>
<rscale>  0 0.59147805E+03</rscale>
<asrwt>0</asrwt>
<pdfrwt beam="1">  1        2 0.58156201E-01 0.59147805E+03</pdfrwt>
<pdfrwt beam="2">  1       -2 0.16732718E+00 0.59147805E+03</pdfrwt>
<totfact> 0.19433345E+01</totfact>
</mgrwt>
</event>
<event>
12    1  0.1338445E-007  0.7486725E+03  0.7818608E-02  0.9637435E-01
          1   -1    0    0  501    0  0.00000000000E+00  0.00000000000E+00  0.88711031972E+03  0.88711031972E+03  0.00000000000E+00 0. -1.
         -1   -1    0    0    0  501 -0.00000000000E+00 -0.00000000000E+00 -0.65555963759E+03  0.65555963759E+03  0.00000000000E+00 0.  1.
         23    2    1    2    0    0 -0.63819151469E+03 -0.61110222907E+01  0.37170389588E+02  0.64539316894E+03  0.88458751065E+02 0.  0.
    5000000    2    1    2    0    0  0.63819151469E+03  0.61110222907E+01  0.19438029254E+03  0.89727678837E+03  0.59999681899E+03 0.  0.
         23    2    4    4    0    0  0.29850643345E+03 -0.28037101129E+03  0.10455790243E+03  0.43428212146E+03  0.99772798277E+02 0.  0.
         23    2    4    4    0    0  0.33968508124E+03  0.28648203358E+03  0.89822390112E+02  0.46299466691E+03  0.94011115520E+02 0.  0.
          1    1    3    3  502    0 -0.39263134693E+03 -0.32214764185E+02  0.55166615435E+02  0.39779457146E+03  0.00000000000E+00 0. -1.
         -1    1    3    3    0  502 -0.24556016776E+03  0.26103741895E+02 -0.17996225847E+02  0.24759859748E+03  0.00000000000E+00 0.  1.
         13    1    5    5    0    0  0.19865143838E+03 -0.21338147954E+03  0.11540902612E+03  0.31354950661E+03  0.00000000000E+00 0.  1.
        -13    1    5    5    0    0  0.99854995064E+02 -0.66989531743E+02 -0.10851123692E+02  0.12073261485E+03  0.00000000000E+00 0. -1.
          4    1    6    6  503    0  0.23589455622E+03  0.18886682374E+03  0.16212969966E+02  0.30262151139E+03  0.00000000000E+00 0. -1.
         -4    1    6    6    0  503  0.10379052502E+03  0.97615209841E+02  0.73609420146E+02  0.16037315552E+03  0.00000000000E+00 0.  1.
<mgrwt>
<rscale>  0 0.74867250E+03</rscale>
<asrwt>0</asrwt>
<pdfrwt beam="1">  1        1 0.13647851E+00 0.74867250E+03</pdfrwt>
<pdfrwt beam="2">  1       -1 0.10085533E+00 0.74867250E+03</pdfrwt>
<totfact> 0.17931969E+01</totfact>
</mgrwt>
</event>
<event>
12    1  0.1338445E-007  0.6217506E+03  0.7818608E-02  0.9861280E-01
          1   -1    0    0  501    0  0.00000000000E+00  0.00000000000E+00  0.34308190771E+03  0.34308190771E+03  0.00000000000E+00 0. -1.
         -1   -1    0    0    0  501 -0.00000000000E+00 -0.00000000000E+00 -0.14175307077E+04  0.14175307077E+04  0.00000000000E+00 0.  1.
         23    2    1    2    0    0  0.42025644903E+03  0.23237057331E+03 -0.81366272218E+03  0.94909627540E+03  0.90139604071E+02 0.  0.
    5000000    2    1    2    0    0 -0.42025644903E+03 -0.23237057331E+03 -0.26078607784E+03  0.81151634004E+03  0.59994818565E+03 0.  0.
         23    2    4    4    0    0 -0.28222353778E+03  0.15831612977E+03 -0.57678270465E+02  0.34098904233E+03  0.90733796808E+02 0.  0.
         23    2    4    4    0    0 -0.13803291125E+03 -0.39068670308E+03 -0.20310780737E+03  0.47052729771E+03  0.91945483419E+02 0.  0.
          4    1    3    3  502    0  0.18461746715E+03  0.15258968019E+03 -0.38211824819E+03  0.45097846432E+03  0.00000000000E+00 0.  1.
         -4    1    3    3    0  502  0.23563898188E+03  0.79780893123E+02 -0.43154447399E+03  0.49811781108E+03  0.00000000000E+00 0. -1.
         11    1    5    5    0    0  0.66570655348E+01  0.33686347619E+01 -0.49749447020E+01  0.89674018802E+01  0.00000000000E+00 0.  1.
        -11    1    5    5    0    0 -0.28888060332E+03  0.15494749501E+03 -0.52703325763E+02  0.33202164045E+03  0.00000000000E+00 0. -1.
          2    1    6    6  503    0 -0.12079972944E+03 -0.24426606117E+03 -0.98521867177E+02  0.28976721965E+03  0.00000000000E+00 0. -1.
         -2    1    6    6    0  503 -0.17233181809E+02 -0.14642064191E+03 -0.10458594019E+03  0.18076007806E+03  0.00000000000E+00 0.  1.
<mgrwt>
<rscale>  0 0.62175064E+03</rscale>
<asrwt>0</asrwt>
<pdfrwt beam="1">  1        1 0.52781832E-01 0.62175064E+03</pdfrwt>
<pdfrwt beam="2">  1       -1 0.21808165E+00 0.62175064E+03</pdfrwt>
<totfact> 0.87666189E+00</totfact>
</mgrwt>
</event>
<event>
12    1  0.1338445E-007  0.1144023E+04  0.7818608E-02  0.9163315E-01
         -1   -1    0    0    0  501 -0.00000000000E+00  0.00000000000E+00  0.57242067733E+03  0.57242067733E+03  0.00000000000E+00 0.  1.
          1   -1    0    0  501    0  0.00000000000E+00 -0.00000000000E+00 -0.27301855634E+04  0.27301855634E+04  0.00000000000E+00 0. -1.
         23    2    1    2    0    0  0.65964623412E+01  0.10701659078E+04 -0.37435825046E+03  0.11378684363E+04  0.96446333085E+02 0.  0.
    5000000    2    1    2    0    0 -0.65964623412E+01 -0.10701659078E+04 -0.17834066356E+04  0.21647378044E+04  0.60020992183E+03 0.  0.
         23    2    4    4    0    0  0.25039518045E+03 -0.30609809140E+03 -0.73010878965E+03  0.83526703845E+03  0.90655352014E+02 0.  0.
         23    2    4    4    0    0 -0.25699164279E+03 -0.76406781642E+03 -0.10532978460E+04  0.13294707660E+04  0.90619162681E+02 0.  0.
          3    1    3    3  502    0 -0.35922714019E+02  0.24226749190E+03 -0.69305429297E+02  0.25453334073E+03  0.00000000000E+00 0. -1.
         -3    1    3    3    0  502  0.42519176361E+02  0.82789841592E+03 -0.30505282117E+03  0.88333509562E+03  0.00000000000E+00 0.  1.
         13    1    5    5    0    0  0.18478413998E+03 -0.27409581831E+03 -0.56232490698E+03  0.65229057713E+03  0.00000000000E+00 0. -1.
        -13    1    5    5    0    0  0.65611040463E+02 -0.32002273095E+02 -0.16778388267E+03  0.18297646132E+03  0.00000000000E+00 0.  1.
          1    1    6    6  503    0 -0.20998979668E+03 -0.70190534797E+03 -0.93588816167E+03  0.11885510016E+04  0.00000000000E+00 0. -1.
         -1    1    6    6    0  503 -0.47001846107E+02 -0.62162468446E+02 -0.11740968430E+03  0.14091976436E+03  0.00000000000E+00 0.  1.
<mgrwt>
<rscale>  0 0.11440233E+04</rscale>
<asrwt>0</asrwt>
<pdfrwt beam="1">  1        1 0.42002855E+00 0.11440233E+04</pdfrwt>
<pdfrwt beam="2">  1       -1 0.88064719E-01 0.11440233E+04</pdfrwt>
<totfact> 0.11854368E+00</totfact>
</mgrwt>
</event>
<event>
12    1  0.1338445E-007  0.1128618E+04  0.7818608E-02  0.9177740E-01
         -2   -1    0    0    0  501 -0.00000000000E+00  0.00000000000E+00  0.55046123149E+03  0.55046123149E+03  0.00000000000E+00 0. -1.
          2   -1    0    0  501    0  0.00000000000E+00 -0.00000000000E+00 -0.30284220959E+04  0.30284220959E+04  0.00000000000E+00 0.  1.
         23    2    1    2    0    0 -0.97832060648E+03  0.50068467722E+03 -0.19066701628E+04  0.22025813886E+04  0.90428473612E+02 0.  0.
    5000000    2    1    2    0    0  0.97832060648E+03 -0.50068467722E+03 -0.57129070161E+03  0.13763019387E+04  0.60003133732E+03 0.  0.
         23    2    4    4    0    0  0.88367754821E+03 -0.53451425945E+03 -0.30958901296E+03  0.10821198501E+04  0.92447338087E+02 0.  0.
         23    2    4    4    0    0  0.94643058268E+02  0.33829582233E+02 -0.26170168865E+03  0.29418208861E+03  0.89182836386E+02 0.  0.
          4    1    3    3  502    0 -0.48252446564E+03  0.21356453451E+03 -0.84631604860E+03  0.99734172903E+03  0.00000000000E+00 0. -1.
         -4    1    3    3    0  502 -0.49579614084E+03  0.28712014271E+03 -0.10603541142E+04  0.12052396596E+04  0.00000000000E+00 0.  1.
         13    1    5    5    0    0  0.64266026799E+03 -0.33931020397E+03 -0.21800764923E+03  0.75872983972E+03  0.00000000000E+00 0. -1.
        -13    1    5    5    0    0  0.24101728022E+03 -0.19520405548E+03 -0.91581363734E+02  0.32339001040E+03  0.00000000000E+00 0.  1.
          3    1    6    6  503    0  0.31039164169E+01  0.27834495823E+02 -0.16791179372E+02  0.32654818320E+02  0.00000000000E+00 0. -1.
         -3    1    6    6    0  503  0.91539141851E+02  0.59950864102E+01 -0.24491050928E+03  0.26152727029E+03  0.00000000000E+00 0.  1.
<mgrwt>
<rscale>  0 0.11286176E+04</rscale>
<asrwt>0</asrwt>
<pdfrwt beam="1">  1        2 0.46591110E+00 0.11286176E+04</pdfrwt>
<pdfrwt beam="2">  1       -2 0.84686342E-01 0.11286176E+04</pdfrwt>
<totfact> 0.20357974E+00</totfact>
</mgrwt>
</event>
<event>
12    1  0.1338445E-007  0.9230897E+03  0.7818608E-02  0.9397170E-01
          2   -1    0    0  501    0  0.00000000000E+00  0.00000000000E+00  0.26888198235E+04  0.26888198235E+04  0.00000000000E+00 0. -1.
         -2   -1    0    0    0  501 -0.00000000000E+00 -0.00000000000E+00 -0.37182212136E+03  0.37182212136E+03  0.00000000000E+00 0.  1.
         23    2    1    2    0    0  0.27213644830E+02  0.86835660258E+03  0.14590380380E+04  0.17001213547E+04  0.82685263092E+02 0.  0.
    5000000    2    1    2    0    0 -0.27213644830E+02 -0.86835660258E+03  0.85795966410E+03  0.13605205901E+04  0.60011475499E+03 0.  0.
         23    2    4    4    0    0 -0.14278462136E+03 -0.82035684753E+03  0.87044390952E+03  0.12079523410E+04  0.90019181436E+02 0.  0.
         23    2    4    4    0    0  0.11557097653E+03 -0.47999755052E+02 -0.12484245420E+02  0.15256824914E+03  0.86374690523E+02 0.  0.
          2    1    3    3  502    0 -0.60197213774E+01  0.39846964524E+03  0.74080916360E+03  0.84119707091E+03  0.00000000000E+00 0. -1.
         -2    1    3    3    0  502  0.33233366208E+02  0.46988695733E+03  0.71822887442E+03  0.85892428383E+03  0.00000000000E+00 0.  1.
         11    1    5    5    0    0 -0.68855656803E+02 -0.42765133323E+03  0.51693657597E+03  0.67442582087E+03  0.00000000000E+00 0. -1.
        -11    1    5    5    0    0 -0.73928964552E+02 -0.39270551430E+03  0.35350733355E+03  0.53352652009E+03  0.00000000000E+00 0.  1.
          1    1    6    6  503    0  0.76077467228E+02 -0.65739800261E+02  0.14449965482E+02  0.10157905227E+03  0.00000000000E+00 0. -1.
         -1    1    6    6    0  503  0.39493509298E+02  0.17740045209E+02 -0.26934210901E+02  0.50989196871E+02  0.00000000000E+00 0.  1.
<mgrwt>
<rscale>  0 0.92308974E+03</rscale>
<asrwt>0</asrwt>
<pdfrwt beam="1">  1        2 0.41366458E+00 0.92308974E+03</pdfrwt>
<pdfrwt beam="2">  1       -2 0.57203405E-01 0.92308974E+03</pdfrwt>
<totfact> 0.79262785E+00</totfact>
</mgrwt>
</event>
<event>
12    1  0.1338445E-007  0.4676867E+03  0.7818608E-02  0.1022575E+00
         -2   -1    0    0    0  501 -0.00000000000E+00  0.00000000000E+00  0.30908939109E+03  0.30908939109E+03  0.00000000000E+00 0. -1.
          2   -1    0    0  501    0  0.00000000000E+00 -0.00000000000E+00 -0.13347798618E+04  0.13347798618E+04  0.00000000000E+00 0.  1.
         23    2    1    2    0    0 -0.48988156515E+02  0.29236417277E+03 -0.91450086753E+03  0.96551715943E+03  0.89637600634E+02 0.  0.
    5000000    2    1    2    0    0  0.48988156515E+02 -0.29236417277E+03 -0.11118960316E+03  0.67835209344E+03  0.59993481798E+03 0.  0.
         23    2    4    4    0    0  0.87142680959E+02 -0.45332995693E+03 -0.27853394531E+02  0.47109556900E+03  0.89740330098E+02 0.  0.
         23    2    4    4    0    0 -0.38154524444E+02  0.16096578417E+03 -0.83336208626E+02  0.20725652444E+03  0.92976297233E+02 0.  0.
          3    1    3    3  502    0 -0.31610012289E+02  0.26463359044E+02 -0.16446069591E+03  0.16954888012E+03  0.00000000000E+00 0. -1.
         -3    1    3    3    0  502 -0.17378144225E+02  0.26590081372E+03 -0.75004017161E+03  0.79596827931E+03  0.00000000000E+00 0.  1.
         11    1    5    5    0    0  0.37896698334E+02 -0.14038491629E+03  0.31511372247E+02  0.14878525144E+03  0.00000000000E+00 0.  1.
        -11    1    5    5    0    0  0.49245982625E+02 -0.31294504064E+03 -0.59364766778E+02  0.32231031756E+03  0.00000000000E+00 0. -1.
          2    1    6    6  503    0 -0.79412433250E+01  0.41022614405E+02 -0.71743645979E+02  0.83024508289E+02  0.00000000000E+00 0. -1.
         -2    1    6    6    0  503 -0.30213281119E+02  0.11994316976E+03 -0.11592562646E+02  0.12423201615E+03  0.00000000000E+00 0.  1.
<mgrwt>
<rscale>  0 0.46768670E+03</rscale>
<asrwt>0</asrwt>
<pdfrwt beam="1">  1        2 0.20535075E+00 0.46768670E+03</pdfrwt>
<pdfrwt beam="2">  1       -2 0.47552214E-01 0.46768670E+03</pdfrwt>
<totfact> 0.69598124E+01</totfact>
</mgrwt>
</event>
<event>
12    1  0.1338445E-007  0.8670608E+03  0.7818608E-02  0.9467720E-01
          2   -1    0    0  501    0  0.00000000000E+00  0.00000000000E+00  0.19704727370E+04  0.19704727370E+04  0.00000000000E+00 0.  1.
         -2   -1    0    0    0  501 -0.00000000000E+00 -0.00000000000E+00 -0.41744681385E+03  0.41744681385E+03  0.00000000000E+00 0. -1.
         23    2    1    2    0    0  0.13620083170E+03 -0.75836540874E+03  0.99974229496E+03  0.12655670716E+04  0.92231213639E+02 0.  0.
    5000000    2    1    2    0    0 -0.13620083170E+03  0.75836540874E+03  0.55328362814E+03  0.11223524792E+04  0.59990295428E+03 0.  0.
         23    2    4    4    0    0 -0.34746800233E+03  0.37873851233E+03  0.38102098699E+03  0.64651178559E+03  0.92863464439E+02 0.  0.
         23    2    4    4    0    0  0.21126717063E+03  0.37962689642E+03  0.17226264115E+03  0.47584069356E+03  0.89440204822E+02 0.  0.
          4    1    3    3  502    0  0.67623486565E+02 -0.51558515894E+03  0.61342425444E+03  0.80417057145E+03  0.00000000000E+00 0.  1.
         -4    1    3    3    0  502  0.68577345131E+02 -0.24278024980E+03  0.38631804052E+03  0.46139650020E+03  0.00000000000E+00 0. -1.
         13    1    5    5    0    0 -0.96181580010E+02  0.16799394841E+03  0.12468343772E+03  0.23025816528E+03  0.00000000000E+00 0.  1.
        -13    1    5    5    0    0 -0.25128642232E+03  0.21074456391E+03  0.25633754927E+03  0.41625362032E+03  0.00000000000E+00 0. -1.
          3    1    6    6  503    0  0.19284296114E+02  0.59324570305E+01 -0.34172228914E+01  0.20463517178E+02  0.00000000000E+00 0. -1.
         -3    1    6    6    0  503  0.19198287452E+03  0.37369443939E+03  0.17567986405E+03  0.45537717638E+03  0.00000000000E+00 0.  1.
<mgrwt>
<rscale>  0 0.86706077E+03</rscale>
<asrwt>0</asrwt>
<pdfrwt beam="1">  1        2 0.30314964E+00 0.86706077E+03</pdfrwt>
<pdfrwt beam="2">  1       -2 0.64222588E-01 0.86706077E+03</pdfrwt>
<totfact> 0.15827056E+01</totfact>
</mgrwt>
</event>
<event>
12    1  0.1338445E-007  0.4338686E+03  0.7818608E-02  0.1032645E+00
          2   -1    0    0  501    0  0.00000000000E+00  0.00000000000E+00  0.91163287072E+03  0.91163287072E+03  0.00000000000E+00 0.  1.
         -2   -1    0    0    0  501 -0.00000000000E+00 -0.00000000000E+00 -0.35733710094E+03  0.35733710094E+03  0.00000000000E+00 0. -1.
         23    2    1    2    0    0  0.28402683841E+03 -0.28787788217E+03  0.23495320806E+03  0.47789697784E+03  0.98171235475E+02 0.  0.
    5000000    2    1    2    0    0 -0.28402683841E+03  0.28787788217E+03  0.31934256173E+03  0.79107299382E+03  0.60022653210E+03 0.  0.
         23    2    4    4    0    0 -0.58937482380E+02  0.12269813083E+03 -0.15967429612E+03  0.22893586154E+03  0.91582147403E+02 0.  0.
         23    2    4    4    0    0 -0.22508935603E+03  0.16517975134E+03  0.47901685784E+03  0.56213713227E+03  0.92690004502E+02 0.  0.
          1    1    3    3  502    0  0.12026624455E+03 -0.18392143785E+03  0.98979915960E+02  0.24101470628E+03  0.00000000000E+00 0. -1.
         -1    1    3    3    0  502  0.16376059385E+03 -0.10395644431E+03  0.13597329210E+03  0.23688227156E+03  0.00000000000E+00 0.  1.
         13    1    5    5    0    0 -0.51629499472E+02  0.16105953080E+02 -0.75739135724E+02  0.93066769690E+02  0.00000000000E+00 0. -1.
        -13    1    5    5    0    0 -0.73079829077E+01  0.10659217775E+03 -0.83935160391E+02  0.13586909185E+03  0.00000000000E+00 0.  1.
          1    1    6    6  503    0 -0.86254407601E+02  0.13228431396E+02  0.12121763894E+03  0.14936040378E+03  0.00000000000E+00 0. -1.
         -1    1    6    6    0  503 -0.13883494843E+03  0.15195131995E+03  0.35779921890E+03  0.41277672849E+03  0.00000000000E+00 0.  1.
<mgrwt>
<rscale>  0 0.43386861E+03</rscale>
<asrwt>0</asrwt>
<pdfrwt beam="1">  1        2 0.14025121E+00 0.43386861E+03</pdfrwt>
<pdfrwt beam="2">  1       -2 0.54974939E-01 0.43386861E+03</pdfrwt>
<totfact> 0.93500407E+01</totfact>
</mgrwt>
</event>
<event>
12    1  0.1338445E-007  0.5017260E+03  0.7818608E-02  0.1013329E+00
          2   -1    0    0  501    0  0.00000000000E+00  0.00000000000E+00  0.62132048527E+03  0.62132048527E+03  0.00000000000E+00 0. -1.
         -2   -1    0    0    0  501 -0.00000000000E+00 -0.00000000000E+00 -0.11670361519E+04  0.11670361519E+04  0.00000000000E+00 0.  1.
         23    2    1    2    0    0 -0.39592789862E+02 -0.47567244566E+03  0.35790316514E+03  0.60349025820E+03  0.90961264083E+02 0.  0.
    5000000    2    1    2    0    0  0.39592789862E+02  0.47567244566E+03 -0.90361883176E+03  0.11848663790E+04  0.59962444773E+03 0.  0.
         23    2    4    4    0    0 -0.63602552740E+02  0.23638221004E+03 -0.22322007878E+02  0.26131743731E+03  0.88694402683E+02 0.  0.
         23    2    4    4    0    0  0.10319534260E+03  0.23929023562E+03 -0.88129682389E+03  0.92354894165E+03  0.91375380938E+02 0.  0.
          1    1    3    3  502    0 -0.62674151248E+02 -0.25050275644E+03  0.21295000708E+03  0.33470492338E+03  0.00000000000E+00 0. -1.
         -1    1    3    3    0  502  0.23081361386E+02 -0.22516968922E+03  0.14495315806E+03  0.26878533482E+03  0.00000000000E+00 0.  1.
         13    1    5    5    0    0 -0.73845072401E+02  0.11724008872E+03 -0.28958455617E+02  0.14155184659E+03  0.00000000000E+00 0. -1.
        -13    1    5    5    0    0  0.10242519661E+02  0.11914212132E+03  0.66364477387E+01  0.11976559072E+03  0.00000000000E+00 0.  1.
          1    1    6    6  503    0  0.77608743436E+01  0.24535982253E+02 -0.22459678320E+03  0.22606627484E+03  0.00000000000E+00 0. -1.
         -1    1    6    6    0  503  0.95434468259E+02  0.21475425337E+03 -0.65670004068E+03  0.69748266681E+03  0.00000000000E+00 0.  1.
<mgrwt>
<rscale>  0 0.50172599E+03</rscale>
<asrwt>0</asrwt>
<pdfrwt beam="1">  1        2 0.95587769E-01 0.50172599E+03</pdfrwt>
<pdfrwt beam="2">  1       -2 0.17954402E+00 0.50172599E+03</pdfrwt>
<totfact> 0.91364246E+00</totfact>
</mgrwt>
</event>
<event>
12    1  0.1338445E-007  0.8124768E+03  0.7818608E-02  0.9542131E-01
         -2   -1    0    0    0  501 -0.00000000000E+00  0.00000000000E+00  0.32652306128E+03  0.32652306128E+03  0.00000000000E+00 0.  1.
          2   -1    0    0  501    0  0.00000000000E+00 -0.00000000000E+00 -0.25001467875E+04  0.25001467875E+04  0.00000000000E+00 0. -1.
         23    2    1    2    0    0 -0.54196489336E+03 -0.58835043494E+03 -0.92427419797E+03  0.12264463760E+04  0.10002869740E+03 0.  0.
    5000000    2    1    2    0    0  0.54196489336E+03  0.58835043494E+03 -0.12493495283E+04  0.16002234728E+04  0.59996561492E+03 0.  0.
         23    2    4    4    0    0  0.33725566781E+03  0.31650934562E+03 -0.23588344759E+03  0.52710601178E+03  0.90995579420E+02 0.  0.
         23    2    4    4    0    0  0.20470922556E+03  0.27184108932E+03 -0.10134660807E+04  0.10731174610E+04  0.93081381205E+02 0.  0.
          2    1    3    3  502    0 -0.20513324620E+03 -0.16118592635E+03 -0.33247151547E+03  0.42260840047E+03  0.00000000000E+00 0.  1.
         -2    1    3    3    0  502 -0.33683164716E+03 -0.42716450859E+03 -0.59180268250E+03  0.80383797556E+03  0.00000000000E+00 0. -1.
         13    1    5    5    0    0  0.20857867451E+03  0.15025117864E+03 -0.95115572093E+02  0.27409387479E+03  0.00000000000E+00 0. -1.
        -13    1    5    5    0    0  0.12867699329E+03  0.16625816698E+03 -0.14076787550E+03  0.25301213699E+03  0.00000000000E+00 0.  1.
          4    1    6    6  503    0  0.12175021899E+03  0.85396855019E+02 -0.42183747773E+03  0.44728357480E+03  0.00000000000E+00 0.  1.
         -4    1    6    6    0  503  0.82959006572E+02  0.18644423430E+03 -0.59162860296E+03  0.62583388620E+03  0.00000000000E+00 0. -1.
<mgrwt>
<rscale>  0 0.81247681E+03</rscale>
<asrwt>0</asrwt>
<pdfrwt beam="1">  1        2 0.38463798E+00 0.81247681E+03</pdfrwt>
<pdfrwt beam="2">  1       -2 0.50234316E-01 0.81247681E+03</pdfrwt>
<totfact> 0.13534944E+01</totfact>
</mgrwt>
</event>
<event>
12    1  0.1338445E-007  0.8539588E+03  0.7818608E-02  0.9485039E-01
          1   -1    0    0  501    0  0.00000000000E+00  0.00000000000E+00  0.17088220930E+04  0.17088220930E+04  0.00000000000E+00 0. -1.
         -1   -1    0    0    0  501 -0.00000000000E+00 -0.00000000000E+00 -0.50587328980E+03  0.50587328980E+03  0.00000000000E+00 0.  1.
         23    2    1    2    0    0 -0.77055875402E+03  0.74497496751E+02  0.89752540029E+03  0.11888686418E+04  0.92445296246E+02 0.  0.
    5000000    2    1    2    0    0  0.77055875402E+03 -0.74497496751E+02  0.30542340289E+03  0.10258267410E+04  0.59977193758E+03 0.  0.
         23    2    4    4    0    0  0.81552700019E+03  0.19346642383E+02  0.18534752411E+03  0.84141294175E+03  0.90351830356E+02 0.  0.
         23    2    4    4    0    0 -0.44968246167E+02 -0.93844139134E+02  0.12007587877E+03  0.18441379925E+03  0.93602174537E+02 0.  0.
          3    1    3    3  502    0 -0.57944088233E+03  0.39049245976E+02  0.72537908722E+03  0.92922085636E+03  0.00000000000E+00 0. -1.
         -3    1    3    3    0  502 -0.19111787169E+03  0.35448250776E+02  0.17214631307E+03  0.25964778541E+03  0.00000000000E+00 0.  1.
         11    1    5    5    0    0  0.53881669410E+03  0.47035974765E+02  0.95995309010E+02  0.54931858890E+03  0.00000000000E+00 0.  1.
        -11    1    5    5    0    0  0.27671030608E+03 -0.27689332382E+02  0.89352215105E+02  0.29209435285E+03  0.00000000000E+00 0. -1.
          1    1    6    6  503    0 -0.16304898197E+02 -0.80633975641E+02  0.12773763215E+03  0.15193613922E+03  0.00000000000E+00 0. -1.
         -1    1    6    6    0  503 -0.28663347971E+02 -0.13210163493E+02 -0.76617533790E+01  0.32477660033E+02  0.00000000000E+00 0.  1.
<mgrwt>
<rscale>  0 0.85395884E+03</rscale>
<asrwt>0</asrwt>
<pdfrwt beam="1">  1        1 0.26289570E+00 0.85395884E+03</pdfrwt>
<pdfrwt beam="2">  1       -1 0.77826661E-01 0.85395884E+03</pdfrwt>
<totfact> 0.79814347E+00</totfact>
</mgrwt>
</event>
<event>
12    1  0.1338445E-007  0.6896284E+03  0.7818608E-02  0.9735135E-01
         -1   -1    0    0    0  501 -0.00000000000E+00  0.00000000000E+00  0.20076478655E+04  0.20076478655E+04  0.00000000000E+00 0.  1.
          1   -1    0    0  501    0  0.00000000000E+00 -0.00000000000E+00 -0.87171653159E+03  0.87171653159E+03  0.00000000000E+00 0. -1.
         23    2    1    2    0    0 -0.65580316877E+01 -0.57805930867E+03  0.17494066757E+04  0.18446205177E+04  0.89473824060E+02 0.  0.
    5000000    2    1    2    0    0  0.65580316877E+01  0.57805930867E+03 -0.61347534183E+03  0.10347438794E+04  0.60012276138E+03 0.  0.
         23    2    4    4    0    0 -0.20010695987E+03  0.53366797735E+03 -0.31503049155E+03  0.65752898938E+03  0.90861740252E+02 0.  0.
         23    2    4    4    0    0  0.20666499156E+03  0.44391331326E+02 -0.29844485028E+03  0.37721488998E+03  0.92416099946E+02 0.  0.
          4    1    3    3  502    0  0.36468827877E+02 -0.15300984631E+03  0.43889351236E+03  0.46622902490E+03  0.00000000000E+00 0. -1.
         -4    1    3    3    0  502 -0.43026859565E+02 -0.42504946236E+03  0.13105131634E+04  0.13783914928E+04  0.00000000000E+00 0.  1.
         11    1    5    5    0    0 -0.20733371321E+03  0.52440045268E+03 -0.30092908616E+03  0.63917244801E+03  0.00000000000E+00 0.  1.
        -11    1    5    5    0    0  0.72267533342E+01  0.92675246681E+01 -0.14101405388E+02  0.18356541372E+02  0.00000000000E+00 0. -1.
          3    1    6    6  503    0  0.12779191795E+03  0.55708018941E+02 -0.12884272755E+03  0.18982783281E+03  0.00000000000E+00 0. -1.
         -3    1    6    6    0  503  0.78873073613E+02 -0.11316687615E+02 -0.16960212273E+03  0.18738705717E+03  0.00000000000E+00 0.  1.
<mgrwt>
<rscale>  0 0.68962842E+03</rscale>
<asrwt>0</asrwt>
<pdfrwt beam="1">  1        1 0.13411024E+00 0.68962842E+03</pdfrwt>
<pdfrwt beam="2">  1       -1 0.30886890E+00 0.68962842E+03</pdfrwt>
<totfact> 0.59767962E-01</totfact>
</mgrwt>
</event>
<event>
12    1  0.1338445E-007  0.8045286E+03  0.7818608E-02  0.9553485E-01
          2   -1    0    0  501    0  0.00000000000E+00  0.00000000000E+00  0.11848374787E+04  0.11848374787E+04  0.00000000000E+00 0. -1.
         -2   -1    0    0    0  501 -0.00000000000E+00 -0.00000000000E+00 -0.71773497751E+03  0.71773497751E+03  0.00000000000E+00 0.  1.
         23    2    1    2    0    0 -0.13832833920E+03 -0.69597007985E+03 -0.21738059747E+03  0.74838485652E+03  0.96521955224E+02 0.  0.
    5000000    2    1    2    0    0  0.13832833920E+03  0.69597007985E+03  0.68448309871E+03  0.11541875997E+04  0.60010234250E+03 0.  0.
         23    2    4    4    0    0  0.29128527558E+03  0.64589426016E+03  0.41011492848E+03  0.82379823899E+03  0.91775688057E+02 0.  0.
         23    2    4    4    0    0 -0.15295693639E+03  0.50075819685E+02  0.27436817023E+03  0.33038936074E+03  0.89307473073E+02 0.  0.
          2    1    3    3  502    0 -0.14512942693E+02 -0.31834012692E+03 -0.92922609273E+02  0.33194227394E+03  0.00000000000E+00 0. -1.
         -2    1    3    3    0  502 -0.12381539650E+03 -0.37762995293E+03 -0.12445798820E+03  0.41644258258E+03  0.00000000000E+00 0.  1.
         11    1    5    5    0    0  0.80021094785E+02  0.15333225446E+03  0.57572751400E+02  0.18228762320E+03  0.00000000000E+00 0.  1.
        -11    1    5    5    0    0  0.21126418080E+03  0.49256200570E+03  0.35254217708E+03  0.64151061579E+03  0.00000000000E+00 0. -1.
          3    1    6    6  503    0 -0.10663736739E+03  0.76030979744E+02  0.19563347573E+03  0.23542449922E+03  0.00000000000E+00 0. -1.
         -3    1    6    6    0  503 -0.46319568996E+02 -0.25955160059E+02  0.78734694495E+02  0.94964861517E+02  0.00000000000E+00 0.  1.
<mgrwt>
<rscale>  0 0.80452859E+03</rscale>
<asrwt>0</asrwt>
<pdfrwt beam="1">  1        2 0.18228269E+00 0.80452859E+03</pdfrwt>
<pdfrwt beam="2">  1       -2 0.11042077E+00 0.80452859E+03</pdfrwt>
<totfact> 0.12753365E+01</totfact>
</mgrwt>
</event>
<event>
12    1  0.1338445E-007  0.1755120E+04  0.7818608E-02  0.8730537E-01
         -2   -1    0    0    0  501 -0.00000000000E+00  0.00000000000E+00  0.15190551658E+04  0.15190551658E+04  0.00000000000E+00 0.  1.
          2   -1    0    0  501    0  0.00000000000E+00 -0.00000000000E+00 -0.26859749460E+04  0.26859749460E+04  0.00000000000E+00 0. -1.
         23    2    1    2    0    0 -0.27952567664E+03  0.17211121648E+04 -0.15348545796E+04  0.23246773272E+04  0.89355510811E+02 0.  0.
    5000000    2    1    2    0    0  0.27952567664E+03 -0.17211121648E+04  0.36793479941E+03  0.18803527846E+04  0.59999074167E+03 0.  0.
         23    2    4    4    0    0  0.13963025935E+03 -0.25608649181E+03 -0.11835918044E+03  0.32767767998E+03  0.91032223661E+02 0.  0.
         23    2    4    4    0    0  0.13989541729E+03 -0.14650256730E+04  0.48629397985E+03  0.15526751046E+04  0.91908624597E+02 0.  0.
          2    1    3    3  502    0 -0.18513746915E+03  0.11803672257E+04 -0.99636869886E+03  0.15557291712E+04  0.00000000000E+00 0. -1.
         -2    1    3    3    0  502 -0.94388207489E+02  0.54074493912E+03 -0.53848588079E+03  0.76894815606E+03  0.00000000000E+00 0.  1.
         13    1    5    5    0    0  0.30832875664E+02 -0.92379613358E+02 -0.83001205842E+02  0.12796038198E+03  0.00000000000E+00 0. -1.
        -13    1    5    5    0    0  0.10879738369E+03 -0.16370687845E+03 -0.35357974603E+02  0.19971729799E+03  0.00000000000E+00 0.  1.
          3    1    6    6  503    0  0.62502561923E+02 -0.91411334216E+03  0.26334278589E+03  0.95334106984E+03  0.00000000000E+00 0. -1.
         -3    1    6    6    0  503  0.77392855369E+02 -0.55091233087E+03  0.22295119397E+03  0.59933403479E+03  0.00000000000E+00 0.  1.
<mgrwt>
<rscale>  0 0.17551202E+04</rscale>
<asrwt>0</asrwt>
<pdfrwt beam="1">  1        2 0.41322691E+00 0.17551202E+04</pdfrwt>
<pdfrwt beam="2">  1       -2 0.23370080E+00 0.17551202E+04</pdfrwt>
<totfact> 0.20017063E-01</totfact>
</mgrwt>
</event>
<event>
12    1  0.1338445E-007  0.5000720E+03  0.7818608E-02  0.1013760E+00
         -1   -1    0    0    0  501 -0.00000000000E+00  0.00000000000E+00  0.37705574321E+03  0.37705574321E+03  0.00000000000E+00 0.  1.
          1   -1    0    0  501    0  0.00000000000E+00 -0.00000000000E+00 -0.10312511696E+04  0.10312511696E+04  0.00000000000E+00 0. -1.
         23    2    1    2    0    0  0.36647009108E+03 -0.23249224909E+03 -0.46995271868E+03  0.64539765153E+03  0.85613067133E+02 0.  0.
    5000000    2    1    2    0    0 -0.36647009108E+03  0.23249224909E+03 -0.18424270767E+03  0.76290926125E+03  0.59977678518E+03 0.  0.
         23    2    4    4    0    0 -0.42110089140E+03  0.13380108700E+03 -0.32858068650E+03  0.55801132924E+03  0.90458191437E+02 0.  0.
         23    2    4    4    0    0  0.54630800323E+02  0.98691162083E+02  0.14433797883E+03  0.20489793201E+03  0.91789109345E+02 0.  0.
          1    1    3    3  502    0  0.22801955460E+03 -0.94382106268E+02 -0.25905556254E+03  0.35778580708E+03  0.00000000000E+00 0. -1.
         -1    1    3    3    0  502  0.13845053648E+03 -0.13811014282E+03 -0.21089715614E+03  0.28761184445E+03  0.00000000000E+00 0.  1.
         11    1    5    5    0    0 -0.19960051830E+03  0.76484446009E+02 -0.21267855285E+03  0.30153342142E+03  0.00000000000E+00 0. -1.
        -11    1    5    5    0    0 -0.22150037310E+03  0.57316640994E+02 -0.11590213365E+03  0.25647790782E+03  0.00000000000E+00 0.  1.
          3    1    6    6  503    0  0.22157984322E+02  0.64050968144E+02  0.18284292828E+02  0.70198419880E+02  0.00000000000E+00 0. -1.
         -3    1    6    6    0  503  0.32472816001E+02  0.34640193939E+02  0.12605368600E+03  0.13469951213E+03  0.00000000000E+00 0.  1.
<mgrwt>
<rscale>  0 0.50007205E+03</rscale>
<asrwt>0</asrwt>
<pdfrwt beam="1">  1        1 0.15865402E+00 0.50007205E+03</pdfrwt>
<pdfrwt beam="2">  1       -1 0.58008578E-01 0.50007205E+03</pdfrwt>
<totfact> 0.45548903E+01</totfact>
</mgrwt>
</event>
<event>
12    1  0.1338445E-007  0.4993091E+03  0.7818608E-02  0.1013959E+00
          2   -1    0    0  501    0  0.00000000000E+00  0.00000000000E+00  0.10886313658E+04  0.10886313658E+04  0.00000000000E+00 0. -1.
         -2   -1    0    0    0  501 -0.00000000000E+00 -0.00000000000E+00 -0.38010463869E+03  0.38010463869E+03  0.00000000000E+00 0.  1.
         23    2    1    2    0    0  0.28755421750E+03 -0.20556687676E+03  0.67967639934E+03  0.77120186259E+03  0.88584063051E+02 0.  0.
    5000000    2    1    2    0    0 -0.28755421750E+03  0.20556687676E+03  0.28850327790E+02  0.69753414192E+03  0.60064662565E+03 0.  0.
         23    2    4    4    0    0 -0.42211233326E+03  0.25992268491E+03 -0.53364670340E+02  0.50636965452E+03  0.88452331545E+02 0.  0.
         23    2    4    4    0    0  0.13455811576E+03 -0.54355808151E+02  0.82214998129E+02  0.19116448740E+03  0.93402970660E+02 0.  0.
          4    1    3    3  502    0  0.12861747784E+03 -0.64983974008E+02  0.19825609489E+03  0.24509355692E+03  0.00000000000E+00 0. -1.
         -4    1    3    3    0  502  0.15893673966E+03 -0.14058290275E+03  0.48142030445E+03  0.52610830567E+03  0.00000000000E+00 0.  1.
         11    1    5    5    0    0 -0.15648374857E+03  0.80478935885E+02 -0.59493694885E+02  0.18575123800E+03  0.00000000000E+00 0. -1.
        -11    1    5    5    0    0 -0.26562858470E+03  0.17944374903E+03  0.61290245455E+01  0.32061841652E+03  0.00000000000E+00 0.  1.
          4    1    6    6  503    0  0.77984087003E+02 -0.38931393388E+02 -0.35909514629E+01  0.87235693092E+02  0.00000000000E+00 0. -1.
         -4    1    6    6    0  503  0.56574028758E+02 -0.15424414763E+02  0.85805949592E+02  0.10392879431E+03  0.00000000000E+00 0.  1.
<mgrwt>
<rscale>  0 0.49930907E+03</rscale>
<asrwt>0</asrwt>
<pdfrwt beam="1">  1        2 0.16748175E+00 0.49930907E+03</pdfrwt>
<pdfrwt beam="2">  1       -2 0.58477637E-01 0.49930907E+03</pdfrwt>
<totfact> 0.63146137E+01</totfact>
</mgrwt>
</event>
<event>
12    1  0.1338445E-007  0.9127668E+03  0.7818608E-02  0.9409762E-01
          1   -1    0    0  501    0  0.00000000000E+00  0.00000000000E+00  0.10740654512E+04  0.10740654512E+04  0.00000000000E+00 0. -1.
         -1   -1    0    0    0  501 -0.00000000000E+00 -0.00000000000E+00 -0.98733145428E+03  0.98733145428E+03  0.00000000000E+00 0.  1.
         23    2    1    2    0    0  0.66322273332E+03 -0.50170749704E+03  0.47843416606E+03  0.96365113999E+03  0.90274369429E+02 0.  0.
    5000000    2    1    2    0    0 -0.66322273332E+03  0.50170749704E+03 -0.39170016911E+03  0.10977457655E+04  0.60003494617E+03 0.  0.
         23    2    4    4    0    0 -0.26186920172E+03 -0.81157281779E+02 -0.95046992024E+01  0.28855578826E+03  0.89510448757E+02 0.  0.
         23    2    4    4    0    0 -0.40135353160E+03  0.58286477882E+03 -0.38219546991E+03  0.80918997725E+03  0.88876511765E+02 0.  0.
          2    1    3    3  502    0  0.47638661413E+03 -0.39039738104E+03  0.31631349016E+03  0.69239334580E+03  0.00000000000E+00 0. -1.
         -2    1    3    3    0  502  0.18683611919E+03 -0.11131011600E+03  0.16212067589E+03  0.27125779419E+03  0.00000000000E+00 0.  1.
         13    1    5    5    0    0 -0.19762230100E+03 -0.35537138503E+02  0.25366691067E+02  0.20238807050E+03  0.00000000000E+00 0.  1.
        -13    1    5    5    0    0 -0.64246900721E+02 -0.45620143276E+02 -0.34871390269E+02  0.86167717760E+02  0.00000000000E+00 0. -1.
          4    1    6    6  503    0 -0.47569069531E+02  0.30203427135E+02 -0.40199494235E+02  0.69217503014E+02  0.00000000000E+00 0. -1.
         -4    1    6    6    0  503 -0.35378446207E+03  0.55266135168E+03 -0.34199597567E+03  0.73997247423E+03  0.00000000000E+00 0.  1.
<mgrwt>
<rscale>  0 0.91276677E+03</rscale>
<asrwt>0</asrwt>
<pdfrwt beam="1">  1        1 0.16524084E+00 0.91276677E+03</pdfrwt>
<pdfrwt beam="2">  1       -1 0.15189715E+00 0.91276677E+03</pdfrwt>
<totfact> 0.45347640E+00</totfact>
</mgrwt>
</event>
<event>
12    1  0.1338445E-007  0.1195849E+04  0.7818608E-02  0.9116498E-01
         -2   -1    0    0    0  501 -0.00000000000E+00  0.00000000000E+00  0.17357395503E+04  0.17357395503E+04  0.00000000000E+00 0.  1.
          2   -1    0    0  501    0  0.00000000000E+00 -0.00000000000E+00 -0.14469209677E+04  0.14469209677E+04  0.00000000000E+00 0. -1.
         23    2    1    2    0    0 -0.57424471296E+03  0.10042129525E+04  0.11394672061E+04  0.16263825704E+04  0.92380232325E+02 0.  0.
    5000000    2    1    2    0    0  0.57424471296E+03 -0.10042129525E+04 -0.85064862356E+03  0.15562779476E+04  0.60016441507E+03 0.  0.
         23    2    4    4    0    0  0.58495380539E+03 -0.96895528539E+03 -0.89676327928E+03  0.14468419155E+04  0.90121305901E+02 0.  0.
         23    2    4    4    0    0 -0.10709092433E+02 -0.35257667065E+02  0.46114655722E+02  0.10943603211E+03  0.92151483457E+02 0.  0.
          2    1    3    3  502    0 -0.16067306489E+03  0.25319326064E+03  0.24342791325E+03  0.38623802242E+03  0.00000000000E+00 0. -1.
         -2    1    3    3    0  502 -0.41357164807E+03  0.75101969181E+03  0.89603929285E+03  0.12401445480E+04  0.00000000000E+00 0.  1.
         11    1    5    5    0    0  0.33841059665E+03 -0.47572222603E+03 -0.47429695477E+03  0.75219078003E+03  0.00000000000E+00 0. -1.
        -11    1    5    5    0    0  0.24654320874E+03 -0.49323305936E+03 -0.42246632451E+03  0.69465113544E+03  0.00000000000E+00 0.  1.
          2    1    6    6  503    0 -0.41633675086E+01  0.31693320360E+02  0.14139059556E+02  0.34953014027E+02  0.00000000000E+00 0. -1.
         -2    1    6    6    0  503 -0.65457249240E+01 -0.66950987425E+02  0.31975596165E+02  0.74483018079E+02  0.00000000000E+00 0.  1.
<mgrwt>
<rscale>  0 0.11958491E+04</rscale>
<asrwt>0</asrwt>
<pdfrwt beam="1">  1        2 0.22260323E+00 0.11958491E+04</pdfrwt>
<pdfrwt beam="2">  1       -2 0.26703685E+00 0.11958491E+04</pdfrwt>
<totfact> 0.66919120E-01</totfact>
</mgrwt>
</event>
<event>
12    1  0.1338445E-007  0.1019777E+04  0.7818608E-02  0.9287116E-01
         -2   -1    0    0    0  501 -0.00000000000E+00  0.00000000000E+00  0.10172810475E+04  0.10172810475E+04  0.00000000000E+00 0.  1.
          2   -1    0    0  501    0  0.00000000000E+00 -0.00000000000E+00 -0.13998684868E+04  0.13998684868E+04  0.00000000000E+00 0. -1.
         23    2    1    2    0    0  0.42920319731E+03  0.84093170633E+03 -0.78208937072E+03  0.12293658623E+04  0.91077550730E+02 0.  0.
    5000000    2    1    2    0    0 -0.42920319731E+03 -0.84093170633E+03  0.39950193138E+03  0.11877836721E+04  0.59987226905E+03 0.  0.
         23    2    4    4    0    0 -0.42911247451E+03 -0.26466934465E+03  0.30651390273E+03  0.59723915359E+03  0.92501114850E+02 0.  0.
         23    2    4    4    0    0 -0.90722806895E-01 -0.57626236169E+03  0.92988028648E+02  0.59054451848E+03  0.89541817647E+02 0.  0.
          3    1    3    3  502    0  0.19170234862E+03  0.46790587102E+03 -0.39459814143E+03  0.64139955396E+03  0.00000000000E+00 0. -1.
         -3    1    3    3    0  502  0.23750084870E+03  0.37302583531E+03 -0.38749122929E+03  0.58796630832E+03  0.00000000000E+00 0.  1.
         13    1    5    5    0    0 -0.36596011464E+03 -0.25952218632E+03  0.27771003668E+03  0.52763759833E+03  0.00000000000E+00 0.  1.
        -13    1    5    5    0    0 -0.63152359866E+02 -0.51471583209E+01  0.28803866047E+02  0.69601555260E+02  0.00000000000E+00 0. -1.
          2    1    6    6  503    0 -0.31092858597E+02 -0.24330476522E+03  0.71336895430E+02  0.25544652529E+03  0.00000000000E+00 0.  1.
         -2    1    6    6    0  503  0.31002135790E+02 -0.33295759647E+03  0.21651133218E+02  0.33509799319E+03  0.00000000000E+00 0. -1.
<mgrwt>
<rscale>  0 0.10197767E+04</rscale>
<asrwt>0</asrwt>
<pdfrwt beam="1">  1        2 0.21536438E+00 0.10197767E+04</pdfrwt>
<pdfrwt beam="2">  1       -2 0.15650478E+00 0.10197767E+04</pdfrwt>
<totfact> 0.38314368E+00</totfact>
</mgrwt>
</event>
<event>
12    1  0.1338445E-007  0.1342780E+04  0.7818608E-02  0.8996311E-01
         -1   -1    0    0    0  501 -0.00000000000E+00  0.00000000000E+00  0.90407138852E+03  0.90407138852E+03  0.00000000000E+00 0.  1.
          1   -1    0    0  501    0  0.00000000000E+00 -0.00000000000E+00 -0.21380104698E+04  0.21380104698E+04  0.00000000000E+00 0. -1.
         23    2    1    2    0    0  0.73892040863E+03  0.10422503190E+04 -0.20935912293E+03  0.12978886772E+04  0.91622476448E+02 0.  0.
    5000000    2    1    2    0    0 -0.73892040863E+03 -0.10422503190E+04 -0.10245799584E+04  0.17441931812E+04  0.60013053931E+03 0.  0.
         23    2    4    4    0    0 -0.53346045648E+03 -0.26782651363E+03 -0.42079710032E+03  0.73660572694E+03  0.95951536170E+02 0.  0.
         23    2    4    4    0    0 -0.20545995215E+03 -0.77442380542E+03 -0.60378285808E+03  0.10075874542E+04  0.93449001348E+02 0.  0.
          4    1    3    3  502    0  0.64898723427E+03  0.87165453645E+03 -0.15656111606E+03  0.10979423684E+04  0.00000000000E+00 0. -1.
         -4    1    3    3    0  502  0.89933174357E+02  0.17059578260E+03 -0.52798006862E+02  0.19994630884E+03  0.00000000000E+00 0.  1.
         11    1    5    5    0    0 -0.41198644878E+03 -0.18080920071E+03 -0.35604683060E+03  0.57375443059E+03  0.00000000000E+00 0. -1.
        -11    1    5    5    0    0 -0.12147400770E+03 -0.87017312917E+02 -0.64750269713E+02  0.16285129635E+03  0.00000000000E+00 0.  1.
          2    1    6    6  503    0 -0.18737878345E+03 -0.54114449222E+03 -0.42854090617E+03  0.71525902875E+03  0.00000000000E+00 0. -1.
         -2    1    6    6    0  503 -0.18081168697E+02 -0.23327931320E+03 -0.17524195191E+03  0.29232842547E+03  0.00000000000E+00 0.  1.
<mgrwt>
<rscale>  0 0.13427802E+04</rscale>
<asrwt>0</asrwt>
<pdfrwt beam="1">  1        1 0.32892469E+00 0.13427802E+04</pdfrwt>
<pdfrwt beam="2">  1       -1 0.13908791E+00 0.13427802E+04</pdfrwt>
<totfact> 0.99036252E-01</totfact>
</mgrwt>
</event>
<event>
12    1  0.1338445E-007  0.1281930E+04  0.7818608E-02  0.9044019E-01
          1   -1    0    0  501    0  0.00000000000E+00  0.00000000000E+00  0.28417363498E+04  0.28417363498E+04  0.00000000000E+00 0.  1.
         -1   -1    0    0    0  501 -0.00000000000E+00 -0.00000000000E+00 -0.65669847560E+03  0.65669847560E+03  0.00000000000E+00 0. -1.
         23    2    1    2    0    0  0.91898989132E+03 -0.80173966453E+03  0.46949349487E+03  0.13097484019E+04  0.87680240606E+02 0.  0.
    5000000    2    1    2    0    0 -0.91898989132E+03  0.80173966453E+03  0.17155443793E+04  0.21886864234E+04  0.59993902427E+03 0.  0.
         23    2    4    4    0    0 -0.29728821024E+03 -0.24689577063E+02  0.29369428427E+03  0.42858521366E+03  0.91864561130E+02 0.  0.
         23    2    4    4    0    0 -0.62170168108E+03  0.82642924159E+03  0.14218500950E+04  0.17601012098E+04  0.82463957994E+02 0.  0.
          3    1    3    3  502    0  0.55949867895E+02 -0.24766832586E+02  0.17669523764E+02  0.63686700212E+02  0.00000000000E+00 0. -1.
         -3    1    3    3    0  502  0.86304002342E+03 -0.77697283194E+03  0.45182397111E+03  0.12460617017E+04  0.00000000000E+00 0.  1.
         11    1    5    5    0    0 -0.77105067546E+02 -0.38858026707E+02  0.49700233667E+02  0.99625553487E+02  0.00000000000E+00 0. -1.
        -11    1    5    5    0    0 -0.22018314269E+03  0.14168449644E+02  0.24399405060E+03  0.32895966017E+03  0.00000000000E+00 0.  1.
          1    1    6    6  503    0 -0.14497948755E+03  0.20954370108E+03  0.29448911002E+03  0.38942451180E+03  0.00000000000E+00 0. -1.
         -1    1    6    6    0  503 -0.47672219352E+03  0.61688554051E+03  0.11273609850E+04  0.13706766980E+04  0.00000000000E+00 0.  1.
<mgrwt>
<rscale>  0 0.12819300E+04</rscale>
<asrwt>0</asrwt>
<pdfrwt beam="1">  1        1 0.43719020E+00 0.12819300E+04</pdfrwt>
<pdfrwt beam="2">  1       -1 0.10103054E+00 0.12819300E+04</pdfrwt>
<totfact> 0.71201987E-01</totfact>
</mgrwt>
</event>
<event>
12    1  0.1338445E-007  0.8981237E+03  0.7818608E-02  0.9427930E-01
         -4   -1    0    0    0  501 -0.00000000000E+00  0.00000000000E+00  0.10702948258E+04  0.10702948258E+04  0.00000000000E+00 0.  1.
          4   -1    0    0  501    0  0.00000000000E+00 -0.00000000000E+00 -0.14545026760E+04  0.14545026760E+04  0.00000000000E+00 0. -1.
         23    2    1    2    0    0 -0.60294745316E+03  0.52058108581E+03 -0.10536277064E+04  0.13238580715E+04  0.88986243570E+02 0.  0.
    5000000    2    1    2    0    0  0.60294745316E+03 -0.52058108581E+03  0.66941985624E+03  0.12009394304E+04  0.59965179338E+03 0.  0.
         23    2    4    4    0    0  0.69291939120E+03 -0.34319290144E+03  0.51012372652E+03  0.93086782551E+03  0.91487933196E+02 0.  0.
         23    2    4    4    0    0 -0.89971938042E+02 -0.17738818437E+03  0.15929612972E+03  0.27007160485E+03  0.89453324217E+02 0.  0.
          1    1    3    3  502    0 -0.12795142190E+03  0.16108967540E+03 -0.26043345800E+03  0.33188407002E+03  0.00000000000E+00 0. -1.
         -1    1    3    3    0  502 -0.47499603126E+03  0.35949141041E+03 -0.79319424839E+03  0.99197400145E+03  0.00000000000E+00 0.  1.
         11    1    5    5    0    0  0.61572619822E+03 -0.27720437052E+03  0.42090837878E+03  0.79569144618E+03  0.00000000000E+00 0. -1.
        -11    1    5    5    0    0  0.77193192982E+02 -0.65988530925E+02  0.89215347741E+02  0.13517637933E+03  0.00000000000E+00 0.  1.
          3    1    6    6  503    0 -0.33903644615E+02 -0.15329507963E+03  0.11765349115E+03  0.19619169844E+03  0.00000000000E+00 0. -1.
         -3    1    6    6    0  503 -0.56068293427E+02 -0.24093104735E+02  0.41642638573E+02  0.73879906408E+02  0.00000000000E+00 0.  1.
<mgrwt>
<rscale>  0 0.89812370E+03</rscale>
<asrwt>0</asrwt>
<pdfrwt beam="1">  1        4 0.22376964E+00 0.89812370E+03</pdfrwt>
<pdfrwt beam="2">  1       -4 0.16466074E+00 0.89812370E+03</pdfrwt>
<totfact> 0.41275230E-02</totfact>
</mgrwt>
</event>
<event>
12    1  0.1338445E-007  0.9817100E+03  0.7818608E-02  0.9328836E-01
          2   -1    0    0  501    0  0.00000000000E+00  0.00000000000E+00  0.15287225113E+04  0.15287225113E+04  0.00000000000E+00 0. -1.
         -2   -1    0    0    0  501 -0.00000000000E+00 -0.00000000000E+00 -0.12389155981E+04  0.12389155981E+04  0.00000000000E+00 0.  1.
         23    2    1    2    0    0 -0.45044461154E+03 -0.81285296683E+03 -0.78980213927E+03  0.12222206173E+04  0.80034520542E+02 0.  0.
    5000000    2    1    2    0    0  0.45044461154E+03  0.81285296683E+03  0.10796090525E+04  0.15454174920E+04  0.59927391452E+03 0.  0.
         23    2    4    4    0    0  0.30244465817E+03  0.80366411514E+03  0.64889690727E+03  0.10803603539E+04  0.93608315544E+02 0.  0.
         23    2    4    4    0    0  0.14799995337E+03  0.91888516880E+01  0.43071214523E+03  0.46505713814E+03  0.93684409004E+02 0.  0.
          4    1    3    3  502    0 -0.22039393662E+03 -0.38727712312E+03 -0.32682562045E+03  0.55260478063E+03  0.00000000000E+00 0. -1.
         -4    1    3    3    0  502 -0.23005067492E+03 -0.42557584371E+03 -0.46297651883E+03  0.66961583670E+03  0.00000000000E+00 0.  1.
         11    1    5    5    0    0  0.11145725116E+03  0.36912547115E+03  0.24257605829E+03  0.45554305651E+03  0.00000000000E+00 0.  1.
        -11    1    5    5    0    0  0.19098740701E+03  0.43453864399E+03  0.40632084899E+03  0.62481729736E+03  0.00000000000E+00 0. -1.
          4    1    6    6  503    0  0.14510663957E+03  0.33826565223E+02  0.34434940964E+03  0.37520219786E+03  0.00000000000E+00 0. -1.
         -4    1    6    6    0  503  0.28933138018E+01 -0.24637713535E+02  0.86362735592E+02  0.89854940275E+02  0.00000000000E+00 0.  1.
<mgrwt>
<rscale>  0 0.98171001E+03</rscale>
<asrwt>0</asrwt>
<pdfrwt beam="1">  1        2 0.23518808E+00 0.98171001E+03</pdfrwt>
<pdfrwt beam="2">  1       -2 0.19060240E+00 0.98171001E+03</pdfrwt>
<totfact> 0.18698880E+00</totfact>
</mgrwt>
</event>
<event>
12    1  0.1338445E-007  0.8083192E+03  0.7818608E-02  0.9548053E-01
          2   -1    0    0  501    0  0.00000000000E+00  0.00000000000E+00  0.10399013700E+04  0.10399013700E+04  0.00000000000E+00 0. -1.
         -2   -1    0    0    0  501 -0.00000000000E+00 -0.00000000000E+00 -0.81655766841E+03  0.81655766841E+03  0.00000000000E+00 0.  1.
         23    2    1    2    0    0 -0.79287080552E+03 -0.13566985202E+03 -0.65730459120E+02  0.81212042751E+03  0.90380708848E+02 0.  0.
    5000000    2    1    2    0    0  0.79287080552E+03  0.13566985202E+03  0.28907416075E+03  0.10443386109E+04  0.60002403358E+03 0.  0.
         23    2    4    4    0    0  0.57797432401E+03  0.77123824107E+02 -0.87905341286E+02  0.59663312438E+03  0.90781785732E+02 0.  0.
         23    2    4    4    0    0  0.21489648151E+03  0.58546027916E+02  0.37697950204E+03  0.44770548655E+03  0.93373029211E+02 0.  0.
          4    1    3    3  502    0 -0.55773036708E+03 -0.56182301263E+02 -0.61010376502E+02  0.56386335169E+03  0.00000000000E+00 0.  1.
         -4    1    3    3    0  502 -0.23514043844E+03 -0.79487550759E+02 -0.47200826175E+01  0.24825707582E+03  0.00000000000E+00 0. -1.
         11    1    5    5    0    0  0.55595081056E+03  0.70645714865E+02 -0.64956697459E+02  0.56417328307E+03  0.00000000000E+00 0. -1.
        -11    1    5    5    0    0  0.22023513452E+02  0.64781092415E+01 -0.22948643828E+02  0.32459841307E+02  0.00000000000E+00 0.  1.
          1    1    6    6  503    0  0.15201800567E+03  0.54480707358E+02  0.18457298078E+03  0.24524438170E+03  0.00000000000E+00 0. -1.
         -1    1    6    6    0  503  0.62878475840E+02  0.40653205575E+01  0.19240652126E+03  0.20246110486E+03  0.00000000000E+00 0.  1.
<mgrwt>
<rscale>  0 0.80831923E+03</rscale>
<asrwt>0</asrwt>
<pdfrwt beam="1">  1        2 0.15998483E+00 0.80831923E+03</pdfrwt>
<pdfrwt beam="2">  1       -2 0.12562426E+00 0.80831923E+03</pdfrwt>
<totfact> 0.11371531E+01</totfact>
</mgrwt>
</event>
<event>
12    1  0.1338445E-007  0.8931658E+03  0.7818608E-02  0.9434165E-01
         -1   -1    0    0    0  501 -0.00000000000E+00  0.00000000000E+00  0.10073903390E+04  0.10073903390E+04  0.00000000000E+00 0.  1.
          1   -1    0    0  501    0  0.00000000000E+00 -0.00000000000E+00 -0.89898617012E+03  0.89898617012E+03  0.00000000000E+00 0. -1.
         23    2    1    2    0    0  0.18800903728E+03  0.83020027693E+03  0.12232819769E+03  0.86475338412E+03  0.90853340463E+02 0.  0.
    5000000    2    1    2    0    0 -0.18800903728E+03 -0.83020027693E+03 -0.13924028826E+02  0.10416231250E+04  0.60017077404E+03 0.  0.
         23    2    4    4    0    0 -0.26494539201E+03 -0.35806284269E+03 -0.22862430631E+03  0.50946609802E+03  0.94242090051E+02 0.  0.
         23    2    4    4    0    0  0.76936354728E+02 -0.47213743425E+03  0.21470027748E+03  0.53215702697E+03  0.90895174283E+02 0.  0.
          1    1    3    3  502    0  0.14871406159E+03  0.45273520468E+03  0.70887144797E+02  0.48177798307E+03  0.00000000000E+00 0. -1.
         -1    1    3    3    0  502  0.39294975686E+02  0.37746507226E+03  0.51441052893E+02  0.38297540105E+03  0.00000000000E+00 0.  1.
         11    1    5    5    0    0 -0.31172410825E+02 -0.11433847218E+02 -0.54396301732E+00  0.33207649038E+02  0.00000000000E+00 0. -1.
        -11    1    5    5    0    0 -0.23377298118E+03 -0.34662899547E+03 -0.22808034329E+03  0.47625844898E+03  0.00000000000E+00 0.  1.
          2    1    6    6  503    0  0.29584759135E+02 -0.11548013822E+03  0.96747941020E+02  0.15352877381E+03  0.00000000000E+00 0. -1.
         -2    1    6    6    0  503  0.47351595594E+02 -0.35665729603E+03  0.11795233646E+03  0.37862825316E+03  0.00000000000E+00 0.  1.
<mgrwt>
<rscale>  0 0.89316580E+03</rscale>
<asrwt>0</asrwt>
<pdfrwt beam="1">  1        1 0.13830556E+00 0.89316580E+03</pdfrwt>
<pdfrwt beam="2">  1       -1 0.15498313E+00 0.89316580E+03</pdfrwt>
<totfact> 0.59070454E+00</totfact>
</mgrwt>
</event>
<event>
12    1  0.1338445E-007  0.2344130E+04  0.7818608E-02  0.8460722E-01
          2   -1    0    0  501    0  0.00000000000E+00  0.00000000000E+00  0.29135970283E+04  0.29135970283E+04  0.00000000000E+00 0. -1.
         -2   -1    0    0    0  501 -0.00000000000E+00 -0.00000000000E+00 -0.25107110490E+04  0.25107110490E+04  0.00000000000E+00 0.  1.
         23    2    1    2    0    0 -0.22544464975E+04  0.59618046966E+03 -0.11061400018E+04  0.25826012356E+04  0.91231989892E+02 0.  0.
    5000000    2    1    2    0    0  0.22544464975E+04 -0.59618046966E+03  0.15090259812E+04  0.28417068418E+04  0.60014848191E+03 0.  0.
         23    2    4    4    0    0  0.15940189597E+04 -0.26138781599E+03  0.77181304291E+03  0.17927758512E+04  0.95550224198E+02 0.  0.
         23    2    4    4    0    0  0.66042753779E+03 -0.33479265368E+03  0.73721293828E+03  0.10489309906E+04  0.92318215751E+02 0.  0.
          3    1    3    3  502    0 -0.19956664364E+04  0.54237837013E+03 -0.95235475969E+03  0.22768044295E+04  0.00000000000E+00 0. -1.
         -3    1    3    3    0  502 -0.25878006106E+03  0.53802099534E+02 -0.15378524216E+03  0.30579680610E+03  0.00000000000E+00 0.  1.
         13    1    5    5    0    0  0.14445014459E+04 -0.24019834014E+03  0.72928567389E+03  0.16358903582E+04  0.00000000000E+00 0. -1.
        -13    1    5    5    0    0  0.14951751377E+03 -0.21189475844E+02  0.42527369019E+02  0.15688549304E+03  0.00000000000E+00 0.  1.
          1    1    6    6  503    0  0.41202069249E+02 -0.17580360853E+02  0.80897162930E+02  0.92471782551E+02  0.00000000000E+00 0. -1.
         -1    1    6    6    0  503  0.61922546854E+03 -0.31721229282E+03  0.65631577535E+03  0.95645920800E+03  0.00000000000E+00 0.  1.
<mgrwt>
<rscale>  0 0.23441305E+04</rscale>
<asrwt>0</asrwt>
<pdfrwt beam="1">  1        2 0.44824569E+00 0.23441305E+04</pdfrwt>
<pdfrwt beam="2">  1       -2 0.38626324E+00 0.23441305E+04</pdfrwt>
<totfact> 0.15258661E-02</totfact>
</mgrwt>
</event>
<event>
12    1  0.1338445E-007  0.1162683E+04  0.7818608E-02  0.9146162E-01
          2   -1    0    0  501    0  0.00000000000E+00  0.00000000000E+00  0.20299954996E+04  0.20299954996E+04  0.00000000000E+00 0.  1.
         -2   -1    0    0    0  501 -0.00000000000E+00 -0.00000000000E+00 -0.10344350631E+04  0.10344350631E+04  0.00000000000E+00 0. -1.
         23    2    1    2    0    0  0.57725966973E+03 -0.10012557079E+04 -0.33078438948E+03  0.12056935348E+04  0.92395176306E+02 0.  0.
    5000000    2    1    2    0    0 -0.57725966973E+03  0.10012557079E+04  0.13263448259E+04  0.18587370279E+04  0.59997585173E+03 0.  0.
         23    2    4    4    0    0 -0.49123816805E+03  0.82012184290E+03  0.68102815083E+03  0.11769338930E+04  0.86367072481E+02 0.  0.
         23    2    4    4    0    0 -0.86021501683E+02  0.18113386500E+03  0.64531667509E+03  0.68180313492E+03  0.90624101882E+02 0.  0.
          3    1    3    3  502    0  0.18124628487E+03 -0.30801731388E+03 -0.14699141141E+03  0.38643415539E+03  0.00000000000E+00 0. -1.
         -3    1    3    3    0  502  0.39601338487E+03 -0.69323839402E+03 -0.18379297807E+03  0.81925937940E+03  0.00000000000E+00 0.  1.
         11    1    5    5    0    0 -0.19361463856E+03  0.33771583736E+03  0.32900558348E+03  0.50968940447E+03  0.00000000000E+00 0.  1.
        -11    1    5    5    0    0 -0.29762352949E+03  0.48240600555E+03  0.35202256735E+03  0.66724448849E+03  0.00000000000E+00 0. -1.
          1    1    6    6  503    0 -0.32101207655E+02  0.14517872702E+03  0.51833815169E+03  0.53924186578E+03  0.00000000000E+00 0. -1.
         -1    1    6    6    0  503 -0.53920294029E+02  0.35955137977E+02  0.12697852340E+03  0.14256126914E+03  0.00000000000E+00 0.  1.
<mgrwt>
<rscale>  0 0.11626831E+04</rscale>
<asrwt>0</asrwt>
<pdfrwt beam="1">  1        2 0.31230700E+00 0.11626831E+04</pdfrwt>
<pdfrwt beam="2">  1       -2 0.15914386E+00 0.11626831E+04</pdfrwt>
<totfact> 0.16057795E+00</totfact>
</mgrwt>
</event>
<event>
12    1  0.1338445E-007  0.5737302E+03  0.7818608E-02  0.9961458E-01
         -1   -1    0    0    0  501 -0.00000000000E+00  0.00000000000E+00  0.49027719909E+03  0.49027719909E+03  0.00000000000E+00 0.  1.
          1   -1    0    0  501    0  0.00000000000E+00 -0.00000000000E+00 -0.11587729157E+04  0.11587729157E+04  0.00000000000E+00 0. -1.
         23    2    1    2    0    0  0.45688897677E+03  0.31162130322E+03  0.51059412335E+02  0.56113871888E+03  0.80088853927E+02 0.  0.
    5000000    2    1    2    0    0 -0.45688897677E+03 -0.31162130322E+03 -0.71955512898E+03  0.10879113959E+04  0.59994687104E+03 0.  0.
         23    2    4    4    0    0 -0.13813726408E+03 -0.16500713456E+03 -0.68379865605E+03  0.72279086765E+03  0.92394686845E+02 0.  0.
         23    2    4    4    0    0 -0.31875171270E+03 -0.14661416866E+03 -0.35756472936E+02  0.36512052830E+03  0.94530979231E+02 0.  0.
          3    1    3    3  502    0  0.33195891365E+03  0.22179503685E+03  0.70209315123E+00  0.39923708703E+03  0.00000000000E+00 0. -1.
         -3    1    3    3    0  502  0.12493006312E+03  0.89826266370E+02  0.50357319184E+02  0.16190163185E+03  0.00000000000E+00 0.  1.
         11    1    5    5    0    0 -0.15165227216E+03 -0.14427582826E+03 -0.60388485512E+03  0.63913288486E+03  0.00000000000E+00 0.  1.
        -11    1    5    5    0    0  0.13515008083E+02 -0.20731306296E+02 -0.79913800929E+02  0.83657982782E+02  0.00000000000E+00 0. -1.
          2    1    6    6  503    0 -0.23456356537E+03 -0.14562861306E+03 -0.71054144147E+01  0.27618516625E+03  0.00000000000E+00 0.  1.
         -2    1    6    6    0  503 -0.84188147327E+02 -0.98555560010E+00 -0.28651058521E+02  0.88935362059E+02  0.00000000000E+00 0. -1.
<mgrwt>
<rscale>  0 0.57373023E+03</rscale>
<asrwt>0</asrwt>
<pdfrwt beam="1">  1        1 0.17827276E+00 0.57373023E+03</pdfrwt>
<pdfrwt beam="2">  1       -1 0.75427261E-01 0.57373023E+03</pdfrwt>
<totfact> 0.21390147E+01</totfact>
</mgrwt>
</event>
<event>
12    1  0.1338445E-007  0.4620353E+03  0.7818608E-02  0.1024193E+00
         -1   -1    0    0    0  501 -0.00000000000E+00  0.00000000000E+00  0.39166891211E+03  0.39166891211E+03  0.00000000000E+00 0.  1.
          1   -1    0    0  501    0  0.00000000000E+00 -0.00000000000E+00 -0.25786360209E+04  0.25786360209E+04  0.00000000000E+00 0. -1.
         23    2    1    2    0    0  0.21652998590E+02 -0.27100837048E+03 -0.22862297241E+04  0.23041786812E+04  0.92079607261E+02 0.  0.
    5000000    2    1    2    0    0 -0.21652998590E+02  0.27100837048E+03  0.99262615376E+02  0.66612625179E+03  0.59996393833E+03 0.  0.
         23    2    4    4    0    0 -0.13506784324E+03  0.41138201855E+03  0.13190558491E+03  0.46146210007E+03  0.89831503400E+02 0.  0.
         23    2    4    4    0    0  0.11341484465E+03 -0.14037364807E+03 -0.32642969537E+02  0.20466415172E+03  0.90852426925E+02 0.  0.
          4    1    3    3  502    0  0.49729081129E+02 -0.14234965373E+03 -0.10136692136E+04  0.10248227554E+04  0.00000000000E+00 0. -1.
         -4    1    3    3    0  502 -0.28076082539E+02 -0.12865871675E+03 -0.12725605105E+04  0.12793559258E+04  0.00000000000E+00 0.  1.
         13    1    5    5    0    0 -0.39071930776E+02  0.24036501917E+03  0.48280438228E+02  0.24825986170E+03  0.00000000000E+00 0.  1.
        -13    1    5    5    0    0 -0.95995912467E+02  0.17101699938E+03  0.83625146685E+02  0.21320223837E+03  0.00000000000E+00 0. -1.
          2    1    6    6  503    0  0.60666601372E+02 -0.13613714012E+03 -0.26667453838E+02  0.15140974386E+03  0.00000000000E+00 0. -1.
         -2    1    6    6    0  503  0.52748243281E+02 -0.42365079577E+01 -0.59755156995E+01  0.53254407862E+02  0.00000000000E+00 0.  1.
<mgrwt>
<rscale>  0 0.46203534E+03</rscale>
<asrwt>0</asrwt>
<pdfrwt beam="1">  1        1 0.39671324E+00 0.46203534E+03</pdfrwt>
<pdfrwt beam="2">  1       -1 0.60256755E-01 0.46203534E+03</pdfrwt>
<totfact> 0.38013374E+00</totfact>
</mgrwt>
</event>
<event>
12    1  0.1338445E-007  0.1058361E+04  0.7818608E-02  0.9246754E-01
         -1   -1    0    0    0  501 -0.00000000000E+00  0.00000000000E+00  0.12247578215E+04  0.12247578215E+04  0.00000000000E+00 0.  1.
          1   -1    0    0  501    0  0.00000000000E+00 -0.00000000000E+00 -0.10718624853E+04  0.10718624853E+04  0.00000000000E+00 0. -1.
         23    2    1    2    0    0 -0.51210707222E+03  0.88283251646E+03  0.37751011066E+03  0.10915688512E+04  0.85800744374E+02 0.  0.
    5000000    2    1    2    0    0  0.51210707222E+03 -0.88283251646E+03 -0.22461477453E+03  0.12050514556E+04  0.60004192204E+03 0.  0.
         23    2    4    4    0    0  0.13580978534E+03 -0.59768855348E+03 -0.34432693994E+03  0.70913371473E+03  0.92917592774E+02 0.  0.
         23    2    4    4    0    0  0.37629728688E+03 -0.28514396298E+03  0.11971216540E+03  0.49591774089E+03  0.93255967320E+02 0.  0.
          4    1    3    3  502    0 -0.38162239305E+03  0.71083006745E+03  0.27319610133E+03  0.85179290057E+03  0.00000000000E+00 0. -1.
         -4    1    3    3    0  502 -0.13048467917E+03  0.17200244900E+03  0.10431400933E+03  0.23977595064E+03  0.00000000000E+00 0.  1.
         13    1    5    5    0    0  0.27679952682E+02 -0.15956532774E+03 -0.13869506976E+03  0.21322194064E+03  0.00000000000E+00 0.  1.
        -13    1    5    5    0    0  0.10812983266E+03 -0.43812322574E+03 -0.20563187018E+03  0.49591177409E+03  0.00000000000E+00 0. -1.
          3    1    6    6  503    0  0.10136358410E+03 -0.13094115586E+03  0.31230544304E+02  0.16850967146E+03  0.00000000000E+00 0. -1.
         -3    1    6    6    0  503  0.27493370278E+03 -0.15420280712E+03  0.88481621099E+02  0.32740806942E+03  0.00000000000E+00 0.  1.
<mgrwt>
<rscale>  0 0.10583613E+04</rscale>
<asrwt>0</asrwt>
<pdfrwt beam="1">  1        1 0.16490192E+00 0.10583613E+04</pdfrwt>
<pdfrwt beam="2">  1       -1 0.18842428E+00 0.10583613E+04</pdfrwt>
<totfact> 0.24056858E+00</totfact>
</mgrwt>
</event>
<event>
12    1  0.1338445E-007  0.5441564E+03  0.7818608E-02  0.1002856E+00
          2   -1    0    0  501    0  0.00000000000E+00  0.00000000000E+00  0.14119895503E+04  0.14119895503E+04  0.00000000000E+00 0. -1.
         -2   -1    0    0    0  501 -0.00000000000E+00 -0.00000000000E+00 -0.37649085128E+03  0.37649085128E+03  0.00000000000E+00 0.  1.
         23    2    1    2    0    0  0.47846486025E+03 -0.21929012027E+03  0.73832811925E+02  0.53900016365E+03  0.89739138388E+02 0.  0.
    5000000    2    1    2    0    0 -0.47846486025E+03  0.21929012027E+03  0.96166588715E+03  0.12494802380E+04  0.59948545206E+03 0.  0.
         23    2    4    4    0    0 -0.63840064492E+02  0.83352905742E+02 -0.46917893119E+02  0.14641283843E+03  0.90621023133E+02 0.  0.
         23    2    4    4    0    0 -0.41462479576E+03  0.13593721452E+03  0.10085837803E+04  0.11030673995E+04  0.95518577014E+02 0.  0.
          3    1    3    3  502    0  0.96646335950E+02 -0.60670571933E+02  0.50786414133E+02  0.12490273180E+03  0.00000000000E+00 0. -1.
         -3    1    3    3    0  502  0.38181852430E+03 -0.15861954833E+03  0.23046397791E+02  0.41409743185E+03  0.00000000000E+00 0.  1.
         13    1    5    5    0    0  0.79948356980E+01  0.68279287722E+00 -0.35389668366E+02  0.36287907504E+02  0.00000000000E+00 0.  1.
        -13    1    5    5    0    0 -0.71834900190E+02  0.82670112865E+02 -0.11528224752E+02  0.11012493093E+03  0.00000000000E+00 0. -1.
          2    1    6    6  503    0 -0.24328197885E+03  0.11957417000E+03  0.54822994603E+03  0.61158824146E+03  0.00000000000E+00 0. -1.
         -2    1    6    6    0  503 -0.17134281692E+03  0.16363044529E+02  0.46035383423E+03  0.49147915808E+03  0.00000000000E+00 0.  1.
<mgrwt>
<rscale>  0 0.54415640E+03</rscale>
<asrwt>0</asrwt>
<pdfrwt beam="1">  1        2 0.21722916E+00 0.54415640E+03</pdfrwt>
<pdfrwt beam="2">  1       -2 0.57921670E-01 0.54415640E+03</pdfrwt>
<totfact> 0.41626537E+01</totfact>
</mgrwt>
</event>
<event>
12    1  0.1338445E-007  0.9675052E+03  0.7818608E-02  0.9344921E-01
          1   -1    0    0  501    0  0.00000000000E+00  0.00000000000E+00  0.22737325613E+04  0.22737325613E+04  0.00000000000E+00 0. -1.
         -1   -1    0    0    0  501 -0.00000000000E+00 -0.00000000000E+00 -0.46246795768E+03  0.46246795768E+03  0.00000000000E+00 0.  1.
         23    2    1    2    0    0  0.84278273240E+03 -0.32187618543E+03  0.49193470860E+03  0.10290240214E+04  0.54805714800E+02 0.  0.
    5000000    2    1    2    0    0 -0.84278273240E+03  0.32187618543E+03  0.13193298950E+04  0.17071764975E+04  0.59994433834E+03 0.  0.
         23    2    4    4    0    0 -0.58990978858E+03 -0.30401645297E+02  0.98467248468E+03  0.11518023423E+04  0.90282417602E+02 0.  0.
         23    2    4    4    0    0 -0.25287294382E+03  0.35227783073E+03  0.33465741033E+03  0.55537415525E+03  0.91654101323E+02 0.  0.
          1    1    3    3  502    0  0.42890811651E+03 -0.18281155745E+03  0.23027699360E+03  0.52000935735E+03  0.00000000000E+00 0. -1.
         -1    1    3    3    0  502  0.41387461589E+03 -0.13906462797E+03  0.26165771500E+03  0.50901466408E+03  0.00000000000E+00 0.  1.
         13    1    5    5    0    0 -0.55958324119E+03 -0.80855210380E+01  0.93046750833E+03  0.10858031882E+04  0.00000000000E+00 0. -1.
        -13    1    5    5    0    0 -0.30326547396E+02 -0.22316124259E+02  0.54204976344E+02  0.65999154081E+02  0.00000000000E+00 0.  1.
          4    1    6    6  503    0 -0.14708877569E+03  0.17705459455E+03  0.23036762009E+03  0.32565730112E+03  0.00000000000E+00 0.  1.
         -4    1    6    6    0  503 -0.10578416813E+03  0.17522323617E+03  0.10428979024E+03  0.22971685413E+03  0.00000000000E+00 0. -1.
<mgrwt>
<rscale>  0 0.96750518E+03</rscale>
<asrwt>0</asrwt>
<pdfrwt beam="1">  1        1 0.34980500E+00 0.96750518E+03</pdfrwt>
<pdfrwt beam="2">  1       -1 0.71148918E-01 0.96750518E+03</pdfrwt>
<totfact> 0.39470934E+00</totfact>
</mgrwt>
</event>
<event>
12    1  0.1338445E-007  0.9511424E+03  0.7818608E-02  0.9363816E-01
         -2   -1    0    0    0  501 -0.00000000000E+00  0.00000000000E+00  0.42785286367E+03  0.42785286367E+03  0.00000000000E+00 0.  1.
          2   -1    0    0  501    0  0.00000000000E+00 -0.00000000000E+00 -0.35373550642E+04  0.35373550642E+04  0.00000000000E+00 0. -1.
         23    2    1    2    0    0  0.59167599234E+03  0.62598985696E+03 -0.27047586862E+04  0.28401423551E+04  0.93516124135E+02 0.  0.
    5000000    2    1    2    0    0 -0.59167599234E+03 -0.62598985696E+03 -0.40474351431E+03  0.11250655728E+04  0.60000954140E+03 0.  0.
         23    2    4    4    0    0 -0.64147256864E+03 -0.31144250512E+03 -0.26835142512E+03  0.76676186601E+03  0.86184578024E+02 0.  0.
         23    2    4    4    0    0  0.49796576302E+02 -0.31454735185E+03 -0.13639208918E+03  0.35830370678E+03  0.91427614730E+02 0.  0.
          1    1    3    3  502    0  0.83043829917E+02  0.12907885813E+03 -0.41267350583E+03  0.44029200733E+03  0.00000000000E+00 0. -1.
         -1    1    3    3    0  502  0.50863216242E+03  0.49691099883E+03 -0.22920851804E+04  0.23998503477E+04  0.00000000000E+00 0.  1.
         13    1    5    5    0    0 -0.39223324864E+03 -0.21293233089E+03 -0.20626740391E+03  0.49166384938E+03  0.00000000000E+00 0. -1.
        -13    1    5    5    0    0 -0.24923932000E+03 -0.98510174229E+02 -0.62084021215E+02  0.27509801663E+03  0.00000000000E+00 0.  1.
          1    1    6    6  503    0  0.58844068733E+02 -0.19895579941E+03 -0.12397974711E+03  0.24169611548E+03  0.00000000000E+00 0. -1.
         -1    1    6    6    0  503 -0.90474924312E+01 -0.11559155243E+03 -0.12412342079E+02  0.11660759130E+03  0.00000000000E+00 0.  1.
<mgrwt>
<rscale>  0 0.95114243E+03</rscale>
<asrwt>0</asrwt>
<pdfrwt beam="1">  1        2 0.54420847E+00 0.95114243E+03</pdfrwt>
<pdfrwt beam="2">  1       -2 0.65823518E-01 0.95114243E+03</pdfrwt>
<totfact> 0.17011882E+00</totfact>
</mgrwt>
</event>
<event>
12    1  0.1338445E-007  0.9560012E+03  0.7818608E-02  0.9358163E-01
         -2   -1    0    0    0  501 -0.00000000000E+00  0.00000000000E+00  0.10004939064E+04  0.10004939064E+04  0.00000000000E+00 0. -1.
          2   -1    0    0  501    0  0.00000000000E+00 -0.00000000000E+00 -0.11206354426E+04  0.11206354426E+04  0.00000000000E+00 0.  1.
         23    2    1    2    0    0 -0.67931327678E+03 -0.53437223588E+03 -0.49974587950E+03  0.10025844513E+04  0.91702908421E+02 0.  0.
    5000000    2    1    2    0    0  0.67931327678E+03  0.53437223588E+03  0.37960434328E+03  0.11185448978E+04  0.60001918004E+03 0.  0.
         23    2    4    4    0    0 -0.15324147575E+02 -0.79031236171E+02  0.27674905306E+02  0.12324756494E+03  0.89125170909E+02 0.  0.
         23    2    4    4    0    0  0.69463742436E+03  0.61340347205E+03  0.35192943798E+03  0.99529733284E+03  0.89316743137E+02 0.  0.
          1    1    3    3  502    0 -0.45406360008E+03 -0.40848051418E+03 -0.36423154733E+03  0.71112214384E+03  0.00000000000E+00 0. -1.
         -1    1    3    3    0  502 -0.22524967670E+03 -0.12589172170E+03 -0.13551433217E+03  0.29146230746E+03  0.00000000000E+00 0.  1.
         11    1    5    5    0    0  0.24167222547E+02 -0.68372744413E+02 -0.22699776375E+01  0.72553701647E+02  0.00000000000E+00 0. -1.
        -11    1    5    5    0    0 -0.39491370123E+02 -0.10658491757E+02  0.29944882944E+02  0.50693863290E+02  0.00000000000E+00 0.  1.
          2    1    6    6  503    0  0.40246428289E+03  0.30524219058E+03  0.16572255766E+03  0.53161476656E+03  0.00000000000E+00 0. -1.
         -2    1    6    6    0  503  0.29217314147E+03  0.30816128146E+03  0.18620688032E+03  0.46368256628E+03  0.00000000000E+00 0.  1.
<mgrwt>
<rscale>  0 0.95600125E+03</rscale>
<asrwt>0</asrwt>
<pdfrwt beam="1">  1        2 0.17240545E+00 0.95600125E+03</pdfrwt>
<pdfrwt beam="2">  1       -2 0.15392214E+00 0.95600125E+03</pdfrwt>
<totfact> 0.58924726E+00</totfact>
</mgrwt>
</event>
<event>
12    1  0.1477432E-007  0.6938680E+03  0.7818608E-02  0.9727777E-01
          2   -1    0    0  501    0  0.00000000000E+00  0.00000000000E+00  0.14062171392E+04  0.14062171392E+04  0.00000000000E+00 0. -1.
         -2   -1    0    0    0  501 -0.00000000000E+00 -0.00000000000E+00 -0.49225060143E+03  0.49225060143E+03  0.00000000000E+00 0.  1.
         23    2    1    2    0    0  0.50302563654E+03  0.40409493675E+03  0.76463955005E+03  0.10047504895E+04  0.92316822632E+02 0.  0.
    5000000    2    1    2    0    0 -0.50302563654E+03 -0.40409493675E+03  0.14932698772E+03  0.89371725113E+03  0.60008704933E+03 0.  0.
         23    2    4    4    0    0 -0.50612303856E+03 -0.26924771488E+03  0.31585573854E+03  0.66095623333E+03  0.91888153065E+02 0.  0.
         23    2    4    4    0    0  0.30974020161E+01 -0.13484722186E+03 -0.16652875082E+03  0.23276101780E+03  0.90843268408E+02 0.  0.
          4    1    3    3  502    0  0.22473813265E+03  0.12475237061E+03  0.28344051447E+03  0.38263416925E+03  0.00000000000E+00 0. -1.
         -4    1    3    3    0  502  0.27828750390E+03  0.27934256614E+03  0.48119903559E+03  0.62211632026E+03  0.00000000000E+00 0.  1.
         11    1    5    5    0    0 -0.25774872962E+03 -0.15343327276E+03  0.11528532583E+03  0.32135165032E+03  0.00000000000E+00 0.  1.
        -11    1    5    5    0    0 -0.24837430894E+03 -0.11581444212E+03  0.20057041271E+03  0.33960458300E+03  0.00000000000E+00 0. -1.
          1    1    6    6  503    0 -0.43680908241E+02 -0.65901798353E+02 -0.74753332134E+02  0.10880776368E+03  0.00000000000E+00 0. -1.
         -1    1    6    6    0  503  0.46778310257E+02 -0.68945423511E+02 -0.91775418684E+02  0.12395325413E+03  0.00000000000E+00 0.  1.
<mgrwt>
<rscale>  0 0.69386796E+03</rscale>
<asrwt>0</asrwt>
<pdfrwt beam="1">  1        2 0.21634110E+00 0.69386796E+03</pdfrwt>
<pdfrwt beam="2">  1       -2 0.75730862E-01 0.69386796E+03</pdfrwt>
<totfact> 0.23083309E+01</totfact>
</mgrwt>
</event>
<event>
12    1  0.1338445E-007  0.4515159E+03  0.7818608E-02  0.1027271E+00
          2   -1    0    0  501    0  0.00000000000E+00  0.00000000000E+00  0.14735479825E+04  0.14735479825E+04  0.00000000000E+00 0. -1.
         -2   -1    0    0    0  501 -0.00000000000E+00 -0.00000000000E+00 -0.15067442076E+03  0.15067442076E+03  0.00000000000E+00 0.  1.
         23    2    1    2    0    0 -0.11836867471E+03  0.24157345254E+03  0.35633984039E+03  0.45523202431E+03  0.88821382490E+02 0.  0.
    5000000    2    1    2    0    0  0.11836867471E+03 -0.24157345254E+03  0.96653372139E+03  0.11689903790E+04  0.59998516271E+03 0.  0.
         23    2    4    4    0    0  0.10051868004E+03  0.17342302552E+03  0.44279028007E+03  0.49436260229E+03  0.90286209334E+02 0.  0.
         23    2    4    4    0    0  0.17849994663E+02 -0.41499647805E+03  0.52374344132E+03  0.67462777671E+03  0.90965629067E+02 0.  0.
          3    1    3    3  502    0 -0.12157882283E+02  0.10590997979E+03  0.98632721517E+02  0.14523481564E+03  0.00000000000E+00 0. -1.
         -3    1    3    3    0  502 -0.10621079242E+03  0.13566347275E+03  0.25770711888E+03  0.30999720867E+03  0.00000000000E+00 0.  1.
         11    1    5    5    0    0  0.26863444524E+02  0.10373573275E+03  0.30506038059E+03  0.32333354714E+03  0.00000000000E+00 0. -1.
        -11    1    5    5    0    0  0.73655235519E+02  0.69687292768E+02  0.13772989948E+03  0.17102905514E+03  0.00000000000E+00 0.  1.
          2    1    6    6  503    0 -0.25000001550E+00 -0.13305316695E+03  0.10502624665E+03  0.16951023633E+03  0.00000000000E+00 0.  1.
         -2    1    6    6    0  503  0.18099994679E+02 -0.28194331110E+03  0.41871719467E+03  0.50511754038E+03  0.00000000000E+00 0. -1.
<mgrwt>
<rscale>  0 0.45151588E+03</rscale>
<asrwt>0</asrwt>
<pdfrwt beam="1">  1        2 0.22669968E+00 0.45151588E+03</pdfrwt>
<pdfrwt beam="2">  1       -2 0.23180681E-01 0.45151588E+03</pdfrwt>
<totfact> 0.22489563E+02</totfact>
</mgrwt>
</event>
<event>
12    1  0.1338445E-007  0.4186060E+03  0.7818608E-02  0.1037521E+00
          2   -1    0    0  501    0  0.00000000000E+00  0.00000000000E+00  0.16316757176E+04  0.16316757176E+04  0.00000000000E+00 0.  1.
         -2   -1    0    0    0  501 -0.00000000000E+00 -0.00000000000E+00 -0.23758467136E+03  0.23758467136E+03  0.00000000000E+00 0. -1.
         23    2    1    2    0    0 -0.21435425513E+03 -0.13139632112E+02 -0.93258123592E+02  0.25131446346E+03  0.91331732207E+02 0.  0.
    5000000    2    1    2    0    0  0.21435425513E+03  0.13139632112E+02  0.14873491698E+04  0.16179459255E+04  0.59951736273E+03 0.  0.
         23    2    4    4    0    0  0.37076395824E+03  0.14851825821E+03  0.91841897365E+03  0.10056352015E+04  0.91022862919E+02 0.  0.
         23    2    4    4    0    0 -0.15640970311E+03 -0.13537862610E+03  0.56893019617E+03  0.61231072400E+03  0.91931969259E+02 0.  0.
          2    1    3    3  502    0 -0.19699697980E+02  0.73530278086E+01 -0.45078648467E+02  0.49741629106E+02  0.00000000000E+00 0. -1.
         -2    1    3    3    0  502 -0.19465455715E+03 -0.20492659921E+02 -0.48179475125E+02  0.20157283436E+03  0.00000000000E+00 0.  1.
         11    1    5    5    0    0  0.96206881463E+02  0.42624262970E+02  0.15386889277E+03  0.18640876588E+03  0.00000000000E+00 0. -1.
        -11    1    5    5    0    0  0.27455707678E+03  0.10589399524E+03  0.76455008089E+03  0.81922643562E+03  0.00000000000E+00 0.  1.
          4    1    6    6  503    0 -0.35888310933E+02 -0.81281568717E+02  0.16609511507E+03  0.18836733136E+03  0.00000000000E+00 0. -1.
         -4    1    6    6    0  503 -0.12052139218E+03 -0.54097057378E+02  0.40283508110E+03  0.42394339263E+03  0.00000000000E+00 0.  1.
<mgrwt>
<rscale>  0 0.41860599E+03</rscale>
<asrwt>0</asrwt>
<pdfrwt beam="1">  1        2 0.25102703E+00 0.41860599E+03</pdfrwt>
<pdfrwt beam="2">  1       -2 0.36551489E-01 0.41860599E+03</pdfrwt>
<totfact> 0.80522974E+01</totfact>
</mgrwt>
</event>
<event>
12    1  0.1338445E-007  0.8518397E+03  0.7818608E-02  0.9487871E-01
          1   -1    0    0  501    0  0.00000000000E+00  0.00000000000E+00  0.12038685180E+04  0.12038685180E+04  0.00000000000E+00 0. -1.
         -1   -1    0    0    0  501 -0.00000000000E+00 -0.00000000000E+00 -0.65395121219E+03  0.65395121219E+03  0.00000000000E+00 0.  1.
         23    2    1    2    0    0 -0.17677230374E+03 -0.75714580760E+03  0.15199319202E+03  0.79739864967E+03  0.90688779567E+02 0.  0.
    5000000    2    1    2    0    0  0.17677230374E+03  0.75714580760E+03  0.39792411374E+03  0.10604210805E+04  0.60135766919E+03 0.  0.
         23    2    4    4    0    0 -0.10440118850E+03  0.14860812035E+01 -0.32047112364E+02  0.14204938631E+03  0.90825074421E+02 0.  0.
         23    2    4    4    0    0  0.28117349224E+03  0.75565972640E+03  0.42997122610E+03  0.91837169416E+03  0.91930182913E+02 0.  0.
          4    1    3    3  502    0 -0.12227401659E+03 -0.48249900445E+03  0.53673615026E+02  0.50063667602E+03  0.00000000000E+00 0. -1.
         -4    1    3    3    0  502 -0.54498287143E+02 -0.27464680315E+03  0.98319576996E+02  0.29676197364E+03  0.00000000000E+00 0.  1.
         13    1    5    5    0    0 -0.90123703716E+02  0.23483210620E+02 -0.54168985101E+02  0.10774053137E+03  0.00000000000E+00 0. -1.
        -13    1    5    5    0    0 -0.14277484785E+02 -0.21997129417E+02  0.22121872737E+02  0.34308854946E+02  0.00000000000E+00 0.  1.
          4    1    6    6  503    0  0.11581735564E+03  0.34229551872E+03  0.14263669779E+03  0.38849081014E+03  0.00000000000E+00 0. -1.
         -4    1    6    6    0  503  0.16535613660E+03  0.41336420768E+03  0.28733452831E+03  0.52988088403E+03  0.00000000000E+00 0.  1.
<mgrwt>
<rscale>  0 0.85183966E+03</rscale>
<asrwt>0</asrwt>
<pdfrwt beam="1">  1        1 0.18521054E+00 0.85183966E+03</pdfrwt>
<pdfrwt beam="2">  1       -1 0.10060788E+00 0.85183966E+03</pdfrwt>
<totfact> 0.10184306E+01</totfact>
</mgrwt>
</event>
<event>
12    1  0.1338445E-007  0.1095797E+04  0.7818608E-02  0.9209298E-01
          2   -1    0    0  501    0  0.00000000000E+00  0.00000000000E+00  0.16736132556E+04  0.16736132556E+04  0.00000000000E+00 0. -1.
         -2   -1    0    0    0  501 -0.00000000000E+00 -0.00000000000E+00 -0.90991692622E+03  0.90991692622E+03  0.00000000000E+00 0.  1.
         23    2    1    2    0    0 -0.87696343932E+03  0.60447515851E+03 -0.11943578587E+03  0.10754303871E+04  0.88490222541E+02 0.  0.
    5000000    2    1    2    0    0  0.87696343932E+03 -0.60447515851E+03  0.88313211524E+03  0.15080997947E+04  0.59998963874E+03 0.  0.
         23    2    4    4    0    0  0.63751310119E+03 -0.24274905220E+03  0.80311103052E+03  0.10576490601E+04  0.91017308772E+02 0.  0.
         23    2    4    4    0    0  0.23945033813E+03 -0.36172610631E+03  0.80021084714E+02  0.45045073456E+03  0.91215403582E+02 0.  0.
          1    1    3    3  502    0 -0.42616099587E+03  0.26283767238E+03 -0.19779047619E+02  0.50108686587E+03  0.00000000000E+00 0. -1.
         -1    1    3    3    0  502 -0.45080244345E+03  0.34163748613E+03 -0.99656738246E+02  0.57434352127E+03  0.00000000000E+00 0.  1.
         13    1    5    5    0    0  0.11251830773E+03 -0.31062666775E+02  0.19160083192E+03  0.22435716533E+03  0.00000000000E+00 0. -1.
        -13    1    5    5    0    0  0.52499479345E+03 -0.21168638543E+03  0.61151019860E+03  0.83329189479E+03  0.00000000000E+00 0.  1.
          2    1    6    6  503    0  0.18790288410E+03 -0.20785802029E+03  0.63772324830E+02  0.28736624691E+03  0.00000000000E+00 0. -1.
         -2    1    6    6    0  503  0.51547454029E+02 -0.15386808602E+03  0.16248759885E+02  0.16308448765E+03  0.00000000000E+00 0.  1.
<mgrwt>
<rscale>  0 0.10957974E+04</rscale>
<asrwt>0</asrwt>
<pdfrwt beam="1">  1        2 0.25747896E+00 0.10957974E+04</pdfrwt>
<pdfrwt beam="2">  1       -2 0.13998722E+00 0.10957974E+04</pdfrwt>
<totfact> 0.35843855E+00</totfact>
</mgrwt>
</event>
<event>
12    1  0.1338445E-007  0.3864126E+03  0.7818608E-02  0.1048589E+00
         -2   -1    0    0    0  501 -0.00000000000E+00  0.00000000000E+00  0.28253782565E+03  0.28253782565E+03  0.00000000000E+00 0.  1.
          2   -1    0    0  501    0  0.00000000000E+00 -0.00000000000E+00 -0.13605462370E+04  0.13605462370E+04  0.00000000000E+00 0. -1.
         23    2    1    2    0    0  0.14696710350E+03  0.28264204604E+03 -0.87239118180E+03  0.93334962738E+03  0.92678461006E+02 0.  0.
    5000000    2    1    2    0    0 -0.14696710350E+03 -0.28264204604E+03 -0.20561722952E+03  0.70973443525E+03  0.59996555551E+03 0.  0.
         23    2    4    4    0    0 -0.22418489902E+03 -0.25465775967E+03  0.11372322189E+03  0.36916064884E+03  0.90758855987E+02 0.  0.
         23    2    4    4    0    0  0.77217795524E+02 -0.27984286368E+02 -0.31934045141E+03  0.34057378641E+03  0.85243603025E+02 0.  0.
          2    1    3    3  502    0  0.90391710063E+02  0.15805534962E+03 -0.36586975804E+03  0.40867203800E+03  0.00000000000E+00 0. -1.
         -2    1    3    3    0  502  0.56575393436E+02  0.12458669643E+03 -0.50652142376E+03  0.52467758938E+03  0.00000000000E+00 0.  1.
         11    1    5    5    0    0 -0.18842132090E+03 -0.15126185766E+03  0.83667681726E+02  0.25570104560E+03  0.00000000000E+00 0. -1.
        -11    1    5    5    0    0 -0.35763578122E+02 -0.10339590201E+03  0.30055540166E+02  0.11345960324E+03  0.00000000000E+00 0.  1.
          3    1    6    6  503    0 -0.25972450377E+01 -0.22751445026E+02 -0.16651257541E+03  0.16807977779E+03  0.00000000000E+00 0. -1.
         -3    1    6    6    0  503  0.79815040562E+02 -0.52328413420E+01 -0.15282787600E+03  0.17249400862E+03  0.00000000000E+00 0.  1.
<mgrwt>
<rscale>  0 0.38641256E+03</rscale>
<asrwt>0</asrwt>
<pdfrwt beam="1">  1        2 0.20931481E+00 0.38641256E+03</pdfrwt>
<pdfrwt beam="2">  1       -2 0.43467358E-01 0.38641256E+03</pdfrwt>
<totfact> 0.81497885E+01</totfact>
</mgrwt>
</event>
<event>
12    1  0.1338445E-007  0.8429384E+03  0.7818608E-02  0.9499864E-01
          2   -1    0    0  501    0  0.00000000000E+00  0.00000000000E+00  0.20489415350E+04  0.20489415350E+04  0.00000000000E+00 0.  1.
         -2   -1    0    0    0  501 -0.00000000000E+00 -0.00000000000E+00 -0.48087484888E+03  0.48087484888E+03  0.00000000000E+00 0. -1.
         23    2    1    2    0    0 -0.51187772095E+03  0.64317428898E+03  0.11794451738E+04  0.14404997265E+04  0.90865707139E+02 0.  0.
    5000000    2    1    2    0    0  0.51187772095E+03 -0.64317428898E+03  0.38862151228E+03  0.10893166574E+04  0.59991010412E+03 0.  0.
         23    2    4    4    0    0  0.29692045794E+03 -0.53551516119E+03 -0.55548596963E+01  0.61896087921E+03  0.90241161974E+02 0.  0.
         23    2    4    4    0    0  0.21495726301E+03 -0.10765912779E+03  0.39417637198E+03  0.47035577817E+03  0.89791052531E+02 0.  0.
          2    1    3    3  502    0 -0.29483010009E+03  0.33917162049E+03  0.57243413190E+03  0.72776576687E+03  0.00000000000E+00 0. -1.
         -2    1    3    3    0  502 -0.21704762087E+03  0.30400266849E+03  0.60701104190E+03  0.71273395959E+03  0.00000000000E+00 0.  1.
         13    1    5    5    0    0  0.15685827791E+02 -0.21847906715E+01 -0.23762444289E+01  0.16014525948E+02  0.00000000000E+00 0.  1.
        -13    1    5    5    0    0  0.28123463015E+03 -0.53333037052E+03 -0.31786152673E+01  0.60294635326E+03  0.00000000000E+00 0. -1.
          1    1    6    6  503    0  0.11870773297E+03 -0.82880762107E+02  0.30151700091E+03  0.33447458563E+03  0.00000000000E+00 0. -1.
         -1    1    6    6    0  503  0.96249530045E+02 -0.24778365684E+02  0.92659371067E+02  0.13588119254E+03  0.00000000000E+00 0.  1.
<mgrwt>
<rscale>  0 0.84293843E+03</rscale>
<asrwt>0</asrwt>
<pdfrwt beam="1">  1        2 0.31522177E+00 0.84293843E+03</pdfrwt>
<pdfrwt beam="2">  1       -2 0.73980747E-01 0.84293843E+03</pdfrwt>
<totfact> 0.10563585E+01</totfact>
</mgrwt>
</event>
<event>
12    1  0.1338445E-007  0.5405545E+03  0.7818608E-02  0.1003704E+00
         -1   -1    0    0    0  501 -0.00000000000E+00  0.00000000000E+00  0.42586176946E+03  0.42586176946E+03  0.00000000000E+00 0.  1.
          1   -1    0    0  501    0  0.00000000000E+00 -0.00000000000E+00 -0.20742655528E+04  0.20742655528E+04  0.00000000000E+00 0. -1.
         23    2    1    2    0    0 -0.30384185458E+03  0.42010418868E+03  0.13892859506E+03  0.54482852119E+03  0.93432119913E+02 0.  0.
    5000000    2    1    2    0    0  0.30384185458E+03 -0.42010418868E+03 -0.17873323784E+04  0.19552988011E+04  0.59985745694E+03 0.  0.
         23    2    4    4    0    0  0.90705886676E+02 -0.10393450367E+03 -0.13818778598E+04  0.13915576094E+04  0.88409399505E+02 0.  0.
         23    2    4    4    0    0  0.21313596790E+03 -0.31616968502E+03 -0.40545451858E+03  0.56374119165E+03  0.89557545731E+02 0.  0.
          2    1    3    3  502    0 -0.12676017932E+03  0.10183926132E+03  0.43827712950E+02  0.16840500774E+03  0.00000000000E+00 0. -1.
         -2    1    3    3    0  502 -0.17708167525E+03  0.31826492736E+03  0.95100882110E+02  0.37642351345E+03  0.00000000000E+00 0.  1.
         11    1    5    5    0    0 -0.13975324501E+02 -0.37111598531E+02 -0.33653813848E+03  0.33886649154E+03  0.00000000000E+00 0.  1.
        -11    1    5    5    0    0  0.10468121118E+03 -0.66822905137E+02 -0.10453397213E+04  0.10526911179E+04  0.00000000000E+00 0. -1.
          1    1    6    6  503    0  0.21332000818E+02 -0.81874968611E+00 -0.33565364168E+02  0.39778867275E+02  0.00000000000E+00 0. -1.
         -1    1    6    6    0  503  0.19180396708E+03 -0.31535093533E+03 -0.37188915441E+03  0.52396232438E+03  0.00000000000E+00 0.  1.
<mgrwt>
<rscale>  0 0.54055448E+03</rscale>
<asrwt>0</asrwt>
<pdfrwt beam="1">  1        1 0.31911778E+00 0.54055448E+03</pdfrwt>
<pdfrwt beam="2">  1       -1 0.65517195E-01 0.54055448E+03</pdfrwt>
<totfact> 0.68585467E+00</totfact>
</mgrwt>
</event>
<event>
12    1  0.1338445E-007  0.1955974E+04  0.7818608E-02  0.8627485E-01
          2   -1    0    0  501    0  0.00000000000E+00  0.00000000000E+00  0.15869690107E+04  0.15869690107E+04  0.00000000000E+00 0. -1.
         -2   -1    0    0    0  501 -0.00000000000E+00 -0.00000000000E+00 -0.39031047570E+04  0.39031047570E+04  0.00000000000E+00 0.  1.
         23    2    1    2    0    0 -0.13527194896E+04 -0.13734484324E+04  0.52938137702E+03  0.20010745027E+04  0.88565844545E+02 0.  0.
    5000000    2    1    2    0    0  0.13527194896E+04  0.13734484324E+04 -0.28455171233E+04  0.34889992651E+04  0.59994796348E+03 0.  0.
         23    2    4    4    0    0  0.33683700302E+03  0.65388032164E+03 -0.13586538238E+04  0.15476483310E+04  0.90865295849E+02 0.  0.
         23    2    4    4    0    0  0.10158824865E+04  0.71956811081E+03 -0.14868632995E+04  0.19413509341E+04  0.91024641129E+02 0.  0.
          4    1    3    3  502    0 -0.54383199063E+03 -0.60152257926E+03  0.25023512597E+03  0.84864613689E+03  0.00000000000E+00 0. -1.
         -4    1    3    3    0  502 -0.80888749893E+03 -0.77192585319E+03  0.27914625105E+03  0.11524283658E+04  0.00000000000E+00 0.  1.
         11    1    5    5    0    0  0.15624576221E+03  0.23961108678E+03 -0.59748421802E+03  0.66243007321E+03  0.00000000000E+00 0.  1.
        -11    1    5    5    0    0  0.18059124081E+03  0.41426923486E+03 -0.76116960575E+03  0.88521825780E+03  0.00000000000E+00 0. -1.
          1    1    6    6  503    0  0.39583527562E+03  0.28655863032E+03 -0.51577647021E+03  0.71051163344E+03  0.00000000000E+00 0. -1.
         -1    1    6    6    0  503  0.62004721091E+03  0.43300948049E+03 -0.97108682933E+03  0.12308393007E+04  0.00000000000E+00 0.  1.
<mgrwt>
<rscale>  0 0.19559740E+04</rscale>
<asrwt>0</asrwt>
<pdfrwt beam="1">  1        2 0.24414908E+00 0.19559740E+04</pdfrwt>
<pdfrwt beam="2">  1       -2 0.60047765E+00 0.19559740E+04</pdfrwt>
<totfact> 0.49692087E-03</totfact>
</mgrwt>
</event>
<event>
12    1  0.1338445E-007  0.6784549E+03  0.7818608E-02  0.9754803E-01
          2   -1    0    0  501    0  0.00000000000E+00  0.00000000000E+00  0.11746537430E+04  0.11746537430E+04  0.00000000000E+00 0. -1.
         -2   -1    0    0    0  501 -0.00000000000E+00 -0.00000000000E+00 -0.10230673832E+04  0.10230673832E+04  0.00000000000E+00 0.  1.
         23    2    1    2    0    0 -0.50624409324E+03 -0.21222974378E+03  0.92243006740E+03  0.10772910836E+04  0.91401879202E+02 0.  0.
    5000000    2    1    2    0    0  0.50624409324E+03  0.21222974378E+03 -0.77084370757E+03  0.11204300426E+04  0.59986574560E+03 0.  0.
         23    2    4    4    0    0  0.41449181069E+03  0.39909145974E+03 -0.57888003398E+03  0.82181770176E+03  0.95941580228E+02 0.  0.
         23    2    4    4    0    0  0.91752282546E+02 -0.18686171596E+03 -0.19196367360E+03  0.29861234083E+03  0.94781305503E+02 0.  0.
          4    1    3    3  502    0 -0.34738998216E+03 -0.11224594067E+03  0.54835483003E+03  0.65876548978E+03  0.00000000000E+00 0.  1.
         -4    1    3    3    0  502 -0.15885411108E+03 -0.99983803108E+02  0.37407523737E+03  0.41852559384E+03  0.00000000000E+00 0. -1.
         13    1    5    5    0    0  0.21302239986E+03  0.23268047194E+03 -0.25481457921E+03  0.40552338360E+03  0.00000000000E+00 0. -1.
        -13    1    5    5    0    0  0.20146941083E+03  0.16641098780E+03 -0.32406545477E+03  0.41629431816E+03  0.00000000000E+00 0.  1.
          2    1    6    6  503    0  0.52219820220E+02 -0.17976503847E+03 -0.14479357516E+03  0.23665916016E+03  0.00000000000E+00 0. -1.
         -2    1    6    6    0  503  0.39532462326E+02 -0.70966774908E+01 -0.47170098441E+02  0.61953180676E+02  0.00000000000E+00 0.  1.
<mgrwt>
<rscale>  0 0.67845493E+03</rscale>
<asrwt>0</asrwt>
<pdfrwt beam="1">  1        2 0.18071596E+00 0.67845493E+03</pdfrwt>
<pdfrwt beam="2">  1       -2 0.15739498E+00 0.67845493E+03</pdfrwt>
<totfact> 0.53338351E+00</totfact>
</mgrwt>
</event>
<event>
12    1  0.1338445E-007  0.6631907E+03  0.7818608E-02  0.9782338E-01
         -2   -1    0    0    0  501 -0.00000000000E+00  0.00000000000E+00  0.52568462806E+03  0.52568462806E+03  0.00000000000E+00 0.  1.
          2   -1    0    0  501    0  0.00000000000E+00 -0.00000000000E+00 -0.99727807078E+03  0.99727807078E+03  0.00000000000E+00 0. -1.
         23    2    1    2    0    0 -0.46155906759E+03 -0.37213171170E+03 -0.25905248704E+03  0.65305537253E+03  0.88624741522E+02 0.  0.
    5000000    2    1    2    0    0  0.46155906759E+03  0.37213171170E+03 -0.21254095568E+03  0.86990732631E+03  0.60003859442E+03 0.  0.
         23    2    4    4    0    0  0.17362479339E+03 -0.65032536441E+02 -0.26355017438E+03  0.33522848291E+03  0.92437230934E+02 0.  0.
         23    2    4    4    0    0  0.28793427421E+03  0.43716424815E+03  0.51009218695E+02  0.53467884340E+03  0.96233045639E+02 0.  0.
          3    1    3    3  502    0 -0.16787342676E+03 -0.17999876252E+03 -0.13567621793E+03  0.28104995647E+03  0.00000000000E+00 0. -1.
         -3    1    3    3    0  502 -0.29368564083E+03 -0.19213294918E+03 -0.12337626910E+03  0.37200541605E+03  0.00000000000E+00 0.  1.
         13    1    5    5    0    0  0.93059829736E+02  0.94560478351E+01 -0.15397631534E+03  0.18016174521E+03  0.00000000000E+00 0.  1.
        -13    1    5    5    0    0  0.80564963653E+02 -0.74488584276E+02 -0.10957385903E+03  0.15506673769E+03  0.00000000000E+00 0. -1.
          4    1    6    6  503    0  0.22582632044E+03  0.30027431839E+03  0.73049570607E+02  0.38275113723E+03  0.00000000000E+00 0. -1.
         -4    1    6    6    0  503  0.62107953764E+02  0.13688992976E+03 -0.22040351913E+02  0.15192770617E+03  0.00000000000E+00 0.  1.
<mgrwt>
<rscale>  0 0.66319072E+03</rscale>
<asrwt>0</asrwt>
<pdfrwt beam="1">  1        2 0.15342739E+00 0.66319072E+03</pdfrwt>
<pdfrwt beam="2">  1       -2 0.80874559E-01 0.66319072E+03</pdfrwt>
<totfact> 0.34958203E+01</totfact>
</mgrwt>
</event>
<event>
12    1  0.1338445E-007  0.2027932E+04  0.7818608E-02  0.8593672E-01
         -1   -1    0    0    0  501 -0.00000000000E+00  0.00000000000E+00  0.11569475955E+04  0.11569475955E+04  0.00000000000E+00 0.  1.
          1   -1    0    0  501    0  0.00000000000E+00 -0.00000000000E+00 -0.35870273820E+04  0.35870273820E+04  0.00000000000E+00 0. -1.
         23    2    1    2    0    0  0.19443768198E+04  0.42443222527E+03 -0.10927154520E+04  0.22721959114E+04  0.90018161438E+02 0.  0.
    5000000    2    1    2    0    0 -0.19443768198E+04 -0.42443222527E+03 -0.13373643344E+04  0.24717790661E+04  0.60033695323E+03 0.  0.
         23    2    4    4    0    0 -0.25664393829E+03 -0.24674949178E+03 -0.33830349847E+03  0.50009274171E+03  0.94297775579E+02 0.  0.
         23    2    4    4    0    0 -0.16877328815E+04 -0.17768273350E+03 -0.99906083595E+03  0.19716863244E+04  0.97010178595E+02 0.  0.
          4    1    3    3  502    0  0.44931883462E+03  0.85954545719E+02 -0.21065042703E+03  0.50363598113E+03  0.00000000000E+00 0. -1.
         -4    1    3    3    0  502  0.14950579852E+04  0.33847767955E+03 -0.88206502496E+03  0.17685599303E+04  0.00000000000E+00 0.  1.
         13    1    5    5    0    0 -0.87823856834E+02 -0.14823616020E+03 -0.14504903322E+03  0.22522480116E+03  0.00000000000E+00 0.  1.
        -13    1    5    5    0    0 -0.16882008146E+03 -0.98513331574E+02 -0.19325446525E+03  0.27486794054E+03  0.00000000000E+00 0. -1.
          4    1    6    6  503    0 -0.10122235325E+04 -0.82835320910E+02 -0.54950992999E+03  0.11547377769E+04  0.00000000000E+00 0.  1.
         -4    1    6    6    0  503 -0.67550934903E+03 -0.94847412588E+02 -0.44955090596E+03  0.81694854755E+03  0.00000000000E+00 0. -1.
<mgrwt>
<rscale>  0 0.20279321E+04</rscale>
<asrwt>0</asrwt>
<pdfrwt beam="1">  1        1 0.55185036E+00 0.20279321E+04</pdfrwt>
<pdfrwt beam="2">  1       -1 0.17799194E+00 0.20279321E+04</pdfrwt>
<totfact> 0.41042582E-02</totfact>
</mgrwt>
</event>
<event>
12    1  0.1338445E-007  0.6857275E+03  0.7818608E-02  0.9741956E-01
          3   -1    0    0  501    0  0.00000000000E+00  0.00000000000E+00  0.39568512895E+03  0.39568512895E+03  0.00000000000E+00 0. -1.
         -3   -1    0    0    0  501 -0.00000000000E+00 -0.00000000000E+00 -0.15884112214E+04  0.15884112214E+04  0.00000000000E+00 0.  1.
         23    2    1    2    0    0  0.16983301020E+03 -0.63343279985E+03 -0.30976369881E+03  0.73119016628E+03  0.92763930972E+02 0.  0.
    5000000    2    1    2    0    0 -0.16983301020E+03  0.63343279985E+03 -0.88296239363E+03  0.12529061841E+04  0.60005912560E+03 0.  0.
         23    2    4    4    0    0  0.22546089556E+02  0.75652203182E+02  0.61427486941E+02  0.13557825619E+03  0.91523469120E+02 0.  0.
         23    2    4    4    0    0 -0.19237909975E+03  0.55778059667E+03 -0.94438988057E+03  0.11173279279E+04  0.91763499447E+02 0.  0.
          3    1    3    3  502    0  0.96344055863E+02 -0.49731205788E+03 -0.21932039054E+03  0.55199899793E+03  0.00000000000E+00 0. -1.
         -3    1    3    3    0  502  0.73488954333E+02 -0.13612074197E+03 -0.90443308274E+02  0.17919116835E+03  0.00000000000E+00 0.  1.
         11    1    5    5    0    0  0.11978806396E+02 -0.20098684072E+02  0.19741792051E+02  0.30613514295E+02  0.00000000000E+00 0. -1.
        -11    1    5    5    0    0  0.10567283160E+02  0.95750887254E+02  0.41685694889E+02  0.10496474190E+03  0.00000000000E+00 0.  1.
          4    1    6    6  503    0 -0.33738244720E+02  0.73519141032E+02 -0.19480472686E+03  0.21093177774E+03  0.00000000000E+00 0. -1.
         -4    1    6    6    0  503 -0.15864085503E+03  0.48426145564E+03 -0.74958515371E+03  0.90639615013E+03  0.00000000000E+00 0.  1.
<mgrwt>
<rscale>  0 0.68572749E+03</rscale>
<asrwt>0</asrwt>
<pdfrwt beam="1">  1        3 0.60874635E-01 0.68572749E+03</pdfrwt>
<pdfrwt beam="2">  1       -3 0.24437096E+00 0.68572749E+03</pdfrwt>
<totfact> 0.54834484E-01</totfact>
</mgrwt>
</event>
<event>
12    1  0.1338445E-007  0.5644881E+03  0.7818608E-02  0.9981950E-01
          1   -1    0    0  501    0  0.00000000000E+00  0.00000000000E+00  0.30737469588E+04  0.30737469588E+04  0.00000000000E+00 0. -1.
         -1   -1    0    0    0  501 -0.00000000000E+00 -0.00000000000E+00 -0.18134582410E+03  0.18134582410E+03  0.00000000000E+00 0.  1.
         23    2    1    2    0    0  0.97914422298E+01  0.49518863110E+03  0.39724991096E+03  0.64147711188E+03  0.91529998365E+02 0.  0.
    5000000    2    1    2    0    0 -0.97914422298E+01 -0.49518863110E+03  0.24951512237E+04  0.26136156710E+04  0.59991632226E+03 0.  0.
         23    2    4    4    0    0 -0.14078776963E+03 -0.46930747598E+03  0.23297574522E+04  0.23824730542E+04  0.91309172719E+02 0.  0.
         23    2    4    4    0    0  0.13099632740E+03 -0.25881155122E+02  0.16539377156E+03  0.23114261679E+03  0.90785117960E+02 0.  0.
          2    1    3    3  502    0 -0.35568018071E+02  0.24267251083E+03  0.16673779251E+03  0.29657464975E+03  0.00000000000E+00 0. -1.
         -2    1    3    3    0  502  0.45359460300E+02  0.25251612027E+03  0.23051211844E+03  0.34490246213E+03  0.00000000000E+00 0.  1.
         11    1    5    5    0    0 -0.13661166392E+03 -0.42488882378E+03  0.19679223843E+04  0.20178978591E+04  0.00000000000E+00 0.  1.
        -11    1    5    5    0    0 -0.41761057105E+01 -0.44418652203E+02  0.36183506790E+03  0.36457519511E+03  0.00000000000E+00 0. -1.
          4    1    6    6  503    0  0.10297974899E+02 -0.10236228692E+02  0.82781415737E+02  0.84045175092E+02  0.00000000000E+00 0. -1.
         -4    1    6    6    0  503  0.12069835250E+03 -0.15644926429E+02  0.82612355826E+02  0.14709744170E+03  0.00000000000E+00 0.  1.
<mgrwt>
<rscale>  0 0.56448812E+03</rscale>
<asrwt>0</asrwt>
<pdfrwt beam="1">  1        1 0.47288411E+00 0.56448812E+03</pdfrwt>
<pdfrwt beam="2">  1       -1 0.27899360E-01 0.56448812E+03</pdfrwt>
<totfact> 0.67776359E+00</totfact>
</mgrwt>
</event>
<event>
12    1  0.1338445E-007  0.3846541E+03  0.7818608E-02  0.1049227E+00
         -2   -1    0    0    0  501 -0.00000000000E+00  0.00000000000E+00  0.45840269586E+03  0.45840269586E+03  0.00000000000E+00 0.  1.
          2   -1    0    0  501    0  0.00000000000E+00 -0.00000000000E+00 -0.58020001752E+03  0.58020001752E+03  0.00000000000E+00 0. -1.
         23    2    1    2    0    0 -0.24318070640E+03  0.15760498829E+03  0.12269235911E+03  0.32887507101E+03  0.95546894523E+02 0.  0.
    5000000    2    1    2    0    0  0.24318070640E+03 -0.15760498829E+03 -0.24448968077E+03  0.70972764236E+03  0.59996827752E+03 0.  0.
         23    2    4    4    0    0  0.26462635719E+03 -0.23961528449E+03 -0.37781850224E+03  0.52738216360E+03  0.89120886263E+02 0.  0.
         23    2    4    4    0    0 -0.21445650798E+02  0.82010296206E+02  0.13332882147E+03  0.18234547876E+03  0.91036774802E+02 0.  0.
          3    1    3    3  502    0 -0.99072605132E+02  0.96519752575E+02  0.15531265431E+02  0.13918571741E+03  0.00000000000E+00 0. -1.
         -3    1    3    3    0  502 -0.14410810126E+03  0.61085235713E+02  0.10716109368E+03  0.18968935360E+03  0.00000000000E+00 0.  1.
         13    1    5    5    0    0  0.48227976531E+01 -0.39113106664E+02 -0.48051991265E+02  0.62145702624E+02  0.00000000000E+00 0.  1.
        -13    1    5    5    0    0  0.25980355954E+03 -0.20050217783E+03 -0.32976651098E+03  0.46523646098E+03  0.00000000000E+00 0. -1.
          3    1    6    6  503    0  0.33125486652E+01  0.82061952971E+02  0.51704467310E+02  0.97048900271E+02  0.00000000000E+00 0. -1.
         -3    1    6    6    0  503 -0.24758199464E+02 -0.51656765069E-01  0.81624354162E+02  0.85296578486E+02  0.00000000000E+00 0.  1.
<mgrwt>
<rscale>  0 0.38465411E+03</rscale>
<asrwt>0</asrwt>
<pdfrwt beam="1">  1        2 0.89261541E-01 0.38465411E+03</pdfrwt>
<pdfrwt beam="2">  1       -2 0.70523492E-01 0.38465411E+03</pdfrwt>
<totfact> 0.98265860E+01</totfact>
</mgrwt>
</event>
<event>
12    1  0.1338445E-007  0.5318693E+03  0.7818608E-02  0.1005780E+00
          2   -1    0    0  501    0  0.00000000000E+00  0.00000000000E+00  0.23868194110E+03  0.23868194110E+03  0.00000000000E+00 0. -1.
         -2   -1    0    0    0  501 -0.00000000000E+00 -0.00000000000E+00 -0.24244897024E+04  0.24244897024E+04  0.00000000000E+00 0.  1.
         23    2    1    2    0    0  0.41847251184E+03  0.75213546947E+02 -0.93042679707E+02  0.44496318442E+03  0.92514725495E+02 0.  0.
    5000000    2    1    2    0    0 -0.41847251184E+03 -0.75213546947E+02 -0.20927650816E+04  0.22182084591E+04  0.60000563360E+03 0.  0.
         23    2    4    4    0    0  0.73641398346E+02 -0.84560954693E+02 -0.10714254252E+04  0.10809035352E+04  0.88466942390E+02 0.  0.
         23    2    4    4    0    0 -0.49211391019E+03  0.93474077457E+01 -0.10213396563E+04  0.11373049239E+04  0.89801568165E+02 0.  0.
          1    1    3    3  502    0  0.13094970584E+03 -0.19119651634E+02 -0.22333764765E+02  0.13420947651E+03  0.00000000000E+00 0. -1.
         -1    1    3    3    0  502  0.28752280601E+03  0.94333198582E+02 -0.70708914942E+02  0.31075370791E+03  0.00000000000E+00 0.  1.
         11    1    5    5    0    0 -0.16611065733E+02 -0.13737292222E+02 -0.79663991516E+02  0.82528735884E+02  0.00000000000E+00 0. -1.
        -11    1    5    5    0    0  0.90252464079E+02 -0.70823662471E+02 -0.99176143372E+03  0.99837479929E+03  0.00000000000E+00 0.  1.
          3    1    6    6  503    0 -0.22014574665E+02 -0.32372089383E+01 -0.10507919668E+03  0.10740930404E+03  0.00000000000E+00 0. -1.
         -3    1    6    6    0  503 -0.47009933552E+03  0.12584616684E+02 -0.91626045966E+03  0.10298956198E+04  0.00000000000E+00 0.  1.
<mgrwt>
<rscale>  0 0.53186928E+03</rscale>
<asrwt>0</asrwt>
<pdfrwt beam="1">  1        2 0.36720299E-01 0.53186928E+03</pdfrwt>
<pdfrwt beam="2">  1       -2 0.37299841E+00 0.53186928E+03</pdfrwt>
<totfact> 0.17331580E+00</totfact>
</mgrwt>
</event>
<event>
12    1  0.1338445E-007  0.1089645E+04  0.7818608E-02  0.9215344E-01
         -2   -1    0    0    0  501 -0.00000000000E+00  0.00000000000E+00  0.58849279931E+03  0.58849279931E+03  0.00000000000E+00 0.  1.
          2   -1    0    0  501    0  0.00000000000E+00 -0.00000000000E+00 -0.24553041828E+04  0.24553041828E+04  0.00000000000E+00 0. -1.
         23    2    1    2    0    0  0.59499081600E+03 -0.87474455507E+03 -0.39104655645E+03  0.11314404589E+04  0.89710617537E+02 0.  0.
    5000000    2    1    2    0    0 -0.59499081600E+03  0.87474455507E+03 -0.14757648270E+04  0.19123565232E+04  0.60002794887E+03 0.  0.
         23    2    4    4    0    0 -0.34664459609E+03  0.23367234916E+03 -0.94972235121E+03  0.10417215180E+04  0.91901761966E+02 0.  0.
         23    2    4    4    0    0 -0.24834621991E+03  0.64107220591E+03 -0.52604247579E+03  0.87063500523E+03  0.92925819042E+02 0.  0.
          1    1    3    3  502    0  0.45325921976E+03 -0.64105051785E+03 -0.32850845618E+03  0.85106256674E+03  0.00000000000E+00 0. -1.
         -1    1    3    3    0  502  0.14173159625E+03 -0.23369403722E+03 -0.62538100271E+02  0.28037789213E+03  0.00000000000E+00 0.  1.
         11    1    5    5    0    0 -0.29720311546E+03  0.15703396238E+03 -0.72190713439E+03  0.79632861801E+03  0.00000000000E+00 0.  1.
        -11    1    5    5    0    0 -0.49441480623E+02  0.76638386773E+02 -0.22781521682E+03  0.24539289995E+03  0.00000000000E+00 0. -1.
          3    1    6    6  503    0 -0.17742504443E+03  0.33212586899E+03 -0.27471895724E+03  0.46610915536E+03  0.00000000000E+00 0. -1.
         -3    1    6    6    0  503 -0.70921175481E+02  0.30894633693E+03 -0.25132351855E+03  0.40452584987E+03  0.00000000000E+00 0.  1.
<mgrwt>
<rscale>  0 0.10896446E+04</rscale>
<asrwt>0</asrwt>
<pdfrwt beam="1">  1        2 0.37773911E+00 0.10896446E+04</pdfrwt>
<pdfrwt beam="2">  1       -2 0.90537351E-01 0.10896446E+04</pdfrwt>
<totfact> 0.38395652E+00</totfact>
</mgrwt>
</event>
<event>
12    1  0.1338445E-007  0.4718279E+03  0.7818608E-02  0.1021406E+00
         -2   -1    0    0    0  501 -0.00000000000E+00  0.00000000000E+00  0.27707758415E+03  0.27707758415E+03  0.00000000000E+00 0.  1.
          2   -1    0    0  501    0  0.00000000000E+00 -0.00000000000E+00 -0.13990763203E+04  0.13990763203E+04  0.00000000000E+00 0. -1.
         23    2    1    2    0    0 -0.69957002898E+02  0.44474513470E+03 -0.62688201506E+03  0.77721288288E+03  0.91578313012E+02 0.  0.
    5000000    2    1    2    0    0  0.69957002898E+02 -0.44474513470E+03 -0.49511672109E+03  0.89894102157E+03  0.60021843996E+03 0.  0.
         23    2    4    4    0    0  0.94793280145E+02 -0.38581015216E+03 -0.61236097900E+03  0.73579491131E+03  0.92590190791E+02 0.  0.
         23    2    4    4    0    0 -0.24836277247E+02 -0.58934982534E+02  0.11724425791E+03  0.16314611026E+03  0.93703065302E+02 0.  0.
          3    1    3    3  502    0 -0.40261053846E+02  0.36505937408E+03 -0.44922700513E+03  0.58025356629E+03  0.00000000000E+00 0. -1.
         -3    1    3    3    0  502 -0.29695949052E+02  0.79685760618E+02 -0.17765500994E+03  0.19695931659E+03  0.00000000000E+00 0.  1.
         13    1    5    5    0    0  0.10098775218E+03 -0.37549275492E+03 -0.55798612884E+03  0.68010429720E+03  0.00000000000E+00 0.  1.
        -13    1    5    5    0    0 -0.61944720343E+01 -0.10317397237E+02 -0.54374850169E+02  0.55690614115E+02  0.00000000000E+00 0. -1.
          3    1    6    6  503    0 -0.42315336859E+02 -0.18040485338E+02  0.10040498963E+02  0.47083526463E+02  0.00000000000E+00 0. -1.
         -3    1    6    6    0  503  0.17479059612E+02 -0.40894497196E+02  0.10720375895E+03  0.11606258380E+03  0.00000000000E+00 0.  1.
<mgrwt>
<rscale>  0 0.47182793E+03</rscale>
<asrwt>0</asrwt>
<pdfrwt beam="1">  1        2 0.21524251E+00 0.47182793E+03</pdfrwt>
<pdfrwt beam="2">  1       -2 0.42627320E-01 0.47182793E+03</pdfrwt>
<totfact> 0.79499370E+01</totfact>
</mgrwt>
</event>
<event>
12    1  0.1338445E-007  0.9376456E+03  0.7818608E-02  0.9379709E-01
         -2   -1    0    0    0  501 -0.00000000000E+00  0.00000000000E+00  0.54784458188E+03  0.54784458188E+03  0.00000000000E+00 0.  1.
          2   -1    0    0  501    0  0.00000000000E+00 -0.00000000000E+00 -0.16668358275E+04  0.16668358275E+04  0.00000000000E+00 0. -1.
         23    2    1    2    0    0 -0.71846979524E+03  0.47036646112E+03 -0.50684202345E+03  0.10013711417E+04  0.91716259161E+02 0.  0.
    5000000    2    1    2    0    0  0.71846979524E+03 -0.47036646112E+03 -0.61214922213E+03  0.12133092677E+04  0.59995771058E+03 0.  0.
         23    2    4    4    0    0  0.40980687345E+03  0.43975997137E+02 -0.13637512261E+03  0.44345733212E+03  0.90447053555E+02 0.  0.
         23    2    4    4    0    0  0.30866292179E+03 -0.51434245826E+03 -0.47577409952E+03  0.76985193556E+03  0.80560817183E+02 0.  0.
          3    1    3    3  502    0 -0.28940733547E+03  0.13982977533E+03 -0.20681756382E+03  0.38220737381E+03  0.00000000000E+00 0. -1.
         -3    1    3    3    0  502 -0.42906245977E+03  0.33053668579E+03 -0.30002445963E+03  0.61916376785E+03  0.00000000000E+00 0.  1.
         11    1    5    5    0    0  0.30185006819E+03  0.38697027197E+02 -0.14072804584E+03  0.33528391919E+03  0.00000000000E+00 0. -1.
        -11    1    5    5    0    0  0.10795680526E+03  0.52789699394E+01  0.43529232285E+01  0.10817341294E+03  0.00000000000E+00 0.  1.
          1    1    6    6  503    0  0.67516467444E+02 -0.11255160126E+03 -0.14900993522E+03  0.19857063508E+03  0.00000000000E+00 0. -1.
         -1    1    6    6    0  503  0.24114645434E+03 -0.40179085700E+03 -0.32676416429E+03  0.57128130048E+03  0.00000000000E+00 0.  1.
<mgrwt>
<rscale>  0 0.93764563E+03</rscale>
<asrwt>0</asrwt>
<pdfrwt beam="1">  1        2 0.25643627E+00 0.93764563E+03</pdfrwt>
<pdfrwt beam="2">  1       -2 0.84283784E-01 0.93764563E+03</pdfrwt>
<totfact> 0.12627813E+01</totfact>
</mgrwt>
</event>
<event>
12    1  0.1338445E-007  0.2474404E+04  0.7818608E-02  0.8412161E-01
         -2   -1    0    0    0  501 -0.00000000000E+00  0.00000000000E+00  0.29233012750E+04  0.29233012750E+04  0.00000000000E+00 0.  1.
          2   -1    0    0  501    0  0.00000000000E+00 -0.00000000000E+00 -0.21060187632E+04  0.21060187632E+04  0.00000000000E+00 0. -1.
         23    2    1    2    0    0  0.65750864710E+02 -0.24402717634E+04  0.28070897894E+03  0.24588898162E+04  0.89956331594E+02 0.  0.
    5000000    2    1    2    0    0 -0.65750864710E+02  0.24402717634E+04  0.53657353287E+03  0.25704302219E+04  0.59995909367E+03 0.  0.
         23    2    4    4    0    0  0.41502666065E+02  0.23319322293E+04  0.51416749403E+03  0.23900559579E+04  0.91481564311E+02 0.  0.
         23    2    4    4    0    0 -0.10725353077E+03  0.10833953418E+03  0.22406038839E+02  0.18037426409E+03  0.93766038843E+02 0.  0.
          3    1    3    3  502    0  0.39952149309E+02 -0.41673507748E+03  0.66280437987E+02  0.42386011313E+03  0.00000000000E+00 0. -1.
         -3    1    3    3    0  502  0.25798715402E+02 -0.20235366860E+04  0.21442854095E+03  0.20350297030E+04  0.00000000000E+00 0.  1.
         11    1    5    5    0    0  0.24612770941E+02  0.22061082732E+04  0.47096507685E+03  0.22559538127E+04  0.00000000000E+00 0.  1.
        -11    1    5    5    0    0  0.16889895124E+02  0.12582395606E+03  0.43202417181E+02  0.13410214512E+03  0.00000000000E+00 0. -1.
          1    1    6    6  503    0 -0.10235031140E+03  0.48564139901E+02 -0.71461459989E+01  0.11351268357E+03  0.00000000000E+00 0.  1.
         -1    1    6    6    0  503 -0.49032193732E+01  0.59775394278E+02  0.29552184838E+02  0.66861580523E+02  0.00000000000E+00 0. -1.
<mgrwt>
<rscale>  0 0.24744043E+04</rscale>
<asrwt>0</asrwt>
<pdfrwt beam="1">  1        2 0.32400288E+00 0.24744043E+04</pdfrwt>
<pdfrwt beam="2">  1       -2 0.44973866E+00 0.24744043E+04</pdfrwt>
<totfact> 0.17125829E-02</totfact>
</mgrwt>
</event>
<event>
12    1  0.1338445E-007  0.6134189E+03  0.7818608E-02  0.9877951E-01
         -2   -1    0    0    0  501 -0.00000000000E+00  0.00000000000E+00  0.36481716859E+03  0.36481716859E+03  0.00000000000E+00 0.  1.
          2   -1    0    0  501    0  0.00000000000E+00 -0.00000000000E+00 -0.13551382319E+04  0.13551382319E+04  0.00000000000E+00 0. -1.
         23    2    1    2    0    0 -0.32251367547E+03  0.40775567278E+03 -0.11878003460E+03  0.54095725609E+03  0.90809122573E+02 0.  0.
    5000000    2    1    2    0    0  0.32251367547E+03 -0.40775567278E+03 -0.87154102876E+03  0.11789981445E+04  0.60014423289E+03 0.  0.
         23    2    4    4    0    0 -0.81465358591E+02  0.44297421317E+02 -0.35453325779E+03  0.37697347551E+03  0.88409864692E+02 0.  0.
         23    2    4    4    0    0  0.40397903406E+03 -0.45205309410E+03 -0.51700777097E+03  0.80202466894E+03  0.91626821967E+02 0.  0.
          1    1    3    3  502    0 -0.13402798431E+03  0.16558930384E+03 -0.94719677414E+02  0.23314187830E+03  0.00000000000E+00 0. -1.
         -1    1    3    3    0  502 -0.18848569116E+03  0.24216636894E+03 -0.24060357182E+02  0.30781537779E+03  0.00000000000E+00 0.  1.
         11    1    5    5    0    0 -0.79089227563E+02  0.39431526928E+02 -0.35914656954E+03  0.36985971616E+03  0.00000000000E+00 0. -1.
        -11    1    5    5    0    0 -0.23761310285E+01  0.48658943884E+01  0.46133117423E+01  0.71137593504E+01  0.00000000000E+00 0.  1.
          4    1    6    6  503    0  0.15396425806E+03 -0.24086245351E+03 -0.23974021063E+03  0.37308857241E+03  0.00000000000E+00 0.  1.
         -4    1    6    6    0  503  0.25001477600E+03 -0.21119064059E+03 -0.27726756034E+03  0.42893609653E+03  0.00000000000E+00 0. -1.
<mgrwt>
<rscale>  0 0.61341886E+03</rscale>
<asrwt>0</asrwt>
<pdfrwt beam="1">  1        2 0.20848280E+00 0.61341886E+03</pdfrwt>
<pdfrwt beam="2">  1       -2 0.56125719E-01 0.61341886E+03</pdfrwt>
<totfact> 0.47395662E+01</totfact>
</mgrwt>
</event>
<event>
12    1  0.1338445E-007  0.6360077E+03  0.7818608E-02  0.9833395E-01
         -2   -1    0    0    0  501 -0.00000000000E+00  0.00000000000E+00  0.19428704157E+03  0.19428704157E+03  0.00000000000E+00 0. -1.
          2   -1    0    0  501    0  0.00000000000E+00 -0.00000000000E+00 -0.35152718536E+04  0.35152718536E+04  0.00000000000E+00 0.  1.
         23    2    1    2    0    0 -0.41435420206E+03 -0.45365247745E+03 -0.22643248750E+04  0.23479588864E+04  0.90850525202E+02 0.  0.
    5000000    2    1    2    0    0  0.41435420206E+03  0.45365247745E+03 -0.10566599371E+04  0.13616000087E+04  0.59994531929E+03 0.  0.
         23    2    4    4    0    0  0.36588640764E+03  0.38287734662E+03 -0.34394835073E+03  0.63794114431E+03  0.90556666188E+02 0.  0.
         23    2    4    4    0    0  0.48467794418E+02  0.70775130831E+02 -0.71271158634E+03  0.72365886442E+03  0.91466390112E+02 0.  0.
          2    1    3    3  502    0 -0.34087290378E+03 -0.33817882515E+03 -0.16423840983E+04  0.17111355238E+04  0.00000000000E+00 0. -1.
         -2    1    3    3    0  502 -0.73481298280E+02 -0.11547365230E+03 -0.62194077663E+03  0.63682336264E+03  0.00000000000E+00 0.  1.
         13    1    5    5    0    0  0.14730376505E+03  0.18462669537E+03 -0.10610594281E+03  0.25892834326E+03  0.00000000000E+00 0.  1.
        -13    1    5    5    0    0  0.21858264259E+03  0.19825065124E+03 -0.23784240792E+03  0.37901280106E+03  0.00000000000E+00 0. -1.
          4    1    6    6  503    0  0.51450050672E+02 -0.13876688933E+01 -0.35679341544E+03  0.36048658039E+03  0.00000000000E+00 0. -1.
         -4    1    6    6    0  503 -0.29822562539E+01  0.72162799724E+02 -0.35591817089E+03  0.36317228403E+03  0.00000000000E+00 0.  1.
<mgrwt>
<rscale>  0 0.63600772E+03</rscale>
<asrwt>0</asrwt>
<pdfrwt beam="1">  1        2 0.54081104E+00 0.63600772E+03</pdfrwt>
<pdfrwt beam="2">  1       -2 0.29890315E-01 0.63600772E+03</pdfrwt>
<totfact> 0.90673462E+00</totfact>
</mgrwt>
</event>
<event>
12    1  0.1338445E-007  0.6775012E+03  0.7818608E-02  0.9756501E-01
          2   -1    0    0  501    0  0.00000000000E+00  0.00000000000E+00  0.14916376792E+04  0.14916376792E+04  0.00000000000E+00 0. -1.
         -2   -1    0    0    0  501 -0.00000000000E+00 -0.00000000000E+00 -0.10789812983E+04  0.10789812983E+04  0.00000000000E+00 0.  1.
         23    2    1    2    0    0  0.12501579224E+03  0.55390452429E+03 -0.87133617354E+03  0.10439859545E+04  0.90778717185E+02 0.  0.
    5000000    2    1    2    0    0 -0.12501579224E+03 -0.55390452429E+03  0.12839925544E+04  0.15266330230E+04  0.59961015417E+03 0.  0.
         23    2    4    4    0    0 -0.30504941363E+03 -0.14694943845E+03  0.73349588928E+03  0.81303003741E+03  0.91391136994E+02 0.  0.
         23    2    4    4    0    0  0.18003362139E+03 -0.40695508584E+03  0.55049666510E+03  0.71360298563E+03  0.90322179404E+02 0.  0.
          1    1    3    3  502    0  0.40467459490E+02  0.18274798960E+03 -0.21332748632E+03  0.28380109126E+03  0.00000000000E+00 0. -1.
         -1    1    3    3    0  502  0.84548332753E+02  0.37115653469E+03 -0.65800868722E+03  0.76018486322E+03  0.00000000000E+00 0.  1.
         13    1    5    5    0    0 -0.10896370602E+03 -0.61733375241E+02  0.17656231185E+03  0.21646789326E+03  0.00000000000E+00 0. -1.
        -13    1    5    5    0    0 -0.19608570761E+03 -0.85216063213E+02  0.55693357743E+03  0.59656214414E+03  0.00000000000E+00 0.  1.
          3    1    6    6  503    0  0.10296407282E+03 -0.29290946819E+03  0.32541051515E+03  0.44976611724E+03  0.00000000000E+00 0. -1.
         -3    1    6    6    0  503  0.77069548570E+02 -0.11404561764E+03  0.22508614995E+03  0.26383686839E+03  0.00000000000E+00 0.  1.
<mgrwt>
<rscale>  0 0.67750120E+03</rscale>
<asrwt>0</asrwt>
<pdfrwt beam="1">  1        2 0.22948272E+00 0.67750120E+03</pdfrwt>
<pdfrwt beam="2">  1       -2 0.16599712E+00 0.67750120E+03</pdfrwt>
<totfact> 0.30410555E+00</totfact>
</mgrwt>
</event>
<event>
12    1  0.1338445E-007  0.5206555E+03  0.7818608E-02  0.1008524E+00
          2   -1    0    0  501    0  0.00000000000E+00  0.00000000000E+00  0.12795011345E+04  0.12795011345E+04  0.00000000000E+00 0. -1.
         -2   -1    0    0    0  501 -0.00000000000E+00 -0.00000000000E+00 -0.28877301204E+03  0.28877301204E+03  0.00000000000E+00 0.  1.
         23    2    1    2    0    0 -0.44130495683E+03  0.10685950052E+03  0.35907761001E+03  0.58592673150E+03  0.90578070710E+02 0.  0.
    5000000    2    1    2    0    0  0.44130495683E+03 -0.10685950052E+03  0.63165051245E+03  0.98234741505E+03  0.59987920134E+03 0.  0.
         23    2    4    4    0    0  0.27087907956E+03  0.10946599894E+03  0.21862623622E+02  0.30696525629E+03  0.91604659228E+02 0.  0.
         23    2    4    4    0    0  0.17042587728E+03 -0.21632549946E+03  0.60978788883E+03  0.67538215876E+03  0.91967872897E+02 0.  0.
          3    1    3    3  502    0 -0.14917031633E+03 -0.16588762922E+01  0.14346740760E+03  0.20697205654E+03  0.00000000000E+00 0. -1.
         -3    1    3    3    0  502 -0.29213464050E+03  0.10851837681E+03  0.21561020241E+03  0.37895467495E+03  0.00000000000E+00 0.  1.
         11    1    5    5    0    0  0.13044991864E+03  0.72953358413E+02  0.52965409954E+02  0.15857083095E+03  0.00000000000E+00 0. -1.
        -11    1    5    5    0    0  0.14042916092E+03  0.36512640526E+02 -0.31102786331E+02  0.14839442534E+03  0.00000000000E+00 0.  1.
          4    1    6    6  503    0  0.89478875689E+02 -0.17140455854E+03  0.46412468495E+03  0.50278993134E+03  0.00000000000E+00 0. -1.
         -4    1    6    6    0  503  0.80947001587E+02 -0.44920940919E+02  0.14566320388E+03  0.17259222741E+03  0.00000000000E+00 0.  1.
<mgrwt>
<rscale>  0 0.52065552E+03</rscale>
<asrwt>0</asrwt>
<pdfrwt beam="1">  1        2 0.19684633E+00 0.52065552E+03</pdfrwt>
<pdfrwt beam="2">  1       -2 0.44426618E-01 0.52065552E+03</pdfrwt>
<totfact> 0.85025647E+01</totfact>
</mgrwt>
</event>
<event>
12    1  0.1338445E-007  0.5475441E+03  0.7818608E-02  0.1002064E+00
          1   -1    0    0  501    0  0.00000000000E+00  0.00000000000E+00  0.19089527879E+04  0.19089527879E+04  0.00000000000E+00 0. -1.
         -1   -1    0    0    0  501 -0.00000000000E+00 -0.00000000000E+00 -0.20125679989E+03  0.20125679989E+03  0.00000000000E+00 0.  1.
         23    2    1    2    0    0 -0.33698612234E+03  0.18497646043E+03  0.19781328455E+03  0.44063900928E+03  0.85186286393E+02 0.  0.
    5000000    2    1    2    0    0  0.33698612234E+03 -0.18497646043E+03  0.15098827035E+04  0.16695705785E+04  0.59995349892E+03 0.  0.
         23    2    4    4    0    0 -0.64394150397E+02 -0.26945021959E+03  0.58596201653E+03  0.65467608727E+03  0.92191469142E+02 0.  0.
         23    2    4    4    0    0  0.40138027273E+03  0.84473759155E+02  0.92392068695E+03  0.10148944913E+04  0.90218918728E+02 0.  0.
          2    1    3    3  502    0 -0.20729720641E+03  0.78534510222E+02  0.14442679655E+03  0.26457305351E+03  0.00000000000E+00 0.  1.
         -2    1    3    3    0  502 -0.12968891592E+03  0.10644195021E+03  0.53386487999E+02  0.17606595576E+03  0.00000000000E+00 0. -1.
         11    1    5    5    0    0  0.18907414163E+02 -0.61320221137E+02  0.91401815508E+02  0.11167789266E+03  0.00000000000E+00 0.  1.
        -11    1    5    5    0    0 -0.83301564559E+02 -0.20812999845E+03  0.49456020102E+03  0.54299819461E+03  0.00000000000E+00 0. -1.
          3    1    6    6  503    0  0.14141353200E+03  0.67686499252E+02  0.40417735282E+03  0.43351883667E+03  0.00000000000E+00 0. -1.
         -3    1    6    6    0  503  0.25996674073E+03  0.16787259902E+02  0.51974333413E+03  0.58137565459E+03  0.00000000000E+00 0.  1.
<mgrwt>
<rscale>  0 0.54754406E+03</rscale>
<asrwt>0</asrwt>
<pdfrwt beam="1">  1        1 0.29368503E+00 0.54754406E+03</pdfrwt>
<pdfrwt beam="2">  1       -1 0.30962586E-01 0.54754406E+03</pdfrwt>
<totfact> 0.35367021E+01</totfact>
</mgrwt>
</event>
<event>
12    1  0.1338445E-007  0.8166379E+03  0.7818608E-02  0.9536242E-01
         -2   -1    0    0    0  501 -0.00000000000E+00  0.00000000000E+00  0.81453721919E+03  0.81453721919E+03  0.00000000000E+00 0.  1.
          2   -1    0    0  501    0  0.00000000000E+00 -0.00000000000E+00 -0.14143006487E+04  0.14143006487E+04  0.00000000000E+00 0. -1.
         23    2    1    2    0    0  0.66744481393E+03 -0.24504936162E+03 -0.98799491741E+03  0.12208090993E+04  0.93322724605E+02 0.  0.
    5000000    2    1    2    0    0 -0.66744481393E+03  0.24504936162E+03  0.38823148795E+03  0.10080287685E+04  0.59988877353E+03 0.  0.
         23    2    4    4    0    0 -0.65576721498E+03 -0.37557529835E+01  0.26632441999E+03  0.71448439676E+03  0.97542352853E+02 0.  0.
         23    2    4    4    0    0 -0.11677598949E+02  0.24880511461E+03  0.12190706796E+03  0.29354437174E+03  0.96263251503E+02 0.  0.
          1    1    3    3  502    0  0.24869387451E+03 -0.11053307076E+03 -0.30846273475E+03  0.41135806991E+03  0.00000000000E+00 0. -1.
         -1    1    3    3    0  502  0.41875093942E+03 -0.13451629086E+03 -0.67953218266E+03  0.80945102943E+03  0.00000000000E+00 0.  1.
         13    1    5    5    0    0 -0.34308977646E+03  0.28132641028E+02  0.97846886479E+02  0.35787714847E+03  0.00000000000E+00 0.  1.
        -13    1    5    5    0    0 -0.31267743852E+03 -0.31888394011E+02  0.16847753351E+03  0.35660724829E+03  0.00000000000E+00 0. -1.
          1    1    6    6  503    0  0.33863041471E+02  0.15268965568E+03  0.97888939992E+02  0.18450767221E+03  0.00000000000E+00 0. -1.
         -1    1    6    6    0  503 -0.45540640420E+02  0.96115458922E+02  0.24018127965E+02  0.10903669953E+03  0.00000000000E+00 0.  1.
<mgrwt>
<rscale>  0 0.81663791E+03</rscale>
<asrwt>0</asrwt>
<pdfrwt beam="1">  1        2 0.21758471E+00 0.81663791E+03</pdfrwt>
<pdfrwt beam="2">  1       -2 0.12531342E+00 0.81663791E+03</pdfrwt>
<totfact> 0.68642902E+00</totfact>
</mgrwt>
</event>
<event>
12    1  0.1338445E-007  0.4248563E+03  0.7818608E-02  0.1035497E+00
          1   -1    0    0  501    0  0.00000000000E+00  0.00000000000E+00  0.13367254243E+04  0.13367254243E+04  0.00000000000E+00 0. -1.
         -1   -1    0    0    0  501 -0.00000000000E+00 -0.00000000000E+00 -0.22449337183E+03  0.22449337183E+03  0.00000000000E+00 0.  1.
         23    2    1    2    0    0 -0.36544528726E+03  0.46891716138E+02  0.50342640740E+03  0.63056516625E+03  0.91788834835E+02 0.  0.
    5000000    2    1    2    0    0  0.36544528726E+03 -0.46891716138E+02  0.60880564505E+03  0.93065362986E+03  0.59976893410E+03 0.  0.
         23    2    4    4    0    0  0.99427034836E+02  0.10983539661E+03  0.58143372146E+03  0.60750180675E+03  0.95098491831E+02 0.  0.
         23    2    4    4    0    0  0.26601825242E+03 -0.15672711274E+03  0.27371923582E+02  0.32315182311E+03  0.91371659101E+02 0.  0.
          4    1    3    3  502    0 -0.18650781517E+03 -0.14482844722E+02  0.29281745969E+03  0.34747227603E+03  0.00000000000E+00 0. -1.
         -4    1    3    3    0  502 -0.17893747209E+03  0.61374560859E+02  0.21060894771E+03  0.28309289022E+03  0.00000000000E+00 0.  1.
         11    1    5    5    0    0  0.23851953712E+02  0.89626094118E+01  0.27472266686E+03  0.27590177192E+03  0.00000000000E+00 0. -1.
        -11    1    5    5    0    0  0.75575081123E+02  0.10087278719E+03  0.30671105461E+03  0.33160003483E+03  0.00000000000E+00 0.  1.
          1    1    6    6  503    0  0.10726689044E+03 -0.11612895605E+03  0.16025226117E+02  0.15889911293E+03  0.00000000000E+00 0. -1.
         -1    1    6    6    0  503  0.15875136198E+03 -0.40598156696E+02  0.11346697465E+02  0.16425271018E+03  0.00000000000E+00 0.  1.
<mgrwt>
<rscale>  0 0.42485629E+03</rscale>
<asrwt>0</asrwt>
<pdfrwt beam="1">  1        1 0.20565006E+00 0.42485629E+03</pdfrwt>
<pdfrwt beam="2">  1       -1 0.34537443E-01 0.42485629E+03</pdfrwt>
<totfact> 0.72255437E+01</totfact>
</mgrwt>
</event>
<event>
12    1  0.1338445E-007  0.7664943E+03  0.7818608E-02  0.9609823E-01
          1   -1    0    0  501    0  0.00000000000E+00  0.00000000000E+00  0.29540647847E+04  0.29540647847E+04  0.00000000000E+00 0. -1.
         -1   -1    0    0    0  501 -0.00000000000E+00 -0.00000000000E+00 -0.24997012570E+03  0.24997012570E+03  0.00000000000E+00 0.  1.
         23    2    1    2    0    0  0.73522946463E+03  0.12811916877E+03  0.10251298203E+04  0.12712125343E+04  0.90073702066E+02 0.  0.
    5000000    2    1    2    0    0 -0.73522946463E+03 -0.12811916877E+03  0.16789648386E+04  0.19328223761E+04  0.59991876194E+03 0.  0.
         23    2    4    4    0    0 -0.39834882396E+03 -0.17283513674E+03  0.14416658301E+04  0.15083780935E+04  0.90831367787E+02 0.  0.
         23    2    4    4    0    0 -0.33688064068E+03  0.44715967966E+02  0.23729900857E+03  0.42444428254E+03  0.91400468602E+02 0.  0.
          3    1    3    3  502    0  0.66114383223E+03  0.13381599088E+03  0.95368684426E+03  0.11681337608E+04  0.00000000000E+00 0. -1.
         -3    1    3    3    0  502  0.74085632401E+02 -0.56968221093E+01  0.71442976063E+02  0.10307877347E+03  0.00000000000E+00 0.  1.
         13    1    5    5    0    0 -0.29097865401E+03 -0.16778600504E+03  0.11134152656E+04  0.11629764719E+04  0.00000000000E+00 0. -1.
        -13    1    5    5    0    0 -0.10737016995E+03 -0.50491317013E+01  0.32825056447E+03  0.34540162159E+03  0.00000000000E+00 0.  1.
          1    1    6    6  503    0 -0.29526477990E+03  0.47443742323E+02  0.16650932640E+03  0.34228285775E+03  0.00000000000E+00 0. -1.
         -1    1    6    6    0  503 -0.41615860778E+02 -0.27277743571E+01  0.70789682174E+02  0.82161424789E+02  0.00000000000E+00 0.  1.
<mgrwt>
<rscale>  0 0.76649429E+03</rscale>
<asrwt>0</asrwt>
<pdfrwt beam="1">  1        1 0.45447148E+00 0.76649429E+03</pdfrwt>
<pdfrwt beam="2">  1       -1 0.38456945E-01 0.76649429E+03</pdfrwt>
<totfact> 0.44978809E+00</totfact>
</mgrwt>
</event>
<event>
12    1  0.1338445E-007  0.6788100E+03  0.7818608E-02  0.9754172E-01
         -2   -1    0    0    0  501 -0.00000000000E+00  0.00000000000E+00  0.54502463198E+03  0.54502463198E+03  0.00000000000E+00 0. -1.
          2   -1    0    0  501    0  0.00000000000E+00 -0.00000000000E+00 -0.12131283046E+04  0.12131283046E+04  0.00000000000E+00 0.  1.
         23    2    1    2    0    0  0.49485096964E+03  0.24545293575E+03 -0.75280792061E+03  0.93800001102E+03  0.89440647970E+02 0.  0.
    5000000    2    1    2    0    0 -0.49485096964E+03 -0.24545293575E+03  0.84704247967E+02  0.82015292559E+03  0.60029275017E+03 0.  0.
         23    2    4    4    0    0 -0.54273355208E+03 -0.32452344424E+01  0.82821123491E+02  0.55655194307E+03  0.91216702103E+02 0.  0.
         23    2    4    4    0    0  0.47882582440E+02 -0.24220770131E+03  0.18831244765E+01  0.26360098252E+03  0.92328866300E+02 0.  0.
          1    1    3    3  502    0  0.84029664880E+02  0.80758761622E+02 -0.14239031321E+03  0.18400533540E+03  0.00000000000E+00 0. -1.
         -1    1    3    3    0  502  0.41082130476E+03  0.16469417413E+03 -0.61041760740E+03  0.75399467562E+03  0.00000000000E+00 0.  1.
         11    1    5    5    0    0 -0.18390993393E+03  0.12249310802E+02  0.70009493788E+02  0.19716551076E+03  0.00000000000E+00 0.  1.
        -11    1    5    5    0    0 -0.35882361815E+03 -0.15494545245E+02  0.12811629702E+02  0.35938643231E+03  0.00000000000E+00 0. -1.
          3    1    6    6  503    0  0.25209593212E+02 -0.22531372738E+03 -0.20350966103E+02  0.22763119548E+03  0.00000000000E+00 0. -1.
         -3    1    6    6    0  503  0.22672989228E+02 -0.16893973935E+02  0.22234090580E+02  0.35969787041E+02  0.00000000000E+00 0.  1.
<mgrwt>
<rscale>  0 0.67880998E+03</rscale>
<asrwt>0</asrwt>
<pdfrwt beam="1">  1        2 0.18663512E+00 0.67880998E+03</pdfrwt>
<pdfrwt beam="2">  1       -2 0.83849944E-01 0.67880998E+03</pdfrwt>
<totfact> 0.23755131E+01</totfact>
</mgrwt>
</event>
<event>
12    1  0.1338445E-007  0.1155624E+04  0.7818608E-02  0.9152611E-01
         -2   -1    0    0    0  501 -0.00000000000E+00  0.00000000000E+00  0.66078214797E+03  0.66078214797E+03  0.00000000000E+00 0.  1.
          2   -1    0    0  501    0  0.00000000000E+00 -0.00000000000E+00 -0.25733004026E+04  0.25733004026E+04  0.00000000000E+00 0. -1.
         23    2    1    2    0    0 -0.76813968497E+03  0.82225630137E+03 -0.15326027515E+04  0.19035238743E+04  0.91585727199E+02 0.  0.
    5000000    2    1    2    0    0  0.76813968497E+03 -0.82225630137E+03 -0.37991550321E+03  0.13305586763E+04  0.59992216226E+03 0.  0.
         23    2    4    4    0    0  0.15678524305E+02 -0.71148385414E+02  0.10517318311E+03  0.15836188248E+03  0.93322979519E+02 0.  0.
         23    2    4    4    0    0  0.75246116067E+03 -0.75110791596E+03 -0.48508868632E+03  0.11721967938E+04  0.91506230182E+02 0.  0.
          2    1    3    3  502    0 -0.41408194206E+03  0.41763409493E+03 -0.87172979696E+03  0.10515678442E+04  0.00000000000E+00 0. -1.
         -2    1    3    3    0  502 -0.35405774291E+03  0.40462220644E+03 -0.66087295450E+03  0.85195603012E+03  0.00000000000E+00 0.  1.
         13    1    5    5    0    0 -0.21751441999E+02 -0.77441073677E+02  0.71200544850E+02  0.10742328755E+03  0.00000000000E+00 0. -1.
        -13    1    5    5    0    0  0.37429966305E+02  0.62926882636E+01  0.33972638257E+02  0.50938594929E+02  0.00000000000E+00 0.  1.
          2    1    6    6  503    0  0.23940641008E+03 -0.18115717278E+03 -0.13214627558E+03  0.32801827478E+03  0.00000000000E+00 0. -1.
         -2    1    6    6    0  503  0.51305475059E+03 -0.56995074317E+03 -0.35294241074E+03  0.84417851906E+03  0.00000000000E+00 0.  1.
<mgrwt>
<rscale>  0 0.11556236E+04</rscale>
<asrwt>0</asrwt>
<pdfrwt beam="1">  1        2 0.39589237E+00 0.11556236E+04</pdfrwt>
<pdfrwt beam="2">  1       -2 0.10165879E+00 0.11556236E+04</pdfrwt>
<totfact> 0.24791568E+00</totfact>
</mgrwt>
</event>
<event>
12    1  0.1338445E-007  0.4683792E+03  0.7818608E-02  0.1022379E+00
         -1   -1    0    0    0  501 -0.00000000000E+00  0.00000000000E+00  0.10370745165E+03  0.10370745165E+03  0.00000000000E+00 0.  1.
          1   -1    0    0  501    0  0.00000000000E+00 -0.00000000000E+00 -0.30822512124E+04  0.30822512124E+04  0.00000000000E+00 0. -1.
         23    2    1    2    0    0 -0.16306942923E+03  0.33464498428E+03 -0.14886418504E+04  0.15371926878E+04  0.91257308612E+02 0.  0.
    5000000    2    1    2    0    0  0.16306942923E+03 -0.33464498428E+03 -0.14899019104E+04  0.16487659763E+04  0.60003553040E+03 0.  0.
         23    2    4    4    0    0  0.67969039621E+02 -0.40419897689E+03 -0.14296143554E+04  0.14903494543E+04  0.96683439654E+02 0.  0.
         23    2    4    4    0    0  0.95100389613E+02  0.69553992612E+02 -0.60287554991E+02  0.15841652199E+03  0.87059538020E+02 0.  0.
          2    1    3    3  502    0 -0.11380471001E+03  0.20404661288E+03 -0.75254486982E+03  0.78797862493E+03  0.00000000000E+00 0. -1.
         -2    1    3    3    0  502 -0.49264719220E+02  0.13059837140E+03 -0.73609698055E+03  0.74921406284E+03  0.00000000000E+00 0.  1.
         13    1    5    5    0    0  0.33052031770E+02 -0.35645684911E+03 -0.11451552170E+04  0.11998059815E+04  0.00000000000E+00 0. -1.
        -13    1    5    5    0    0  0.34917007851E+02 -0.47742127782E+02 -0.28445913837E+03  0.29054347283E+03  0.00000000000E+00 0.  1.
          1    1    6    6  503    0  0.52217814814E+02 -0.12614564665E+02 -0.24823626234E+02  0.59178035157E+02  0.00000000000E+00 0. -1.
         -1    1    6    6    0  503  0.42882574799E+02  0.82168557277E+02 -0.35463928757E+02  0.99238486835E+02  0.00000000000E+00 0.  1.
<mgrwt>
<rscale>  0 0.46837918E+03</rscale>
<asrwt>0</asrwt>
<pdfrwt beam="1">  1        1 0.47419257E+00 0.46837918E+03</pdfrwt>
<pdfrwt beam="2">  1       -1 0.15954990E-01 0.46837918E+03</pdfrwt>
<totfact> 0.17354123E+01</totfact>
</mgrwt>
</event>
<event>
12    1  0.1338445E-007  0.2030732E+04  0.7818608E-02  0.8592386E-01
          2   -1    0    0  501    0  0.00000000000E+00  0.00000000000E+00  0.14631425768E+04  0.14631425768E+04  0.00000000000E+00 0. -1.
         -2   -1    0    0    0  501 -0.00000000000E+00 -0.00000000000E+00 -0.30970793897E+04  0.30970793897E+04  0.00000000000E+00 0.  1.
         23    2    1    2    0    0  0.12270112150E+04  0.16021297883E+04 -0.23773770717E+03  0.20340237862E+04  0.91417532827E+02 0.  0.
    5000000    2    1    2    0    0 -0.12270112150E+04 -0.16021297883E+04 -0.13961991057E+04  0.25261981802E+04  0.59994076577E+03 0.  0.
         23    2    4    4    0    0 -0.11948773272E+04 -0.14613732214E+04 -0.14034792633E+04  0.23540303101E+04  0.91439265578E+02 0.  0.
         23    2    4    4    0    0 -0.32133887780E+02 -0.14075656693E+03  0.72801575326E+01  0.17216787007E+03  0.93508164954E+02 0.  0.
          2    1    3    3  502    0  0.10423844634E+03  0.12557112706E+03 -0.43721856101E+02  0.16895372843E+03  0.00000000000E+00 0. -1.
         -2    1    3    3    0  502  0.11227727686E+04  0.14765586612E+04 -0.19401585107E+03  0.18650700578E+04  0.00000000000E+00 0.  1.
         11    1    5    5    0    0 -0.88948202359E+03 -0.10254640435E+04 -0.10223720484E+04  0.16994114805E+04  0.00000000000E+00 0. -1.
        -11    1    5    5    0    0 -0.30539530362E+03 -0.43590917785E+03 -0.38110721487E+03  0.65461882958E+03  0.00000000000E+00 0.  1.
          3    1    6    6  503    0  0.14449947560E+02 -0.41535711327E+02 -0.33428727664E+02  0.55240348779E+02  0.00000000000E+00 0. -1.
         -3    1    6    6    0  503 -0.46583835340E+02 -0.99220855598E+02  0.40708885197E+02  0.11692752129E+03  0.00000000000E+00 0.  1.
<mgrwt>
<rscale>  0 0.20307320E+04</rscale>
<asrwt>0</asrwt>
<pdfrwt beam="1">  1        2 0.22509886E+00 0.20307320E+04</pdfrwt>
<pdfrwt beam="2">  1       -2 0.47647374E+00 0.20307320E+04</pdfrwt>
<totfact> 0.27448598E-02</totfact>
</mgrwt>
</event>
<event>
12    1  0.1338445E-007  0.7249385E+03  0.7818608E-02  0.9675510E-01
         -2   -1    0    0    0  501 -0.00000000000E+00  0.00000000000E+00  0.32884569415E+03  0.32884569415E+03  0.00000000000E+00 0. -1.
          2   -1    0    0  501    0  0.00000000000E+00 -0.00000000000E+00 -0.19545533625E+04  0.19545533625E+04  0.00000000000E+00 0.  1.
         23    2    1    2    0    0 -0.51397792290E+02  0.68411386488E+03 -0.72054379355E+03  0.99889314695E+03  0.89166403005E+02 0.  0.
    5000000    2    1    2    0    0  0.51397792290E+02 -0.68411386488E+03 -0.90516387476E+03  0.12845059097E+04  0.59998356528E+03 0.  0.
         23    2    4    4    0    0 -0.13227262308E+03 -0.23519963444E+03 -0.68823999975E+03  0.74518744043E+03  0.93888813230E+02 0.  0.
         23    2    4    4    0    0  0.18367041537E+03 -0.44891423043E+03 -0.21692387500E+03  0.53931846923E+03  0.92464241408E+02 0.  0.
          4    1    3    3  502    0  0.26209102340E+01  0.11345096882E+03 -0.77320503362E+02  0.13731879600E+03  0.00000000000E+00 0. -1.
         -4    1    3    3    0  502 -0.54018702524E+02  0.57066289606E+03 -0.64322329019E+03  0.86157435095E+03  0.00000000000E+00 0.  1.
         13    1    5    5    0    0 -0.56594011701E+02 -0.10390280308E+03 -0.42785415958E+03  0.44391199186E+03  0.00000000000E+00 0. -1.
        -13    1    5    5    0    0 -0.75678611375E+02 -0.13129683136E+03 -0.26038584018E+03  0.30127544857E+03  0.00000000000E+00 0.  1.
          3    1    6    6  503    0  0.12834884196E+03 -0.19499903192E+03 -0.11415080847E+03  0.25986237657E+03  0.00000000000E+00 0. -1.
         -3    1    6    6    0  503  0.55321573408E+02 -0.25391519851E+03 -0.10277306653E+03  0.27945609266E+03  0.00000000000E+00 0.  1.
<mgrwt>
<rscale>  0 0.72493846E+03</rscale>
<asrwt>0</asrwt>
<pdfrwt beam="1">  1        2 0.30070051E+00 0.72493846E+03</pdfrwt>
<pdfrwt beam="2">  1       -2 0.50591646E-01 0.72493846E+03</pdfrwt>
<totfact> 0.27089602E+01</totfact>
</mgrwt>
</event>
<event>
12    1  0.1338445E-007  0.8551970E+03  0.7818608E-02  0.9483388E-01
         -1   -1    0    0    0  501 -0.00000000000E+00  0.00000000000E+00  0.83154883902E+03  0.83154883902E+03  0.00000000000E+00 0.  1.
          1   -1    0    0  501    0  0.00000000000E+00 -0.00000000000E+00 -0.94545824396E+03  0.94545824396E+03  0.00000000000E+00 0. -1.
         23    2    1    2    0    0  0.74052369239E+03  0.17898338598E+03 -0.22969162626E+03  0.80053315666E+03  0.87662422383E+02 0.  0.
    5000000    2    1    2    0    0 -0.74052369239E+03 -0.17898338598E+03  0.11578222132E+03  0.97647392631E+03  0.59973778816E+03 0.  0.
         23    2    4    4    0    0 -0.43439323174E+03  0.17902783074E+03  0.13088439317E+03  0.49634263829E+03  0.92069790127E+02 0.  0.
         23    2    4    4    0    0 -0.30613046065E+03 -0.35801121672E+03 -0.15102171849E+02  0.48013128802E+03  0.91706531403E+02 0.  0.
          1    1    3    3  502    0  0.56093671573E+03  0.12383347339E+03 -0.13472639375E+03  0.59003044782E+03  0.00000000000E+00 0.  1.
         -1    1    3    3    0  502  0.17958697666E+03  0.55149912593E+02 -0.94965232503E+02  0.21050270884E+03  0.00000000000E+00 0. -1.
         13    1    5    5    0    0 -0.28485695844E+03  0.12115751729E+03  0.13066223337E+03  0.33599888392E+03  0.00000000000E+00 0. -1.
        -13    1    5    5    0    0 -0.14953627330E+03  0.57870313444E+02  0.22215979490E+00  0.16034375437E+03  0.00000000000E+00 0.  1.
          4    1    6    6  503    0 -0.22380532446E+03 -0.31172330327E+03  0.40348344420E+01  0.38376623216E+03  0.00000000000E+00 0. -1.
         -4    1    6    6    0  503 -0.82325136189E+02 -0.46287913453E+02 -0.19137006291E+02  0.96365055857E+02  0.00000000000E+00 0.  1.
<mgrwt>
<rscale>  0 0.85519697E+03</rscale>
<asrwt>0</asrwt>
<pdfrwt beam="1">  1        1 0.14545511E+00 0.85519697E+03</pdfrwt>
<pdfrwt beam="2">  1       -1 0.12793059E+00 0.85519697E+03</pdfrwt>
<totfact> 0.89911242E+00</totfact>
</mgrwt>
</event>
<event>
12    1  0.1338445E-007  0.4278474E+03  0.7818608E-02  0.1034542E+00
         -2   -1    0    0    0  501 -0.00000000000E+00  0.00000000000E+00  0.13798888761E+03  0.13798888761E+03  0.00000000000E+00 0. -1.
          2   -1    0    0  501    0  0.00000000000E+00 -0.00000000000E+00 -0.26133351837E+04  0.26133351837E+04  0.00000000000E+00 0.  1.
         23    2    1    2    0    0 -0.35585346902E+03 -0.91235204360E+02 -0.36063532838E+03  0.52264099988E+03  0.90223171920E+02 0.  0.
    5000000    2    1    2    0    0  0.35585346902E+03  0.91235204360E+02 -0.21147109678E+04  0.22286830715E+04  0.60005849880E+03 0.  0.
         23    2    4    4    0    0  0.27301161409E+03  0.19096290835E+03 -0.51492273265E+03  0.62097085482E+03  0.97248178060E+02 0.  0.
         23    2    4    4    0    0  0.82841854931E+02 -0.99727703992E+02 -0.15997882351E+04  0.16077122166E+04  0.92778157587E+02 0.  0.
          2    1    3    3  502    0 -0.23175047647E+03 -0.50353829283E+02 -0.17112084315E+03  0.29244851586E+03  0.00000000000E+00 0. -1.
         -2    1    3    3    0  502 -0.12410299255E+03 -0.40881375077E+02 -0.18951448523E+03  0.23019248403E+03  0.00000000000E+00 0.  1.
         13    1    5    5    0    0  0.95831974384E+02  0.40382662560E+02 -0.94425798504E+02  0.14046621719E+03  0.00000000000E+00 0.  1.
        -13    1    5    5    0    0  0.17717963971E+03  0.15058024579E+03 -0.42049693415E+03  0.48050463762E+03  0.00000000000E+00 0. -1.
          3    1    6    6  503    0  0.95618114278E+02 -0.68514457334E+02 -0.14142429007E+04  0.14191265049E+04  0.00000000000E+00 0. -1.
         -3    1    6    6    0  503 -0.12776259347E+02 -0.31213246658E+02 -0.18554533441E+03  0.18858571179E+03  0.00000000000E+00 0.  1.
<mgrwt>
<rscale>  0 0.42784738E+03</rscale>
<asrwt>0</asrwt>
<pdfrwt beam="1">  1        2 0.40205157E+00 0.42784738E+03</pdfrwt>
<pdfrwt beam="2">  1       -2 0.21229060E-01 0.42784738E+03</pdfrwt>
<totfact> 0.63332566E+01</totfact>
</mgrwt>
</event>
<event>
12    1  0.1338445E-007  0.9070170E+03  0.7818608E-02  0.9416852E-01
         -2   -1    0    0    0  501 -0.00000000000E+00  0.00000000000E+00  0.76524424569E+03  0.76524424569E+03  0.00000000000E+00 0.  1.
          2   -1    0    0  501    0  0.00000000000E+00 -0.00000000000E+00 -0.12720614388E+04  0.12720614388E+04  0.00000000000E+00 0. -1.
         23    2    1    2    0    0  0.73158553893E+03  0.42530390418E+03  0.62886793140E+02  0.85372064620E+03  0.93719695427E+02 0.  0.
    5000000    2    1    2    0    0 -0.73158553893E+03 -0.42530390418E+03 -0.56970398622E+03  0.11835850383E+04  0.60017505712E+03 0.  0.
         23    2    4    4    0    0 -0.62340085529E+03 -0.13186811293E+03 -0.56872690439E+03  0.85892252188E+03  0.90993303237E+02 0.  0.
         23    2    4    4    0    0 -0.10818468364E+03 -0.29343579125E+03 -0.97708182503E+00  0.32466251638E+03  0.87156786807E+02 0.  0.
          4    1    3    3  502    0  0.40017521312E+03  0.26042040472E+03  0.75296671817E+02  0.48335140134E+03  0.00000000000E+00 0. -1.
         -4    1    3    3    0  502  0.33141032582E+03  0.16488349946E+03 -0.12409878677E+02  0.37036924486E+03  0.00000000000E+00 0.  1.
         13    1    5    5    0    0 -0.31591393978E+03 -0.20430535648E+02 -0.27570779618E+03  0.41980211172E+03  0.00000000000E+00 0.  1.
        -13    1    5    5    0    0 -0.30748691551E+03 -0.11143757728E+03 -0.29301910821E+03  0.43912041016E+03  0.00000000000E+00 0. -1.
          3    1    6    6  503    0 -0.51596809404E+02 -0.46514061642E+02  0.14126549007E+02  0.70889689363E+02  0.00000000000E+00 0. -1.
         -3    1    6    6    0  503 -0.56587874238E+02 -0.24692172961E+03 -0.15103630832E+02  0.25377282701E+03  0.00000000000E+00 0.  1.
<mgrwt>
<rscale>  0 0.90701697E+03</rscale>
<asrwt>0</asrwt>
<pdfrwt beam="1">  1        2 0.19570176E+00 0.90701697E+03</pdfrwt>
<pdfrwt beam="2">  1       -2 0.11772989E+00 0.90701697E+03</pdfrwt>
<totfact> 0.95792534E+00</totfact>
</mgrwt>
</event>
<event>
12    1  0.1338445E-007  0.8343621E+03  0.7818608E-02  0.9511569E-01
         -1   -1    0    0    0  501 -0.00000000000E+00  0.00000000000E+00  0.42661941986E+03  0.42661941986E+03  0.00000000000E+00 0.  1.
          1   -1    0    0  501    0  0.00000000000E+00 -0.00000000000E+00 -0.16854578517E+04  0.16854578517E+04  0.00000000000E+00 0. -1.
         23    2    1    2    0    0  0.73348109661E+03  0.11570793721E+02 -0.43703248803E+03  0.85773941331E+03  0.81185609552E+02 0.  0.
    5000000    2    1    2    0    0 -0.73348109661E+03 -0.11570793721E+02 -0.82180594383E+03  0.12543378583E+04  0.59989169940E+03 0.  0.
         23    2    4    4    0    0 -0.49059747659E+02  0.19860795006E+03 -0.16855474878E+03  0.28068437633E+03  0.92309474692E+02 0.  0.
         23    2    4    4    0    0 -0.68442134896E+03 -0.21017874378E+03 -0.65325119505E+03  0.97365348193E+03  0.93039194958E+02 0.  0.
          2    1    3    3  502    0  0.34807234439E+03 -0.75574161530E+00 -0.16091762645E+03  0.38347022124E+03  0.00000000000E+00 0. -1.
         -2    1    3    3    0  502  0.38540875222E+03  0.12326535336E+02 -0.27611486158E+03  0.47426919207E+03  0.00000000000E+00 0.  1.
         11    1    5    5    0    0 -0.52219780918E+02  0.56892357862E+02 -0.31158678213E+02  0.83273700111E+02  0.00000000000E+00 0. -1.
        -11    1    5    5    0    0  0.31600332591E+01  0.14171559219E+03 -0.13739607056E+03  0.19741067622E+03  0.00000000000E+00 0.  1.
          2    1    6    6  503    0 -0.42698919104E+03 -0.13728572981E+03 -0.34761202155E+03  0.56745154718E+03  0.00000000000E+00 0. -1.
         -2    1    6    6    0  503 -0.25743215792E+03 -0.72893013971E+02 -0.30563917350E+03  0.40620193475E+03  0.00000000000E+00 0.  1.
<mgrwt>
<rscale>  0 0.83436212E+03</rscale>
<asrwt>0</asrwt>
<pdfrwt beam="1">  1        1 0.25930121E+00 0.83436212E+03</pdfrwt>
<pdfrwt beam="2">  1       -1 0.65633757E-01 0.83436212E+03</pdfrwt>
<totfact> 0.11794302E+01</totfact>
</mgrwt>
</event>
<event>
12    1  0.1338445E-007  0.8023496E+03  0.7818608E-02  0.9556622E-01
         -2   -1    0    0    0  501 -0.00000000000E+00  0.00000000000E+00  0.26300608504E+03  0.26300608504E+03  0.00000000000E+00 0.  1.
          2   -1    0    0  501    0  0.00000000000E+00 -0.00000000000E+00 -0.28877392298E+04  0.28877392298E+04  0.00000000000E+00 0. -1.
         23    2    1    2    0    0 -0.67931782137E+03  0.29150733158E+03 -0.80339348115E+03  0.10955707886E+04  0.91569867207E+02 0.  0.
    5000000    2    1    2    0    0  0.67931782137E+03 -0.29150733158E+03 -0.18213396636E+04  0.20551745262E+04  0.60001244661E+03 0.  0.
         23    2    4    4    0    0  0.66560101920E+03 -0.10084455059E+03 -0.16443367754E+04  0.17790192351E+04  0.88722419944E+02 0.  0.
         23    2    4    4    0    0  0.13716802165E+02 -0.19066278099E+03 -0.17700288826E+03  0.27615529114E+03  0.91603906319E+02 0.  0.
          1    1    3    3  502    0 -0.36294632280E+03  0.14554821691E+03 -0.35871400245E+03  0.53065059336E+03  0.00000000000E+00 0. -1.
         -1    1    3    3    0  502 -0.31637149857E+03  0.14595911466E+03 -0.44467947870E+03  0.56492019528E+03  0.00000000000E+00 0.  1.
         11    1    5    5    0    0  0.58827834938E+03 -0.81308595265E+02 -0.15128300737E+04  0.16252191655E+04  0.00000000000E+00 0. -1.
        -11    1    5    5    0    0  0.77322669818E+02 -0.19535955326E+02 -0.13150670166E+03  0.15380006957E+03  0.00000000000E+00 0.  1.
          3    1    6    6  503    0 -0.13800395371E+01 -0.69783352584E+02 -0.11631623843E+02  0.70759561052E+02  0.00000000000E+00 0. -1.
         -3    1    6    6    0  503  0.15096841702E+02 -0.12087942840E+03 -0.16537126442E+03  0.20539573008E+03  0.00000000000E+00 0.  1.
<mgrwt>
<rscale>  0 0.80234958E+03</rscale>
<asrwt>0</asrwt>
<pdfrwt beam="1">  1        2 0.44426756E+00 0.80234958E+03</pdfrwt>
<pdfrwt beam="2">  1       -2 0.40462475E-01 0.80234958E+03</pdfrwt>
<totfact> 0.12406059E+01</totfact>
</mgrwt>
</event>
<event>
12    1  0.1338445E-007  0.1206150E+04  0.7818608E-02  0.9107490E-01
          2   -1    0    0  501    0  0.00000000000E+00  0.00000000000E+00  0.18360145695E+04  0.18360145695E+04  0.00000000000E+00 0. -1.
         -2   -1    0    0    0  501 -0.00000000000E+00 -0.00000000000E+00 -0.83730015253E+03  0.83730015253E+03  0.00000000000E+00 0.  1.
         23    2    1    2    0    0  0.11385076698E+04 -0.20740559366E+03  0.61925705955E+03  0.13156528071E+04  0.90808637059E+02 0.  0.
    5000000    2    1    2    0    0 -0.11385076698E+04  0.20740559366E+03  0.37945735742E+03  0.13576619149E+04  0.60003432799E+03 0.  0.
         23    2    4    4    0    0 -0.37961737694E+03  0.29620070939E+03  0.32155542387E+03  0.58602110319E+03  0.90435776387E+02 0.  0.
         23    2    4    4    0    0 -0.75889029284E+03 -0.88795115734E+02  0.57901933545E+02  0.77164081175E+03  0.90982741777E+02 0.  0.
          3    1    3    3  502    0  0.37490352590E+03 -0.10957733051E+03  0.19283618919E+03  0.43559802681E+03  0.00000000000E+00 0. -1.
         -3    1    3    3    0  502  0.76360414387E+03 -0.97828263149E+02  0.42642087036E+03  0.88005478028E+03  0.00000000000E+00 0.  1.
         13    1    5    5    0    0 -0.71489265974E+02  0.72106939432E+02  0.11207101478E+03  0.15122843059E+03  0.00000000000E+00 0.  1.
        -13    1    5    5    0    0 -0.30812811096E+03  0.22409376996E+03  0.20948440909E+03  0.43479267261E+03  0.00000000000E+00 0. -1.
          3    1    6    6  503    0 -0.35267159073E+03  0.37876724630E+01  0.19268532157E+02  0.35321788418E+03  0.00000000000E+00 0. -1.
         -3    1    6    6    0  503 -0.40621870211E+03 -0.92582788197E+02  0.38633401388E+02  0.41842292757E+03  0.00000000000E+00 0.  1.
<mgrwt>
<rscale>  0 0.12061503E+04</rscale>
<asrwt>0</asrwt>
<pdfrwt beam="1">  1        2 0.28246378E+00 0.12061503E+04</pdfrwt>
<pdfrwt beam="2">  1       -2 0.12881541E+00 0.12061503E+04</pdfrwt>
<totfact> 0.35672648E+00</totfact>
</mgrwt>
</event>
<event>
12    1  0.1338445E-007  0.7495199E+03  0.7818608E-02  0.9636104E-01
          2   -1    0    0  501    0  0.00000000000E+00  0.00000000000E+00  0.13969991197E+04  0.13969991197E+04  0.00000000000E+00 0.  1.
         -2   -1    0    0    0  501 -0.00000000000E+00 -0.00000000000E+00 -0.42487897624E+03  0.42487897624E+03  0.00000000000E+00 0. -1.
         23    2    1    2    0    0 -0.44025902504E+03 -0.45298360895E+03  0.23292555468E+03  0.67934193134E+03  0.90713761576E+02 0.  0.
    5000000    2    1    2    0    0  0.44025902504E+03  0.45298360895E+03  0.73919458878E+03  0.11425361646E+04  0.59996507251E+03 0.  0.
         23    2    4    4    0    0  0.45969775520E+03  0.68296217597E+02  0.43354935266E+03  0.64227197305E+03  0.92530247485E+02 0.  0.
         23    2    4    4    0    0 -0.19438730156E+02  0.38468739136E+03  0.30564523613E+03  0.50026419156E+03  0.92103190442E+02 0.  0.
          4    1    3    3  502    0 -0.22219534432E+03 -0.23365385575E+03  0.70709933098E+02  0.33009815204E+03  0.00000000000E+00 0. -1.
         -4    1    3    3    0  502 -0.21806368073E+03 -0.21932975321E+03  0.16221562158E+03  0.34924377930E+03  0.00000000000E+00 0.  1.
         13    1    5    5    0    0  0.18168636819E+03 -0.13235051564E+02  0.13923679033E+03  0.22928581892E+03  0.00000000000E+00 0. -1.
        -13    1    5    5    0    0  0.27801138701E+03  0.81531269161E+02  0.29431256233E+03  0.41298615412E+03  0.00000000000E+00 0.  1.
          1    1    6    6  503    0 -0.36902195387E+02  0.61145554210E+02  0.66153957305E+02  0.97349354858E+02  0.00000000000E+00 0. -1.
         -1    1    6    6    0  503  0.17463465231E+02  0.32354183715E+03  0.23949127882E+03  0.40291483670E+03  0.00000000000E+00 0.  1.
<mgrwt>
<rscale>  0 0.74951988E+03</rscale>
<asrwt>0</asrwt>
<pdfrwt beam="1">  1        2 0.21492294E+00 0.74951988E+03</pdfrwt>
<pdfrwt beam="2">  1       -2 0.65365997E-01 0.74951988E+03</pdfrwt>
<totfact> 0.32010047E+01</totfact>
</mgrwt>
</event>
<event>
12    1  0.1338445E-007  0.2689418E+04  0.7818608E-02  0.8338447E-01
         -1   -1    0    0    0  501 -0.00000000000E+00  0.00000000000E+00  0.31223661714E+04  0.31223661714E+04  0.00000000000E+00 0.  1.
          1   -1    0    0  501    0  0.00000000000E+00 -0.00000000000E+00 -0.23863294988E+04  0.23863294988E+04  0.00000000000E+00 0. -1.
         23    2    1    2    0    0 -0.76461421741E+03 -0.25694391770E+04  0.65104866336E+03  0.27602426967E+04  0.91775794471E+02 0.  0.
    5000000    2    1    2    0    0  0.76461421741E+03  0.25694391770E+04  0.84988009167E+02  0.27484529735E+04  0.60009849180E+03 0.  0.
         23    2    4    4    0    0  0.53598949403E+03  0.13874391232E+04 -0.21154101954E+03  0.15051232643E+04  0.91511636097E+02 0.  0.
         23    2    4    4    0    0  0.22862472338E+03  0.11820000539E+04  0.29652902871E+03  0.12433297092E+04  0.92444088211E+02 0.  0.
          1    1    3    3  502    0 -0.43273207603E+03 -0.13133903885E+04  0.35848977098E+03  0.14285539115E+04  0.00000000000E+00 0. -1.
         -1    1    3    3    0  502 -0.33188214138E+03 -0.12560487885E+04  0.29255889238E+03  0.13316887851E+04  0.00000000000E+00 0.  1.
         11    1    5    5    0    0 -0.34931052574E+01  0.90847871338E+01  0.94795726365E+00  0.97792517392E+01  0.00000000000E+00 0. -1.
        -11    1    5    5    0    0  0.53948259929E+03  0.13783543360E+04 -0.21248897681E+03  0.14953440125E+04  0.00000000000E+00 0.  1.
          3    1    6    6  503    0  0.27221800412E+02  0.47934746044E+02  0.21263022790E+02  0.59083690085E+02  0.00000000000E+00 0. -1.
         -3    1    6    6    0  503  0.20140292297E+03  0.11340653078E+04  0.27526600592E+03  0.11842460191E+04  0.00000000000E+00 0.  1.
<mgrwt>
<rscale>  0 0.26894176E+04</rscale>
<asrwt>0</asrwt>
<pdfrwt beam="1">  1        1 0.36712761E+00 0.26894176E+04</pdfrwt>
<pdfrwt beam="2">  1       -1 0.48036403E+00 0.26894176E+04</pdfrwt>
<totfact> 0.26709060E-03</totfact>
</mgrwt>
</event>
<event>
12    1  0.1338445E-007  0.5270067E+03  0.7818608E-02  0.1006961E+00
         -1   -1    0    0    0  501 -0.00000000000E+00  0.00000000000E+00  0.98834337002E+03  0.98834337002E+03  0.00000000000E+00 0.  1.
          1   -1    0    0  501    0  0.00000000000E+00 -0.00000000000E+00 -0.36267052940E+03  0.36267052940E+03  0.00000000000E+00 0. -1.
         23    2    1    2    0    0 -0.41980343908E+03 -0.13805955022E+03  0.28669110723E+03  0.53235246666E+03  0.76889472121E+02 0.  0.
    5000000    2    1    2    0    0  0.41980343908E+03  0.13805955022E+03  0.33898173339E+03  0.81866143275E+03  0.60000213252E+03 0.  0.
         23    2    4    4    0    0  0.43048845557E+03 -0.19604974734E+02  0.42909998143E+03  0.61479208092E+03  0.90209995518E+02 0.  0.
         23    2    4    4    0    0 -0.10685016489E+02  0.15766452496E+03 -0.90118248032E+02  0.20386935183E+03  0.92027941299E+02 0.  0.
          4    1    3    3  502    0 -0.48675581862E+02 -0.44024792730E+02  0.45413248741E+02  0.79811388948E+02  0.00000000000E+00 0. -1.
         -4    1    3    3    0  502 -0.37112785722E+03 -0.94034757492E+02  0.24127785849E+03  0.45254107772E+03  0.00000000000E+00 0.  1.
         13    1    5    5    0    0  0.62498605762E+02  0.12434455830E+02  0.28259943216E+02  0.69708792878E+02  0.00000000000E+00 0. -1.
        -13    1    5    5    0    0  0.36798984981E+03 -0.32039430564E+02  0.40084003821E+03  0.54508328805E+03  0.00000000000E+00 0.  1.
          4    1    6    6  503    0 -0.76451488243E+01 -0.53796690547E+01  0.90496509474E+01  0.13010969293E+02  0.00000000000E+00 0. -1.
         -4    1    6    6    0  503 -0.30398676645E+01  0.16304419401E+03 -0.99167898979E+02  0.19085838253E+03  0.00000000000E+00 0.  1.
<mgrwt>
<rscale>  0 0.52700671E+03</rscale>
<asrwt>0</asrwt>
<pdfrwt beam="1">  1        1 0.55795466E-01 0.52700671E+03</pdfrwt>
<pdfrwt beam="2">  1       -1 0.15205283E+00 0.52700671E+03</pdfrwt>
<totfact> 0.24174164E+01</totfact>
</mgrwt>
</event>
<event>
12    1  0.1338445E-007  0.3175298E+03  0.7818608E-02  0.1076792E+00
          2   -1    0    0  501    0  0.00000000000E+00  0.00000000000E+00  0.11635637706E+04  0.11635637706E+04  0.00000000000E+00 0. -1.
         -2   -1    0    0    0  501 -0.00000000000E+00 -0.00000000000E+00 -0.40059467072E+03  0.40059467072E+03  0.00000000000E+00 0.  1.
         23    2    1    2    0    0 -0.10743283453E+03 -0.15449784228E+03 -0.27805465477E+03  0.34797635151E+03  0.91442621201E+02 0.  0.
    5000000    2    1    2    0    0  0.10743283453E+03  0.15449784228E+03  0.10410237546E+04  0.12161820898E+04  0.59996418279E+03 0.  0.
         23    2    4    4    0    0 -0.12039373073E+03 -0.35181012102E+02  0.82383458487E+03  0.83819460627E+03  0.90191023620E+02 0.  0.
         23    2    4    4    0    0  0.22782656526E+03  0.18967885438E+03  0.21718916972E+03  0.37798748349E+03  0.88432972318E+02 0.  0.
          2    1    3    3  502    0 -0.17409704574E+02 -0.67409516500E+02 -0.16563000848E+03  0.17966758315E+03  0.00000000000E+00 0. -1.
         -2    1    3    3    0  502 -0.90023129954E+02 -0.87088325777E+02 -0.11242464629E+03  0.16830876836E+03  0.00000000000E+00 0.  1.
         13    1    5    5    0    0 -0.44669379509E+02 -0.33152830047E+02  0.58490173735E+03  0.58754106746E+03  0.00000000000E+00 0.  1.
        -13    1    5    5    0    0 -0.75724351224E+02 -0.20281820542E+01  0.23893284752E+03  0.25065353881E+03  0.00000000000E+00 0. -1.
          2    1    6    6  503    0  0.61025398735E+02  0.10571110350E+03  0.96992977115E+02  0.15590565835E+03  0.00000000000E+00 0. -1.
         -2    1    6    6    0  503  0.16680116653E+03  0.83967750874E+02  0.12019619261E+03  0.22208182514E+03  0.00000000000E+00 0.  1.
<mgrwt>
<rscale>  0 0.31752982E+03</rscale>
<asrwt>0</asrwt>
<pdfrwt beam="1">  1        2 0.17900981E+00 0.31752982E+03</pdfrwt>
<pdfrwt beam="2">  1       -2 0.61629950E-01 0.31752982E+03</pdfrwt>
<totfact> 0.52653813E+01</totfact>
</mgrwt>
</event>
<event>
12    1  0.1338445E-007  0.4505552E+03  0.7818608E-02  0.1027557E+00
          2   -1    0    0  501    0  0.00000000000E+00  0.00000000000E+00  0.10251281400E+04  0.10251281400E+04  0.00000000000E+00 0. -1.
         -2   -1    0    0    0  501 -0.00000000000E+00 -0.00000000000E+00 -0.27085709722E+03  0.27085709722E+03  0.00000000000E+00 0.  1.
         23    2    1    2    0    0 -0.31687922153E+03 -0.12742601723E+03  0.16991083038E+03  0.39159088049E+03  0.88452792457E+02 0.  0.
    5000000    2    1    2    0    0  0.31687922153E+03  0.12742601723E+03  0.58436021243E+03  0.90439435676E+03  0.59983536389E+03 0.  0.
         23    2    4    4    0    0 -0.73696998965E+02  0.11798949640E+03  0.45246989748E+03  0.48211872167E+03  0.91414904397E+02 0.  0.
         23    2    4    4    0    0  0.39057622050E+03  0.94365208348E+01  0.13189031495E+03  0.42227563509E+03  0.91010026201E+02 0.  0.
          3    1    3    3  502    0 -0.10918862842E+03 -0.38339353211E+02  0.10551072551E+03  0.15660324319E+03  0.00000000000E+00 0. -1.
         -3    1    3    3    0  502 -0.20769059311E+03 -0.89086664023E+02  0.64400104869E+02  0.23498763729E+03  0.00000000000E+00 0.  1.
         13    1    5    5    0    0 -0.91870261007E+02  0.88196942778E+02  0.30391065626E+03  0.32951560291E+03  0.00000000000E+00 0.  1.
        -13    1    5    5    0    0  0.18173262042E+02  0.29792553621E+02  0.14855924122E+03  0.15260311877E+03  0.00000000000E+00 0. -1.
          4    1    6    6  503    0  0.19284565434E+03 -0.31000197697E+02  0.94647591476E+02  0.21704521471E+03  0.00000000000E+00 0. -1.
         -4    1    6    6    0  503  0.19773056616E+03  0.40436718532E+02  0.37242723473E+02  0.20523042038E+03  0.00000000000E+00 0.  1.
<mgrwt>
<rscale>  0 0.45055517E+03</rscale>
<asrwt>0</asrwt>
<pdfrwt beam="1">  1        2 0.15771202E+00 0.45055517E+03</pdfrwt>
<pdfrwt beam="2">  1       -2 0.41670323E-01 0.45055517E+03</pdfrwt>
<totfact> 0.13760456E+02</totfact>
</mgrwt>
</event>
<event>
12    1  0.1338445E-007  0.8653817E+03  0.7818608E-02  0.9469922E-01
         -1   -1    0    0    0  501 -0.00000000000E+00  0.00000000000E+00  0.12573582834E+04  0.12573582834E+04  0.00000000000E+00 0.  1.
          1   -1    0    0  501    0  0.00000000000E+00 -0.00000000000E+00 -0.60379265112E+03  0.60379265112E+03  0.00000000000E+00 0. -1.
         23    2    1    2    0    0  0.66946163255E+03 -0.36287341720E+03  0.21132778308E+03  0.79562173337E+03  0.92187397974E+02 0.  0.
    5000000    2    1    2    0    0 -0.66946163255E+03  0.36287341720E+03  0.44223784919E+03  0.10655292011E+04  0.59993513721E+03 0.  0.
         23    2    4    4    0    0 -0.27599762532E+02 -0.12301329114E+03  0.98953182348E+02  0.18564836511E+03  0.93699340887E+02 0.  0.
         23    2    4    4    0    0 -0.64186187002E+03  0.48588670834E+03  0.34328466684E+03  0.87988083603E+03  0.90958065089E+02 0.  0.
          3    1    3    3  502    0  0.16194047526E+03 -0.12722115301E+03  0.34661863378E+02  0.20883338831E+03  0.00000000000E+00 0. -1.
         -3    1    3    3    0  502  0.50752115729E+03 -0.23565226419E+03  0.17666591970E+03  0.58678834506E+03  0.00000000000E+00 0.  1.
         11    1    5    5    0    0  0.97815262893E+01 -0.11845415016E+03  0.68241574381E+02  0.13705464757E+03  0.00000000000E+00 0. -1.
        -11    1    5    5    0    0 -0.37381288822E+02 -0.45591409786E+01  0.30711607967E+02  0.48593717540E+02  0.00000000000E+00 0.  1.
          1    1    6    6  503    0 -0.14688865953E+03  0.15392137909E+03  0.11339096934E+03  0.24109247430E+03  0.00000000000E+00 0. -1.
         -1    1    6    6    0  503 -0.49497321049E+03  0.33196532925E+03  0.22989369750E+03  0.63878836173E+03  0.00000000000E+00 0.  1.
<mgrwt>
<rscale>  0 0.86538174E+03</rscale>
<asrwt>0</asrwt>
<pdfrwt beam="1">  1        1 0.92891177E-01 0.86538174E+03</pdfrwt>
<pdfrwt beam="2">  1       -1 0.19343974E+00 0.86538174E+03</pdfrwt>
<totfact> 0.57820509E+00</totfact>
</mgrwt>
</event>
<event>
12    1  0.1338445E-007  0.1308202E+04  0.7818608E-02  0.9023086E-01
         -1   -1    0    0    0  501 -0.00000000000E+00  0.00000000000E+00  0.98596425904E+03  0.98596425904E+03  0.00000000000E+00 0.  1.
          1   -1    0    0  501    0  0.00000000000E+00 -0.00000000000E+00 -0.21534504582E+04  0.21534504582E+04  0.00000000000E+00 0. -1.
         23    2    1    2    0    0  0.10548178377E+04  0.65855476236E+03  0.11858940158E+03  0.12525485276E+04  0.92083233813E+02 0.  0.
    5000000    2    1    2    0    0 -0.10548178377E+04 -0.65855476236E+03 -0.12860756008E+04  0.18868661897E+04  0.59994876542E+03 0.  0.
         23    2    4    4    0    0 -0.10463133687E+04 -0.71678594011E+03 -0.11896533800E+04  0.17415248069E+04  0.95287664217E+02 0.  0.
         23    2    4    4    0    0 -0.85044690118E+01  0.58231177752E+02 -0.96422220721E+02  0.14534138278E+03  0.91453140162E+02 0.  0.
          2    1    3    3  502    0  0.46127927052E+03  0.32383209035E+03  0.19245321318E+02  0.56392922476E+03  0.00000000000E+00 0. -1.
         -2    1    3    3    0  502  0.59353856719E+03  0.33472267201E+03  0.99344080266E+02  0.68861930280E+03  0.00000000000E+00 0.  1.
         11    1    5    5    0    0 -0.22232584290E+03 -0.11932753389E+03 -0.20095912549E+03  0.32257155933E+03  0.00000000000E+00 0.  1.
        -11    1    5    5    0    0 -0.82398752579E+03 -0.59745840622E+03 -0.98869425454E+03  0.14189532476E+04  0.00000000000E+00 0. -1.
          3    1    6    6  503    0 -0.34074232623E+02  0.66222852084E+02 -0.91709639529E+02  0.11814049877E+03  0.00000000000E+00 0.  1.
         -3    1    6    6    0  503  0.25569763611E+02 -0.79916743317E+01 -0.47125811920E+01  0.27200884016E+02  0.00000000000E+00 0. -1.
<mgrwt>
<rscale>  0 0.13082017E+04</rscale>
<asrwt>0</asrwt>
<pdfrwt beam="1">  1        1 0.33130007E+00 0.13082017E+04</pdfrwt>
<pdfrwt beam="2">  1       -1 0.15168681E+00 0.13082017E+04</pdfrwt>
<totfact> 0.76977278E-01</totfact>
</mgrwt>
</event>
<event>
12    1  0.1338445E-007  0.3726601E+03  0.7818608E-02  0.1053680E+00
          2   -1    0    0  501    0  0.00000000000E+00  0.00000000000E+00  0.33072748635E+04  0.33072748635E+04  0.00000000000E+00 0. -1.
         -2   -1    0    0    0  501 -0.00000000000E+00 -0.00000000000E+00 -0.90269885246E+02  0.90269885246E+02  0.00000000000E+00 0.  1.
         23    2    1    2    0    0  0.35870787797E+03 -0.50185954558E+02  0.83556747261E+03  0.91511867447E+03  0.89884455474E+02 0.  0.
    5000000    2    1    2    0    0 -0.35870787797E+03  0.50185954558E+02  0.23814375057E+04  0.24824260743E+04  0.60000387432E+03 0.  0.
         23    2    4    4    0    0 -0.24560241198E+03  0.74839873322E+02  0.33915106124E+03  0.43483531887E+03  0.90203995390E+02 0.  0.
         23    2    4    4    0    0 -0.11310546599E+03 -0.24653918764E+02  0.20422864444E+04  0.20475907554E+04  0.91067658880E+02 0.  0.
          4    1    3    3  502    0  0.23563834741E+03 -0.65374435564E+00  0.46062742723E+03  0.51740070049E+03  0.00000000000E+00 0. -1.
         -4    1    3    3    0  502  0.12306953055E+03 -0.49532210202E+02  0.37494004537E+03  0.39771797397E+03  0.00000000000E+00 0.  1.
         11    1    5    5    0    0 -0.12407340830E+03  0.13757936529E+02  0.10098310902E+03  0.16056487714E+03  0.00000000000E+00 0.  1.
        -11    1    5    5    0    0 -0.12152900368E+03  0.61081936793E+02  0.23816795222E+03  0.27427044172E+03  0.00000000000E+00 0. -1.
          2    1    6    6  503    0 -0.10982188197E+03 -0.25569454445E+02  0.11974268840E+04  0.12027243181E+04  0.00000000000E+00 0. -1.
         -2    1    6    6    0  503 -0.32835840191E+01  0.91553568143E+00  0.84485956045E+03  0.84486643738E+03  0.00000000000E+00 0.  1.
<mgrwt>
<rscale>  0 0.37266014E+03</rscale>
<asrwt>0</asrwt>
<pdfrwt beam="1">  1        2 0.50881142E+00 0.37266014E+03</pdfrwt>
<pdfrwt beam="2">  1       -2 0.13887677E-01 0.37266014E+03</pdfrwt>
<totfact> 0.50867033E+01</totfact>
</mgrwt>
</event>
<event>
12    1  0.1338445E-007  0.7783903E+03  0.7818608E-02  0.9591834E-01
         -1   -1    0    0    0  501 -0.00000000000E+00  0.00000000000E+00  0.29179389020E+03  0.29179389020E+03  0.00000000000E+00 0.  1.
          1   -1    0    0  501    0  0.00000000000E+00 -0.00000000000E+00 -0.41021180412E+04  0.41021180412E+04  0.00000000000E+00 0. -1.
         23    2    1    2    0    0  0.63581078571E+03 -0.28588117922E+03 -0.29819744010E+03  0.76335339160E+03  0.88336194913E+02 0.  0.
    5000000    2    1    2    0    0 -0.63581078571E+03  0.28588117922E+03 -0.35121267109E+04  0.36305585398E+04  0.59994822577E+03 0.  0.
         23    2    4    4    0    0 -0.56227599928E+03  0.10416400021E+02 -0.28137395386E+04  0.28708323502E+04  0.91024125675E+02 0.  0.
         23    2    4    4    0    0 -0.73534786429E+02  0.27546477920E+03 -0.69838717236E+03  0.75972618960E+03  0.90283061783E+02 0.  0.
          4    1    3    3  502    0  0.27432919171E+03 -0.16930080667E+03 -0.12230309838E+03  0.34478589942E+03  0.00000000000E+00 0. -1.
         -4    1    3    3    0  502  0.36148159400E+03 -0.11658037254E+03 -0.17589434172E+03  0.41856749218E+03  0.00000000000E+00 0.  1.
         13    1    5    5    0    0 -0.51931859478E+03  0.64431685264E+01 -0.24432688280E+04  0.24978582592E+04  0.00000000000E+00 0. -1.
        -13    1    5    5    0    0 -0.42957404501E+02  0.39732314942E+01 -0.37047071056E+03  0.37297409100E+03  0.00000000000E+00 0.  1.
          1    1    6    6  503    0  0.73088244144E+01  0.83336055049E+02 -0.28094140872E+03  0.29313203872E+03  0.00000000000E+00 0. -1.
         -1    1    6    6    0  503 -0.80843610843E+02  0.19212872415E+03 -0.41744576364E+03  0.46659415088E+03  0.00000000000E+00 0.  1.
<mgrwt>
<rscale>  0 0.77839030E+03</rscale>
<asrwt>0</asrwt>
<pdfrwt beam="1">  1        1 0.63109504E+00 0.77839030E+03</pdfrwt>
<pdfrwt beam="2">  1       -1 0.44891371E-01 0.77839030E+03</pdfrwt>
<totfact> 0.42400197E-01</totfact>
</mgrwt>
</event>
<event>
12    1  0.1338445E-007  0.9201963E+03  0.7818608E-02  0.9400681E-01
         -2   -1    0    0    0  501 -0.00000000000E+00  0.00000000000E+00  0.78351835786E+03  0.78351835786E+03  0.00000000000E+00 0.  1.
          2   -1    0    0  501    0  0.00000000000E+00 -0.00000000000E+00 -0.11673561889E+04  0.11673561889E+04  0.00000000000E+00 0. -1.
         23    2    1    2    0    0  0.84773500680E+03 -0.96515126402E+02 -0.66432649627E+02  0.86059066508E+03  0.90736897124E+02 0.  0.
    5000000    2    1    2    0    0 -0.84773500680E+03  0.96515126402E+02 -0.31740518141E+03  0.10902838817E+04  0.60000256837E+03 0.  0.
         23    2    4    4    0    0 -0.49202336434E+03  0.28350243453E+03 -0.35583512668E+03  0.67605452161E+03  0.89277418089E+02 0.  0.
         23    2    4    4    0    0 -0.35571164247E+03 -0.18698730813E+03  0.38429945271E+02  0.41422936005E+03  0.92812046906E+02 0.  0.
          1    1    3    3  502    0  0.35602960281E+03 -0.85443191960E+02 -0.33121160788E+02  0.36763382382E+03  0.00000000000E+00 0. -1.
         -1    1    3    3    0  502  0.49170540400E+03 -0.11071934443E+02 -0.33311488839E+02  0.49295684125E+03  0.00000000000E+00 0.  1.
         11    1    5    5    0    0 -0.42821159647E+03  0.26559842519E+03 -0.28440625060E+03  0.57861438817E+03  0.00000000000E+00 0. -1.
        -11    1    5    5    0    0 -0.63811767873E+02  0.17904009338E+02 -0.71428876072E+02  0.97440133448E+02  0.00000000000E+00 0.  1.
          4    1    6    6  503    0 -0.19883508091E+03 -0.15509399498E+03  0.29589315246E+02  0.25389971299E+03  0.00000000000E+00 0. -1.
         -4    1    6    6    0  503 -0.15687656155E+03 -0.31893313148E+02  0.88406300252E+01  0.16032964706E+03  0.00000000000E+00 0.  1.
<mgrwt>
<rscale>  0 0.92019633E+03</rscale>
<asrwt>0</asrwt>
<pdfrwt beam="1">  1        2 0.17959326E+00 0.92019633E+03</pdfrwt>
<pdfrwt beam="2">  1       -2 0.12054129E+00 0.92019633E+03</pdfrwt>
<totfact> 0.10407755E+01</totfact>
</mgrwt>
</event>
<event>
12    1  0.1338445E-007  0.4167695E+03  0.7818608E-02  0.1038123E+00
         -1   -1    0    0    0  501 -0.00000000000E+00  0.00000000000E+00  0.91363741728E+02  0.91363741728E+02  0.00000000000E+00 0. -1.
          1   -1    0    0  501    0  0.00000000000E+00 -0.00000000000E+00 -0.21310314791E+04  0.21310314791E+04  0.00000000000E+00 0.  1.
         23    2    1    2    0    0  0.10809710161E+03  0.18060090150E+03 -0.36216024861E+03  0.42842951901E+03  0.89945194951E+02 0.  0.
    5000000    2    1    2    0    0 -0.10809710161E+03 -0.18060090150E+03 -0.16775074888E+04  0.17939657019E+04  0.59998324595E+03 0.  0.
         23    2    4    4    0    0  0.23011393708E+03 -0.13483368023E+03 -0.74320888604E+03  0.79508567072E+03  0.93108700682E+02 0.  0.
         23    2    4    4    0    0 -0.33821103869E+03 -0.45767221268E+02 -0.93429860277E+03  0.99888003113E+03  0.91466344730E+02 0.  0.
          3    1    3    3  502    0  0.61255890224E+02  0.92068112551E+02 -0.10516448178E+03  0.15260533957E+03  0.00000000000E+00 0. -1.
         -3    1    3    3    0  502  0.46841211389E+02  0.88532788945E+02 -0.25699576682E+03  0.27582417945E+03  0.00000000000E+00 0.  1.
         11    1    5    5    0    0  0.17145971592E+03 -0.66782045532E+02 -0.39966865671E+03  0.43999239873E+03  0.00000000000E+00 0. -1.
        -11    1    5    5    0    0  0.58654221159E+02 -0.68051634696E+02 -0.34354022933E+03  0.35509327199E+03  0.00000000000E+00 0.  1.
          1    1    6    6  503    0 -0.18446746622E+03  0.11643276504E+02 -0.41585508488E+03  0.45508160104E+03  0.00000000000E+00 0. -1.
         -1    1    6    6    0  503 -0.15374357247E+03 -0.57410497772E+02 -0.51844351789E+03  0.54379843009E+03  0.00000000000E+00 0.  1.
<mgrwt>
<rscale>  0 0.41676948E+03</rscale>
<asrwt>0</asrwt>
<pdfrwt beam="1">  1        1 0.32785099E+00 0.41676948E+03</pdfrwt>
<pdfrwt beam="2">  1       -1 0.14055961E-01 0.41676948E+03</pdfrwt>
<totfact> 0.96012511E+01</totfact>
</mgrwt>
</event>
<event>
12    1  0.1338445E-007  0.2028596E+04  0.7818608E-02  0.8593367E-01
         -2   -1    0    0    0  501 -0.00000000000E+00  0.00000000000E+00  0.15585410178E+04  0.15585410178E+04  0.00000000000E+00 0.  1.
          2   -1    0    0  501    0  0.00000000000E+00 -0.00000000000E+00 -0.27037160740E+04  0.27037160740E+04  0.00000000000E+00 0. -1.
         23    2    1    2    0    0  0.99084094092E+03  0.17385008372E+04 -0.38900083167E+03  0.20405424498E+04  0.91328589998E+02 0.  0.
    5000000    2    1    2    0    0 -0.99084094092E+03 -0.17385008372E+04 -0.75617422451E+03  0.22217146420E+04  0.60005463208E+03 0.  0.
         23    2    4    4    0    0 -0.56230764406E+03 -0.54476251329E+03 -0.47231943716E+03  0.91884736918E+03  0.90767586080E+02 0.  0.
         23    2    4    4    0    0 -0.42853329686E+03 -0.11937383239E+04 -0.28385478735E+03  0.13028672728E+04  0.90761323052E+02 0.  0.
          3    1    3    3  502    0  0.17476916095E+03  0.30541499742E+03 -0.33229234756E+02  0.35344980168E+03  0.00000000000E+00 0. -1.
         -3    1    3    3    0  502  0.81607177997E+03  0.14330858398E+04 -0.35577159691E+03  0.16870926481E+04  0.00000000000E+00 0.  1.
         13    1    5    5    0    0 -0.27229985991E+03 -0.32450644367E+03 -0.23982906534E+03  0.48679526115E+03  0.00000000000E+00 0. -1.
        -13    1    5    5    0    0 -0.29000778415E+03 -0.22025606961E+03 -0.23249037182E+03  0.43205210804E+03  0.00000000000E+00 0.  1.
          1    1    6    6  503    0 -0.33383438862E+03 -0.94262266275E+03 -0.26115701351E+03  0.10335307780E+04  0.00000000000E+00 0. -1.
         -1    1    6    6    0  503 -0.94698908241E+02 -0.25111566117E+03 -0.22697773847E+02  0.26933649482E+03  0.00000000000E+00 0.  1.
<mgrwt>
<rscale>  0 0.20285959E+04</rscale>
<asrwt>0</asrwt>
<pdfrwt beam="1">  1        2 0.41595631E+00 0.20285959E+04</pdfrwt>
<pdfrwt beam="2">  1       -2 0.23977555E+00 0.20285959E+04</pdfrwt>
<totfact> 0.17428347E-01</totfact>
</mgrwt>
</event>
<event>
12    1  0.1338445E-007  0.4864739E+03  0.7818608E-02  0.1017371E+00
          2   -1    0    0  501    0  0.00000000000E+00  0.00000000000E+00  0.59523429331E+03  0.59523429331E+03  0.00000000000E+00 0. -1.
         -2   -1    0    0    0  501 -0.00000000000E+00 -0.00000000000E+00 -0.43149336358E+03  0.43149336358E+03  0.00000000000E+00 0.  1.
         23    2    1    2    0    0 -0.29644192135E+03 -0.89159058205E+02  0.13823157882E+03  0.35104917668E+03  0.91106556669E+02 0.  0.
    5000000    2    1    2    0    0  0.29644192135E+03  0.89159058205E+02  0.25509350921E+02  0.67567848021E+03  0.60005294037E+03 0.  0.
         23    2    4    4    0    0 -0.16382907531E+03 -0.20263807006E+02 -0.27137315372E+02  0.19043165111E+03  0.90979074898E+02 0.  0.
         23    2    4    4    0    0  0.46027099666E+03  0.10942286521E+03  0.52646666293E+02  0.48524682910E+03  0.94180995362E+02 0.  0.
          2    1    3    3  502    0 -0.77725956747E+02 -0.49539895685E+02  0.78031016577E+02  0.12076574500E+03  0.00000000000E+00 0. -1.
         -2    1    3    3    0  502 -0.21871596461E+03 -0.39619162520E+02  0.60200562239E+02  0.23028343168E+03  0.00000000000E+00 0.  1.
         13    1    5    5    0    0 -0.12692840043E+03 -0.42821322550E+02  0.87350874661E+01  0.13424152209E+03  0.00000000000E+00 0. -1.
        -13    1    5    5    0    0 -0.36900674877E+02  0.22557515544E+02 -0.35872402838E+02  0.56190129020E+02  0.00000000000E+00 0.  1.
          2    1    6    6  503    0  0.20756342337E+03  0.94735624135E+02  0.41224154005E+02  0.23185522223E+03  0.00000000000E+00 0. -1.
         -2    1    6    6    0  503  0.25270757329E+03  0.14687241076E+02  0.11422512287E+02  0.25339160687E+03  0.00000000000E+00 0.  1.
<mgrwt>
<rscale>  0 0.48647392E+03</rscale>
<asrwt>0</asrwt>
<pdfrwt beam="1">  1        2 0.91574506E-01 0.48647392E+03</pdfrwt>
<pdfrwt beam="2">  1       -2 0.66383595E-01 0.48647392E+03</pdfrwt>
<totfact> 0.10757426E+02</totfact>
</mgrwt>
</event>
<event>
12    1  0.1338445E-007  0.9159161E+03  0.7818608E-02  0.9405901E-01
         -2   -1    0    0    0  501 -0.00000000000E+00  0.00000000000E+00  0.91307875419E+03  0.91307875419E+03  0.00000000000E+00 0. -1.
          2   -1    0    0  501    0  0.00000000000E+00 -0.00000000000E+00 -0.19847018754E+04  0.19847018754E+04  0.00000000000E+00 0.  1.
         23    2    1    2    0    0  0.62827263210E+03  0.55569988795E+03  0.52781930032E+03  0.99460856510E+03  0.84404491970E+02 0.  0.
    5000000    2    1    2    0    0 -0.62827263210E+03 -0.55569988795E+03 -0.15994424215E+04  0.19031720645E+04  0.60026575910E+03 0.  0.
         23    2    4    4    0    0  0.61307286862E+01  0.79894730550E+02 -0.29135674704E+03  0.31390640331E+03  0.85016011348E+02 0.  0.
         23    2    4    4    0    0 -0.63440336078E+03 -0.63559461850E+03 -0.13080856744E+04  0.15892656611E+04  0.90714203803E+02 0.  0.
          3    1    3    3  502    0  0.11087628560E+03  0.64298331721E+02  0.61312722758E+02  0.14208123079E+03  0.00000000000E+00 0. -1.
         -3    1    3    3    0  502  0.51739634649E+03  0.49140155622E+03  0.46650657756E+03  0.85252733430E+03  0.00000000000E+00 0.  1.
         11    1    5    5    0    0  0.21082443250E+02  0.32289972642E+02 -0.23701278426E+03  0.24012948934E+03  0.00000000000E+00 0.  1.
        -11    1    5    5    0    0 -0.14951714563E+02  0.47604757908E+02 -0.54343962782E+02  0.73776913968E+02  0.00000000000E+00 0. -1.
          1    1    6    6  503    0 -0.29090797582E+03 -0.23523537661E+03 -0.57908855978E+03  0.68942490009E+03  0.00000000000E+00 0. -1.
         -1    1    6    6    0  503 -0.34349538497E+03 -0.40035924189E+03 -0.72899711466E+03  0.89984076105E+03  0.00000000000E+00 0.  1.
<mgrwt>
<rscale>  0 0.91591606E+03</rscale>
<asrwt>0</asrwt>
<pdfrwt beam="1">  1        2 0.30533875E+00 0.91591606E+03</pdfrwt>
<pdfrwt beam="2">  1       -2 0.14047365E+00 0.91591606E+03</pdfrwt>
<totfact> 0.24488516E+00</totfact>
</mgrwt>
</event>
<event>
12    1  0.1338445E-007  0.2231871E+04  0.7818608E-02  0.8505279E-01
         -2   -1    0    0    0  501 -0.00000000000E+00  0.00000000000E+00  0.16488577598E+04  0.16488577598E+04  0.00000000000E+00 0.  1.
          2   -1    0    0  501    0  0.00000000000E+00 -0.00000000000E+00 -0.33989080982E+04  0.33989080982E+04  0.00000000000E+00 0. -1.
         23    2    1    2    0    0 -0.21091452813E+04 -0.69725651220E+03 -0.16052675548E+04  0.27422224374E+04  0.90771758384E+02 0.  0.
    5000000    2    1    2    0    0  0.21091452813E+04  0.69725651220E+03 -0.14478278365E+03  0.23055434206E+04  0.59992328552E+03 0.  0.
         23    2    4    4    0    0  0.85130669451E+02  0.24099302166E+02 -0.11195626739E+03  0.17031782024E+03  0.92983583689E+02 0.  0.
         23    2    4    4    0    0  0.20240146119E+04  0.67315721003E+03 -0.32826516252E+02  0.21352256004E+04  0.91296253878E+02 0.  0.
          3    1    3    3  502    0 -0.11333253581E+04 -0.40153521170E+03 -0.82248983993E+03  0.14567588786E+04  0.00000000000E+00 0. -1.
         -3    1    3    3    0  502 -0.97581992320E+03 -0.29572130050E+03 -0.78277771486E+03  0.12854635588E+04  0.00000000000E+00 0.  1.
         11    1    5    5    0    0  0.67745449608E+02 -0.10637004132E+02 -0.11217225146E+03  0.13147321323E+03  0.00000000000E+00 0.  1.
        -11    1    5    5    0    0  0.17385219842E+02  0.34736306297E+02  0.21598407001E+00  0.38844607004E+02  0.00000000000E+00 0. -1.
          4    1    6    6  503    0  0.18006254535E+04  0.62314570263E+03 -0.12976820479E+02  0.19054477134E+04  0.00000000000E+00 0. -1.
         -4    1    6    6    0  503  0.22338915838E+03  0.50011507401E+02 -0.19849695773E+02  0.22977788705E+03  0.00000000000E+00 0.  1.
<mgrwt>
<rscale>  0 0.22318707E+04</rscale>
<asrwt>0</asrwt>
<pdfrwt beam="1">  1        2 0.52290893E+00 0.22318707E+04</pdfrwt>
<pdfrwt beam="2">  1       -2 0.25367043E+00 0.22318707E+04</pdfrwt>
<totfact> 0.50524152E-02</totfact>
</mgrwt>
</event>
<event>
12    1  0.2560824E-007  0.1226672E+04  0.7818608E-02  0.9089826E-01
         -2   -1    0    0    0  501 -0.00000000000E+00  0.00000000000E+00  0.11661833365E+04  0.11661833365E+04  0.00000000000E+00 0.  1.
          2   -1    0    0  501    0  0.00000000000E+00 -0.00000000000E+00 -0.13460033724E+04  0.13460033724E+04  0.00000000000E+00 0. -1.
         23    2    1    2    0    0 -0.91260361513E+03 -0.73439126955E+03 -0.22088416666E+03  0.11954018914E+04  0.89554294868E+02 0.  0.
    5000000    2    1    2    0    0  0.91260361513E+03  0.73439126955E+03  0.41064130686E+02  0.13167848175E+04  0.60005007932E+03 0.  0.
         23    2    4    4    0    0  0.92795741348E+03  0.52006925667E+03  0.11011368116E+03  0.10731695012E+04  0.89391064839E+02 0.  0.
         23    2    4    4    0    0 -0.15353798350E+02  0.21432201288E+03 -0.69049550472E+02  0.24361531637E+03  0.91711055051E+02 0.  0.
          1    1    3    3  502    0 -0.46307465901E+03 -0.37437393002E+03 -0.66740142016E+02  0.59920632995E+03  0.00000000000E+00 0. -1.
         -1    1    3    3    0  502 -0.44952895612E+03 -0.36001733953E+03 -0.15414402465E+03  0.59619556145E+03  0.00000000000E+00 0.  1.
         11    1    5    5    0    0  0.42241373102E+03  0.23039847247E+03  0.54584705572E+01  0.48119290432E+03  0.00000000000E+00 0.  1.
        -11    1    5    5    0    0  0.50554368246E+03  0.28967078420E+03  0.10465521060E+03  0.59197659684E+03  0.00000000000E+00 0. -1.
          2    1    6    6  503    0  0.63590748321E+01  0.15197652415E+03 -0.58487090452E+01  0.15222190750E+03  0.00000000000E+00 0. -1.
         -2    1    6    6    0  503 -0.21712873182E+02  0.62345488728E+02 -0.63200841426E+02  0.91393408863E+02  0.00000000000E+00 0.  1.
<mgrwt>
<rscale>  0 0.12266721E+04</rscale>
<asrwt>0</asrwt>
<pdfrwt beam="1">  1        2 0.20707744E+00 0.12266721E+04</pdfrwt>
<pdfrwt beam="2">  1       -2 0.17941282E+00 0.12266721E+04</pdfrwt>
<totfact> 0.27547571E+00</totfact>
</mgrwt>
</event>
<event>
12    1  0.1338445E-007  0.6972513E+03  0.7818608E-02  0.9721944E-01
         -2   -1    0    0    0  501 -0.00000000000E+00  0.00000000000E+00  0.44736322401E+03  0.44736322401E+03  0.00000000000E+00 0.  1.
          2   -1    0    0  501    0  0.00000000000E+00 -0.00000000000E+00 -0.11376735218E+04  0.11376735218E+04  0.00000000000E+00 0. -1.
         23    2    1    2    0    0 -0.55942155617E+03  0.16303449712E+03 -0.27725864705E+03  0.65218508422E+03  0.94553169996E+02 0.  0.
    5000000    2    1    2    0    0  0.55942155617E+03 -0.16303449712E+03 -0.41305165070E+03  0.93285166154E+03  0.60005652362E+03 0.  0.
         23    2    4    4    0    0  0.64798272392E+03 -0.17675856654E+03 -0.24292860944E+03  0.72004367925E+03  0.91232611432E+02 0.  0.
         23    2    4    4    0    0 -0.88561167753E+02  0.13724069423E+02 -0.17012304126E+03  0.21280798229E+03  0.91180906147E+02 0.  0.
          1    1    3    3  502    0 -0.31102789520E+03  0.42135694565E+02 -0.15579450711E+03  0.35040790059E+03  0.00000000000E+00 0. -1.
         -1    1    3    3    0  502 -0.24839366097E+03  0.12089880256E+03 -0.12146413995E+03  0.30177718363E+03  0.00000000000E+00 0.  1.
         13    1    5    5    0    0  0.53913384280E+03 -0.17790231361E+03 -0.21958800690E+03  0.60871456892E+03  0.00000000000E+00 0.  1.
        -13    1    5    5    0    0  0.10884888113E+03  0.11437470665E+01 -0.23340602536E+02  0.11132911033E+03  0.00000000000E+00 0. -1.
          4    1    6    6  503    0  0.10899663040E+02  0.25413675949E+02 -0.34368398387E+02  0.44111726189E+02  0.00000000000E+00 0.  1.
         -4    1    6    6    0  503 -0.99460830793E+02 -0.11689606526E+02 -0.13575464287E+03  0.16869625610E+03  0.00000000000E+00 0. -1.
<mgrwt>
<rscale>  0 0.69725134E+03</rscale>
<asrwt>0</asrwt>
<pdfrwt beam="1">  1        2 0.17502670E+00 0.69725134E+03</pdfrwt>
<pdfrwt beam="2">  1       -2 0.68825111E-01 0.69725134E+03</pdfrwt>
<totfact> 0.40750059E+01</totfact>
</mgrwt>
</event>
<event>
12    1  0.1338445E-007  0.3399486E+03  0.7818608E-02  0.1066818E+00
          1   -1    0    0  501    0  0.00000000000E+00  0.00000000000E+00  0.17832257237E+04  0.17832257237E+04  0.00000000000E+00 0. -1.
         -1   -1    0    0    0  501 -0.00000000000E+00 -0.00000000000E+00 -0.89601401664E+02  0.89601401664E+02  0.00000000000E+00 0.  1.
         23    2    1    2    0    0  0.41894825068E+02 -0.73176486141E+02  0.76732885387E+02  0.14612692788E+03  0.91406612787E+02 0.  0.
    5000000    2    1    2    0    0 -0.41894825068E+02  0.73176486141E+02  0.16168914366E+04  0.17267001975E+04  0.60003806511E+03 0.  0.
         23    2    4    4    0    0 -0.10063121281E+03  0.30626202478E+03  0.72500522909E+03  0.79864233257E+03  0.90961114487E+02 0.  0.
         23    2    4    4    0    0  0.58736387747E+02 -0.23308553863E+03  0.89188620753E+03  0.92805786489E+03  0.89730495531E+02 0.  0.
          2    1    3    3  502    0 -0.38071352334E+01 -0.25454989547E+02  0.75793565664E+02  0.80044458694E+02  0.00000000000E+00 0. -1.
         -2    1    3    3    0  502  0.45701960301E+02 -0.47721496594E+02  0.93931972288E+00  0.66082469189E+02  0.00000000000E+00 0.  1.
         13    1    5    5    0    0 -0.11271480854E+03  0.21875244775E+03  0.55283736715E+03  0.60513338693E+03  0.00000000000E+00 0.  1.
        -13    1    5    5    0    0  0.12083595722E+02  0.87509577024E+02  0.17216786194E+03  0.19350894564E+03  0.00000000000E+00 0. -1.
          4    1    6    6  503    0  0.92752134524E+01 -0.18311493813E+03  0.57756901341E+03  0.60597283388E+03  0.00000000000E+00 0. -1.
         -4    1    6    6    0  503  0.49461174294E+02 -0.49970600502E+02  0.31431719412E+03  0.32208503101E+03  0.00000000000E+00 0.  1.
<mgrwt>
<rscale>  0 0.33994858E+03</rscale>
<asrwt>0</asrwt>
<pdfrwt beam="1">  1        1 0.27434239E+00 0.33994858E+03</pdfrwt>
<pdfrwt beam="2">  1       -1 0.13784832E-01 0.33994858E+03</pdfrwt>
<totfact> 0.16998400E+02</totfact>
</mgrwt>
</event>
<event>
12    1  0.1752500E-007  0.1187992E+04  0.7818608E-02  0.9123433E-01
         -1   -1    0    0    0  501 -0.00000000000E+00  0.00000000000E+00  0.19084881145E+04  0.19084881145E+04  0.00000000000E+00 0.  1.
          1   -1    0    0  501    0  0.00000000000E+00 -0.00000000000E+00 -0.94799232060E+03  0.94799232060E+03  0.00000000000E+00 0. -1.
         23    2    1    2    0    0 -0.11045575074E+04 -0.37357814774E+03 -0.94163968571E+02  0.11736681943E+04  0.94985566583E+02 0.  0.
    5000000    2    1    2    0    0  0.11045575074E+04  0.37357814774E+03  0.10546597625E+04  0.16828122408E+04  0.59995158437E+03 0.  0.
         23    2    4    4    0    0  0.52548432334E+03  0.32976061636E+03  0.85878742858E+03  0.10633111909E+04  0.90768954365E+02 0.  0.
         23    2    4    4    0    0  0.57907318404E+03  0.43817531375E+02  0.19587233392E+03  0.61950104988E+03  0.90387228515E+02 0.  0.
          2    1    3    3  502    0 -0.60825408032E+03 -0.15753470117E+03 -0.63251815797E+02  0.63149901069E+03  0.00000000000E+00 0. -1.
         -2    1    3    3    0  502 -0.49630342705E+03 -0.21604344656E+03 -0.30912152775E+02  0.54216918364E+03  0.00000000000E+00 0.  1.
         13    1    5    5    0    0  0.29256984773E+03  0.17410041001E+03  0.54566245752E+03  0.64316062233E+03  0.00000000000E+00 0. -1.
        -13    1    5    5    0    0  0.23291447561E+03  0.15566020635E+03  0.31312497106E+03  0.42015056859E+03  0.00000000000E+00 0.  1.
          2    1    6    6  503    0  0.18507793890E+03 -0.21796775173E+02  0.85998425544E+02  0.20524295864E+03  0.00000000000E+00 0.  1.
         -2    1    6    6    0  503  0.39399524513E+03  0.65614306548E+02  0.10987390837E+03  0.41425809123E+03  0.00000000000E+00 0. -1.
<mgrwt>
<rscale>  0 0.11879916E+04</rscale>
<asrwt>0</asrwt>
<pdfrwt beam="1">  1        1 0.14584497E+00 0.11879916E+04</pdfrwt>
<pdfrwt beam="2">  1       -1 0.29361355E+00 0.11879916E+04</pdfrwt>
<totfact> 0.59633315E-01</totfact>
</mgrwt>
</event>
<event>
12    1  0.1338445E-007  0.7758534E+03  0.7818608E-02  0.9595641E-01
         -1   -1    0    0    0  501 -0.00000000000E+00  0.00000000000E+00  0.89472190091E+03  0.89472190091E+03  0.00000000000E+00 0.  1.
          1   -1    0    0  501    0  0.00000000000E+00 -0.00000000000E+00 -0.81703898111E+03  0.81703898111E+03  0.00000000000E+00 0. -1.
         23    2    1    2    0    0 -0.29623241721E+03 -0.60144097583E+03 -0.29458757986E+03  0.73810079167E+03  0.92336580212E+02 0.  0.
    5000000    2    1    2    0    0  0.29623241721E+03  0.60144097583E+03  0.37227049967E+03  0.97366009034E+03  0.59995312666E+03 0.  0.
         23    2    4    4    0    0  0.12442181824E+03  0.67300231548E+03  0.26068674887E+03  0.73838689745E+03  0.94046391737E+02 0.  0.
         23    2    4    4    0    0  0.17181059897E+03 -0.71561339648E+02  0.11158375079E+03  0.23527319289E+03  0.90899035197E+02 0.  0.
          1    1    3    3  502    0 -0.12247880112E+03 -0.26663180447E+03 -0.17843147911E+03  0.34341136938E+03  0.00000000000E+00 0. -1.
         -1    1    3    3    0  502 -0.17375361609E+03 -0.33480917136E+03 -0.11615610075E+03  0.39468942230E+03  0.00000000000E+00 0.  1.
         13    1    5    5    0    0  0.28791135402E+02  0.36324529923E+03  0.16776254117E+03  0.40114878426E+03  0.00000000000E+00 0. -1.
        -13    1    5    5    0    0  0.95630682841E+02  0.30975701625E+03  0.92924207704E+02  0.33723811320E+03  0.00000000000E+00 0.  1.
          2    1    6    6  503    0  0.12694825350E+03 -0.28040017879E+02  0.11372954880E+03  0.17273248664E+03  0.00000000000E+00 0.  1.
         -2    1    6    6    0  503  0.44862345465E+02 -0.43521321769E+02 -0.21457980032E+01  0.62540706250E+02  0.00000000000E+00 0. -1.
<mgrwt>
<rscale>  0 0.77585337E+03</rscale>
<asrwt>0</asrwt>
<pdfrwt beam="1">  1        1 0.12569831E+00 0.77585337E+03</pdfrwt>
<pdfrwt beam="2">  1       -1 0.13764952E+00 0.77585337E+03</pdfrwt>
<totfact> 0.96233359E+00</totfact>
</mgrwt>
</event>
<event>
12    1  0.1338445E-007  0.7180675E+03  0.7818608E-02  0.9686824E-01
         -1   -1    0    0    0  501 -0.00000000000E+00  0.00000000000E+00  0.12427050797E+04  0.12427050797E+04  0.00000000000E+00 0.  1.
          1   -1    0    0  501    0  0.00000000000E+00 -0.00000000000E+00 -0.21027330232E+04  0.21027330232E+04  0.00000000000E+00 0. -1.
         23    2    1    2    0    0 -0.59187344054E+03  0.21299055675E+03  0.10611370654E+04  0.12367947609E+04  0.89276324581E+02 0.  0.
    5000000    2    1    2    0    0  0.59187344054E+03 -0.21299055675E+03 -0.19211650090E+04  0.21086433421E+04  0.59985215303E+03 0.  0.
         23    2    4    4    0    0  0.73313500339E+02 -0.25435747864E+03 -0.33656924218E+03  0.43837700757E+03  0.93930557904E+02 0.  0.
         23    2    4    4    0    0  0.51855994020E+03  0.41366921892E+02 -0.15845957668E+04  0.16702663345E+04  0.90720726717E+02 0.  0.
          2    1    3    3  502    0 -0.53776675261E+03  0.16565801311E+03  0.92099774181E+03  0.10792925914E+04  0.00000000000E+00 0. -1.
         -2    1    3    3    0  502 -0.54106687927E+02  0.47332543636E+02  0.14013932363E+03  0.15750216949E+03  0.00000000000E+00 0.  1.
         11    1    5    5    0    0  0.84763742466E+02 -0.24622113230E+03 -0.29009644424E+03  0.38982776323E+03  0.00000000000E+00 0. -1.
        -11    1    5    5    0    0 -0.11450242126E+02 -0.81363463387E+01 -0.46472797947E+02  0.48549244335E+02  0.00000000000E+00 0.  1.
          3    1    6    6  503    0  0.38276525705E+03 -0.73177665702E+01 -0.11946326180E+04  0.12544759399E+04  0.00000000000E+00 0. -1.
         -3    1    6    6    0  503  0.13579468315E+03  0.48684688462E+02 -0.38996314875E+03  0.41579039460E+03  0.00000000000E+00 0.  1.
<mgrwt>
<rscale>  0 0.71806749E+03</rscale>
<asrwt>0</asrwt>
<pdfrwt beam="1">  1        1 0.32349738E+00 0.71806749E+03</pdfrwt>
<pdfrwt beam="2">  1       -1 0.19118540E+00 0.71806749E+03</pdfrwt>
<totfact> 0.47253496E-01</totfact>
</mgrwt>
</event>
<event>
12    1  0.1425552E-007  0.1417733E+04  0.7818608E-02  0.8941082E-01
         -1   -1    0    0    0  501 -0.00000000000E+00  0.00000000000E+00  0.12704603221E+04  0.12704603221E+04  0.00000000000E+00 0.  1.
          1   -1    0    0  501    0  0.00000000000E+00 -0.00000000000E+00 -0.17868820247E+04  0.17868820247E+04  0.00000000000E+00 0. -1.
         23    2    1    2    0    0  0.39913786451E+03  0.12977771161E+04 -0.75331671665E+03  0.15541675582E+04  0.66439787368E+02 0.  0.
    5000000    2    1    2    0    0 -0.39913786451E+03 -0.12977771161E+04  0.23689501398E+03  0.15031747886E+04  0.59989892431E+03 0.  0.
         23    2    4    4    0    0  0.10578830133E+03 -0.58113752535E+03  0.15911167611E+03  0.61847820475E+03  0.91031731883E+02 0.  0.
         23    2    4    4    0    0 -0.50492616585E+03 -0.71663959079E+03  0.77783337868E+02  0.88469658385E+03  0.90083637737E+02 0.  0.
          1    1    3    3  502    0  0.11151665728E+03  0.26989779991E+03 -0.16056533415E+03  0.33325967920E+03  0.00000000000E+00 0. -1.
         -1    1    3    3    0  502  0.28762120723E+03  0.10278793162E+04 -0.59275138251E+03  0.12209078790E+04  0.00000000000E+00 0.  1.
         11    1    5    5    0    0  0.52843327533E+02 -0.12113202886E+03  0.12341614376E+02  0.13273168847E+03  0.00000000000E+00 0. -1.
        -11    1    5    5    0    0  0.52944973801E+02 -0.46000549649E+03  0.14677006173E+03  0.48574651628E+03  0.00000000000E+00 0.  1.
          2    1    6    6  503    0 -0.10972659390E+03 -0.99967203964E+02  0.32165918152E+01  0.14847125560E+03  0.00000000000E+00 0. -1.
         -2    1    6    6    0  503 -0.39519957194E+03 -0.61667238683E+03  0.74566746053E+02  0.73622532825E+03  0.00000000000E+00 0.  1.
<mgrwt>
<rscale>  0 0.14177329E+04</rscale>
<asrwt>0</asrwt>
<pdfrwt beam="1">  1        1 0.27490493E+00 0.14177329E+04</pdfrwt>
<pdfrwt beam="2">  1       -1 0.19545543E+00 0.14177329E+04</pdfrwt>
<totfact> 0.64266134E-01</totfact>
</mgrwt>
</event>
<event>
12    1  0.1338445E-007  0.1058736E+04  0.7818608E-02  0.9246371E-01
          2   -1    0    0  501    0  0.00000000000E+00  0.00000000000E+00  0.15466747734E+04  0.15466747734E+04  0.00000000000E+00 0. -1.
         -2   -1    0    0    0  501 -0.00000000000E+00 -0.00000000000E+00 -0.81298180548E+03  0.81298180548E+03  0.00000000000E+00 0.  1.
         23    2    1    2    0    0 -0.29493185000E+03  0.97414841082E+03  0.12206046980E+03  0.10291772347E+04  0.91417174017E+02 0.  0.
    5000000    2    1    2    0    0  0.29493185000E+03 -0.97414841082E+03  0.61163249812E+03  0.13304793442E+04  0.60010919841E+03 0.  0.
         23    2    4    4    0    0  0.38898043263E+03 -0.76487102333E+03  0.26120050372E+03  0.90184434463E+03  0.93616555678E+02 0.  0.
         23    2    4    4    0    0 -0.94048582624E+02 -0.20927738749E+03  0.35043199440E+03  0.42863499953E+03  0.91012193204E+02 0.  0.
          3    1    3    3  502    0 -0.26240831877E+03  0.78357501499E+03  0.12547645710E+03  0.83581832425E+03  0.00000000000E+00 0. -1.
         -3    1    3    3    0  502 -0.32523531236E+02  0.19057339584E+03 -0.34159873003E+01  0.19335891046E+03  0.00000000000E+00 0.  1.
         11    1    5    5    0    0  0.69139841033E+02 -0.11966219606E+03  0.78327108262E+02  0.15885368952E+03  0.00000000000E+00 0. -1.
        -11    1    5    5    0    0  0.31984059160E+03 -0.64520882727E+03  0.18287339546E+03  0.74299065511E+03  0.00000000000E+00 0.  1.
          4    1    6    6  503    0 -0.41166419841E+02 -0.16629903822E+03  0.19905495554E+03  0.26262695894E+03  0.00000000000E+00 0. -1.
         -4    1    6    6    0  503 -0.52882162783E+02 -0.42978349273E+02  0.15137703886E+03  0.16600804059E+03  0.00000000000E+00 0.  1.
<mgrwt>
<rscale>  0 0.10587359E+04</rscale>
<asrwt>0</asrwt>
<pdfrwt beam="1">  1        2 0.23794996E+00 0.10587359E+04</pdfrwt>
<pdfrwt beam="2">  1       -2 0.12507412E+00 0.10587359E+04</pdfrwt>
<totfact> 0.56503197E+00</totfact>
</mgrwt>
</event>
<event>
12    1  0.1338445E-007  0.8654882E+03  0.7818608E-02  0.9469782E-01
         -2   -1    0    0    0  501 -0.00000000000E+00  0.00000000000E+00  0.12047374377E+04  0.12047374377E+04  0.00000000000E+00 0.  1.
          2   -1    0    0  501    0  0.00000000000E+00 -0.00000000000E+00 -0.18013266771E+04  0.18013266771E+04  0.00000000000E+00 0. -1.
         23    2    1    2    0    0 -0.80063938670E+03 -0.18831783994E+03 -0.14553343386E+04  0.16741366262E+04  0.90820534779E+02 0.  0.
    5000000    2    1    2    0    0  0.80063938670E+03  0.18831783994E+03  0.85874509916E+03  0.13319274886E+04  0.60008387184E+03 0.  0.
         23    2    4    4    0    0  0.31348115786E+03 -0.99984580804E+02  0.57080430319E+02  0.34596579775E+03  0.90370376562E+02 0.  0.
         23    2    4    4    0    0  0.48715822885E+03  0.28830242075E+03  0.80166466884E+03  0.98596169087E+03  0.94935709097E+02 0.  0.
          3    1    3    3  502    0 -0.54475758148E+03 -0.85259358383E+02 -0.98898873432E+03  0.11323112193E+04  0.00000000000E+00 0. -1.
         -3    1    3    3    0  502 -0.25588180523E+03 -0.10305848156E+03 -0.46634560432E+03  0.54182540688E+03  0.00000000000E+00 0.  1.
         13    1    5    5    0    0  0.17121999087E+03 -0.36598565681E+02  0.72409046562E+02  0.18946981371E+03  0.00000000000E+00 0. -1.
        -13    1    5    5    0    0  0.14226116698E+03 -0.63386015123E+02 -0.15328616243E+02  0.15649598404E+03  0.00000000000E+00 0.  1.
          3    1    6    6  503    0  0.53020789199E+02  0.23954754583E+01  0.57895580199E+02  0.78541967103E+02  0.00000000000E+00 0. -1.
         -3    1    6    6    0  503  0.43413743965E+03  0.28590694529E+03  0.74376908864E+03  0.90741972377E+03  0.00000000000E+00 0.  1.
<mgrwt>
<rscale>  0 0.86548819E+03</rscale>
<asrwt>0</asrwt>
<pdfrwt beam="1">  1        2 0.27712718E+00 0.86548819E+03</pdfrwt>
<pdfrwt beam="2">  1       -2 0.18534422E+00 0.86548819E+03</pdfrwt>
<totfact> 0.14583874E+00</totfact>
</mgrwt>
</event>
<event>
12    1  0.1338445E-007  0.5483531E+03  0.7818608E-02  0.1001876E+00
          1   -1    0    0  501    0  0.00000000000E+00  0.00000000000E+00  0.12411171604E+04  0.12411171604E+04  0.00000000000E+00 0. -1.
         -1   -1    0    0    0  501 -0.00000000000E+00 -0.00000000000E+00 -0.26796973022E+03  0.26796973022E+03  0.00000000000E+00 0.  1.
         23    2    1    2    0    0  0.19802066280E+03  0.33972569286E+03  0.18764835031E+03  0.44530933725E+03  0.91993332264E+02 0.  0.
    5000000    2    1    2    0    0 -0.19802066280E+03 -0.33972569286E+03  0.78549907987E+03  0.10637775534E+04  0.59999012431E+03 0.  0.
         23    2    4    4    0    0  0.14840538127E+03  0.59428995347E+02  0.21748645550E+03  0.28268406170E+03  0.83987842789E+02 0.  0.
         23    2    4    4    0    0 -0.34642604407E+03 -0.39915468821E+03  0.56801262437E+03  0.78109349166E+03  0.90184433990E+02 0.  0.
          3    1    3    3  502    0  0.16514759179E+03  0.23277361776E+03  0.16953405451E+03  0.33196246751E+03  0.00000000000E+00 0. -1.
         -3    1    3    3    0  502  0.32873071006E+02  0.10695207510E+03  0.18114295800E+02  0.11334686973E+03  0.00000000000E+00 0.  1.
         13    1    5    5    0    0  0.11817649730E+03  0.70437031096E+02  0.20756395939E+03  0.24901778471E+03  0.00000000000E+00 0.  1.
        -13    1    5    5    0    0  0.30228883974E+02 -0.11008035749E+02  0.99224961018E+01  0.33666276988E+02  0.00000000000E+00 0. -1.
          2    1    6    6  503    0 -0.23283686084E+03 -0.24276707011E+03  0.30045890941E+03  0.45102595306E+03  0.00000000000E+00 0. -1.
         -2    1    6    6    0  503 -0.11358918323E+03 -0.15638761810E+03  0.26755371497E+03  0.33006753860E+03  0.00000000000E+00 0.  1.
<mgrwt>
<rscale>  0 0.54835306E+03</rscale>
<asrwt>0</asrwt>
<pdfrwt beam="1">  1        1 0.19094110E+00 0.54835306E+03</pdfrwt>
<pdfrwt beam="2">  1       -1 0.41226113E-01 0.54835306E+03</pdfrwt>
<totfact> 0.60278298E+01</totfact>
</mgrwt>
</event>
<event>
12    1  0.1338445E-007  0.1054721E+04  0.7818608E-02  0.9250483E-01
          2   -1    0    0  501    0  0.00000000000E+00  0.00000000000E+00  0.18700757121E+04  0.18700757121E+04  0.00000000000E+00 0. -1.
         -2   -1    0    0    0  501 -0.00000000000E+00 -0.00000000000E+00 -0.87272318230E+03  0.87272318230E+03  0.00000000000E+00 0.  1.
         23    2    1    2    0    0 -0.88753372122E+03 -0.48604143929E+03 -0.23095815494E+03  0.10420167474E+04  0.92221719594E+02 0.  0.
    5000000    2    1    2    0    0  0.88753372122E+03  0.48604143929E+03  0.12283106847E+04  0.17007821469E+04  0.59996698760E+03 0.  0.
         23    2    4    4    0    0  0.10319631650E+03  0.23147631596E+03  0.60614299460E+03  0.66370171990E+03  0.94126927586E+02 0.  0.
         23    2    4    4    0    0  0.78433740471E+03  0.25456512333E+03  0.62216769008E+03  0.10370804270E+04  0.91948959271E+02 0.  0.
          1    1    3    3  502    0 -0.61715057279E+03 -0.30481896114E+03 -0.18918988210E+03  0.71385029246E+03  0.00000000000E+00 0.  1.
         -1    1    3    3    0  502 -0.27038314843E+03 -0.18122247815E+03 -0.41768272836E+02  0.32816645496E+03  0.00000000000E+00 0. -1.
         11    1    5    5    0    0  0.11442593961E+03  0.17890783868E+03  0.43076472409E+03  0.48027029673E+03  0.00000000000E+00 0.  1.
        -11    1    5    5    0    0 -0.11229623104E+02  0.52568477284E+02  0.17537827051E+03  0.18343142317E+03  0.00000000000E+00 0. -1.
          1    1    6    6  503    0  0.39254003642E+02 -0.69223612020E+01  0.24833990887E+02  0.46962995964E+02  0.00000000000E+00 0. -1.
         -1    1    6    6    0  503  0.74508340107E+03  0.26148748453E+03  0.59733369920E+03  0.99011743107E+03  0.00000000000E+00 0.  1.
<mgrwt>
<rscale>  0 0.10547210E+04</rscale>
<asrwt>0</asrwt>
<pdfrwt beam="1">  1        2 0.28770396E+00 0.10547210E+04</pdfrwt>
<pdfrwt beam="2">  1       -2 0.13426511E+00 0.10547210E+04</pdfrwt>
<totfact> 0.31244974E+00</totfact>
</mgrwt>
</event>
<event>
12    1  0.1338445E-007  0.4824792E+03  0.7818608E-02  0.1018456E+00
         -2   -1    0    0    0  501 -0.00000000000E+00  0.00000000000E+00  0.41338975744E+03  0.41338975744E+03  0.00000000000E+00 0.  1.
          2   -1    0    0  501    0  0.00000000000E+00 -0.00000000000E+00 -0.98258335148E+03  0.98258335148E+03  0.00000000000E+00 0. -1.
         23    2    1    2    0    0  0.31531317751E+03  0.77626746632E+02  0.17894767509E+03  0.38344725098E+03  0.97781451007E+02 0.  0.
    5000000    2    1    2    0    0 -0.31531317751E+03 -0.77626746632E+02 -0.74814126913E+03  0.10125258579E+04  0.60003745110E+03 0.  0.
         23    2    4    4    0    0 -0.36923948435E+02 -0.27552458849E+03 -0.18043926905E+03  0.34376975644E+03  0.91335309708E+02 0.  0.
         23    2    4    4    0    0 -0.27838922908E+03  0.19789784186E+03 -0.56770200008E+03  0.66875610150E+03  0.91022215527E+02 0.  0.
          1    1    3    3  502    0  0.16596766197E+03  0.22612481079E+02  0.40090807668E+02  0.17223200045E+03  0.00000000000E+00 0. -1.
         -1    1    3    3    0  502  0.14934551554E+03  0.55014265553E+02  0.13885686742E+03  0.21121525053E+03  0.00000000000E+00 0.  1.
         11    1    5    5    0    0 -0.12358686761E+02 -0.41305515244E+01  0.52133891634E+01  0.14034885853E+02  0.00000000000E+00 0.  1.
        -11    1    5    5    0    0 -0.24565261674E+02 -0.27139403696E+03 -0.18565265821E+03  0.32973487059E+03  0.00000000000E+00 0. -1.
          3    1    6    6  503    0 -0.23174410108E+03  0.19994469353E+03 -0.50615637342E+03  0.59150442366E+03  0.00000000000E+00 0. -1.
         -3    1    6    6    0  503 -0.46645128000E+02 -0.20468516755E+01 -0.61545626658E+02  0.77251677837E+02  0.00000000000E+00 0.  1.
<mgrwt>
<rscale>  0 0.48247922E+03</rscale>
<asrwt>0</asrwt>
<pdfrwt beam="1">  1        2 0.15116667E+00 0.48247922E+03</pdfrwt>
<pdfrwt beam="2">  1       -2 0.63598424E-01 0.48247922E+03</pdfrwt>
<totfact> 0.61683742E+01</totfact>
</mgrwt>
</event>
<event>
12    1  0.1338445E-007  0.8243797E+03  0.7818608E-02  0.9525384E-01
         -1   -1    0    0    0  501 -0.00000000000E+00  0.00000000000E+00  0.68321293713E+03  0.68321293713E+03  0.00000000000E+00 0.  1.
          1   -1    0    0  501    0  0.00000000000E+00 -0.00000000000E+00 -0.17959583977E+04  0.17959583977E+04  0.00000000000E+00 0. -1.
         23    2    1    2    0    0  0.79928989000E+03  0.16863738916E+03  0.17497093148E+03  0.84045885791E+03  0.91942197581E+02 0.  0.
    5000000    2    1    2    0    0 -0.79928989000E+03 -0.16863738916E+03 -0.12877163920E+04  0.16387124769E+04  0.59988513767E+03 0.  0.
         23    2    4    4    0    0 -0.32093227989E+03 -0.91836207377E+01 -0.99084258108E+03  0.10461284654E+04  0.97641582148E+02 0.  0.
         23    2    4    4    0    0 -0.47835761010E+03 -0.15945376842E+03 -0.29687381094E+03  0.59258401146E+03  0.93649578778E+02 0.  0.
          2    1    3    3  502    0  0.34230575734E+03  0.69262160635E+02  0.28544928965E+02  0.35040732209E+03  0.00000000000E+00 0. -1.
         -2    1    3    3    0  502  0.45698413266E+03  0.99375228525E+02  0.14642600251E+03  0.49005153582E+03  0.00000000000E+00 0.  1.
         13    1    5    5    0    0 -0.11196254247E+03  0.14678441822E+02 -0.49136308804E+03  0.50417135168E+03  0.00000000000E+00 0. -1.
        -13    1    5    5    0    0 -0.20896973742E+03 -0.23862062559E+02 -0.49947949304E+03  0.54195711376E+03  0.00000000000E+00 0.  1.
          2    1    6    6  503    0 -0.52288639327E+01  0.54579967556E+01 -0.17155762598E+02  0.18747024749E+02  0.00000000000E+00 0. -1.
         -2    1    6    6    0  503 -0.47312874617E+03 -0.16491176518E+03 -0.27971804834E+03  0.57383698671E+03  0.00000000000E+00 0.  1.
<mgrwt>
<rscale>  0 0.82437975E+03</rscale>
<asrwt>0</asrwt>
<pdfrwt beam="1">  1        1 0.27630129E+00 0.82437975E+03</pdfrwt>
<pdfrwt beam="2">  1       -1 0.10510968E+00 0.82437975E+03</pdfrwt>
<totfact> 0.36032701E+00</totfact>
</mgrwt>
</event>
<event>
12    1  0.1338445E-007  0.5290527E+03  0.7818608E-02  0.1006462E+00
          1   -1    0    0  501    0  0.00000000000E+00  0.00000000000E+00  0.39479520141E+03  0.39479520141E+03  0.00000000000E+00 0. -1.
         -1   -1    0    0    0  501 -0.00000000000E+00 -0.00000000000E+00 -0.76982320811E+03  0.76982320811E+03  0.00000000000E+00 0.  1.
         23    2    1    2    0    0  0.23839300133E+03  0.28227006503E+03 -0.36233597861E+02  0.38265030508E+03  0.92740334634E+02 0.  0.
    5000000    2    1    2    0    0 -0.23839300133E+03 -0.28227006503E+03 -0.33879440883E+03  0.78196810444E+03  0.60015402374E+03 0.  0.
         23    2    4    4    0    0  0.81870905809E+02 -0.33030816099E+03 -0.25164935479E+03  0.43349160579E+03  0.93708313879E+02 0.  0.
         23    2    4    4    0    0 -0.32026390714E+03  0.48038095963E+02 -0.87145054041E+02  0.34847649865E+03  0.94683582461E+02 0.  0.
          3    1    3    3  502    0  0.13821474834E+03  0.22836141406E+03 -0.19210327693E+02  0.26762154020E+03  0.00000000000E+00 0. -1.
         -3    1    3    3    0  502  0.10017825299E+03  0.53908650970E+02 -0.17023270169E+02  0.11502876488E+03  0.00000000000E+00 0.  1.
         11    1    5    5    0    0  0.43826793552E+02 -0.37761506649E+02 -0.37323704273E+02  0.68846046496E+02  0.00000000000E+00 0.  1.
        -11    1    5    5    0    0  0.38044112257E+02 -0.29254665434E+03 -0.21432565052E+03  0.36464555930E+03  0.00000000000E+00 0. -1.
          1    1    6    6  503    0 -0.12240507009E+03  0.78815328082E+01 -0.80031043272E+02  0.14645848432E+03  0.00000000000E+00 0. -1.
         -1    1    6    6    0  503 -0.19785883705E+03  0.40156563154E+02 -0.71140107682E+01  0.20201801433E+03  0.00000000000E+00 0.  1.
<mgrwt>
<rscale>  0 0.52905271E+03</rscale>
<asrwt>0</asrwt>
<pdfrwt beam="1">  1        1 0.60737724E-01 0.52905271E+03</pdfrwt>
<pdfrwt beam="2">  1       -1 0.11843434E+00 0.52905271E+03</pdfrwt>
<totfact> 0.40799470E+01</totfact>
</mgrwt>
</event>
<event>
12    1  0.1338445E-007  0.5712369E+03  0.7818608E-02  0.9966945E-01
          2   -1    0    0  501    0  0.00000000000E+00  0.00000000000E+00  0.19377307291E+04  0.19377307291E+04  0.00000000000E+00 0. -1.
         -2   -1    0    0    0  501 -0.00000000000E+00 -0.00000000000E+00 -0.43141631364E+03  0.43141631364E+03  0.00000000000E+00 0.  1.
         23    2    1    2    0    0  0.33561050327E+02  0.44099937610E+03  0.15579265096E+04  0.16220091390E+04  0.90398251725E+02 0.  0.
    5000000    2    1    2    0    0 -0.33561050327E+02 -0.44099937610E+03 -0.51612094154E+02  0.74713790370E+03  0.59995370244E+03 0.  0.
         23    2    4    4    0    0 -0.20262538386E+03 -0.46332188548E+03 -0.14184457051E+03  0.53426167195E+03  0.97935877928E+02 0.  0.
         23    2    4    4    0    0  0.16906433354E+03  0.22322509379E+02  0.90232476356E+02  0.21287623175E+03  0.89963031048E+02 0.  0.
          2    1    3    3  502    0 -0.22521148687E+02  0.20106903507E+03  0.79142425821E+03  0.81687717283E+03  0.00000000000E+00 0.  1.
         -2    1    3    3    0  502  0.56082199014E+02  0.23993034102E+03  0.76650225138E+03  0.80513196618E+03  0.00000000000E+00 0. -1.
         11    1    5    5    0    0 -0.38226456761E+02 -0.18046621121E+03 -0.21720852095E+02  0.18574474636E+03  0.00000000000E+00 0. -1.
        -11    1    5    5    0    0 -0.16439892710E+03 -0.28285567427E+03 -0.12012371842E+03  0.34851692559E+03  0.00000000000E+00 0.  1.
          2    1    6    6  503    0  0.13144627573E+03  0.44105751526E+02  0.35761945384E+02  0.14318644300E+03  0.00000000000E+00 0.  1.
         -2    1    6    6    0  503  0.37618057803E+02 -0.21783242147E+02  0.54470530972E+02  0.69689788748E+02  0.00000000000E+00 0. -1.
<mgrwt>
<rscale>  0 0.57123692E+03</rscale>
<asrwt>0</asrwt>
<pdfrwt beam="1">  1        2 0.29811241E+00 0.57123692E+03</pdfrwt>
<pdfrwt beam="2">  1       -2 0.66371742E-01 0.57123692E+03</pdfrwt>
<totfact> 0.16062177E+01</totfact>
</mgrwt>
</event>
<event>
12    1  0.1338445E-007  0.4036487E+03  0.7818608E-02  0.1042524E+00
         -1   -1    0    0    0  501 -0.00000000000E+00  0.00000000000E+00  0.13090563565E+03  0.13090563565E+03  0.00000000000E+00 0.  1.
          1   -1    0    0  501    0  0.00000000000E+00 -0.00000000000E+00 -0.20078458735E+04  0.20078458735E+04  0.00000000000E+00 0. -1.
         23    2    1    2    0    0  0.12988615227E+03  0.22880025590E+03 -0.10350975623E+04  0.10719413387E+04  0.91713142440E+02 0.  0.
    5000000    2    1    2    0    0 -0.12988615227E+03 -0.22880025590E+03 -0.84184267557E+03  0.10668101705E+04  0.60013738406E+03 0.  0.
         23    2    4    4    0    0 -0.30300584129E+03 -0.18687178300E+03 -0.25091005513E+03  0.44292939086E+03  0.80603885654E+02 0.  0.
         23    2    4    4    0    0  0.17311968903E+03 -0.41928472897E+02 -0.59093262043E+03  0.62388077960E+03  0.91090294192E+02 0.  0.
          2    1    3    3  502    0  0.40131862164E+02  0.13519290023E+03 -0.41127246400E+03  0.43477893955E+03  0.00000000000E+00 0. -1.
         -2    1    3    3    0  502  0.89754290102E+02  0.93607355674E+02 -0.62382509828E+03  0.63716239914E+03  0.00000000000E+00 0.  1.
         11    1    5    5    0    0 -0.16979815018E+03 -0.80521135464E+02 -0.89378997745E+02  0.20809533945E+03  0.00000000000E+00 0. -1.
        -11    1    5    5    0    0 -0.13320769111E+03 -0.10635064754E+03 -0.16153105739E+03  0.23483405142E+03  0.00000000000E+00 0.  1.
          1    1    6    6  503    0  0.15032133441E+03 -0.38323811230E+02 -0.36268137476E+03  0.39446545816E+03  0.00000000000E+00 0. -1.
         -1    1    6    6    0  503  0.22798354614E+02 -0.36046616665E+01 -0.22825124567E+03  0.22941532144E+03  0.00000000000E+00 0.  1.
<mgrwt>
<rscale>  0 0.40364870E+03</rscale>
<asrwt>0</asrwt>
<pdfrwt beam="1">  1        1 0.30889936E+00 0.40364870E+03</pdfrwt>
<pdfrwt beam="2">  1       -1 0.20139329E-01 0.40364870E+03</pdfrwt>
<totfact> 0.64734863E+01</totfact>
</mgrwt>
</event>
<event>
12    1  0.1338445E-007  0.5758458E+03  0.7818608E-02  0.9956826E-01
          1   -1    0    0  501    0  0.00000000000E+00  0.00000000000E+00  0.15058489490E+04  0.15058489490E+04  0.00000000000E+00 0. -1.
         -1   -1    0    0    0  501 -0.00000000000E+00 -0.00000000000E+00 -0.80277608547E+03  0.80277608547E+03  0.00000000000E+00 0.  1.
         23    2    1    2    0    0  0.53822658868E+03  0.12531247506E+03  0.12205409258E+04  0.13429118495E+04  0.91109860352E+02 0.  0.
    5000000    2    1    2    0    0 -0.53822658868E+03 -0.12531247506E+03 -0.51746806233E+03  0.96571318497E+03  0.59953121930E+03 0.  0.
         23    2    4    4    0    0 -0.10156138501E+03 -0.60233737383E+01  0.11810629353E+03  0.18131294437E+03  0.92597469018E+02 0.  0.
         23    2    4    4    0    0 -0.43666520366E+03 -0.11928910132E+03 -0.63557435586E+03  0.78440024059E+03  0.80141037103E+02 0.  0.
          1    1    3    3  502    0  0.20050725432E+03  0.71898126425E+02  0.38263825614E+03  0.43793211196E+03  0.00000000000E+00 0. -1.
         -1    1    3    3    0  502  0.33771933435E+03  0.53414348630E+02  0.83790266968E+03  0.90497973750E+03  0.00000000000E+00 0.  1.
         13    1    5    5    0    0 -0.65221317171E+02  0.41453109003E+02  0.58865417767E+02  0.97145858730E+02  0.00000000000E+00 0.  1.
        -13    1    5    5    0    0 -0.36340067842E+02 -0.47476482742E+02  0.59240875763E+02  0.84167085642E+02  0.00000000000E+00 0. -1.
          4    1    6    6  503    0  0.33766216548E+01 -0.30797672038E+01 -0.67648339228E+01  0.81639155944E+01  0.00000000000E+00 0. -1.
         -4    1    6    6    0  503 -0.44004182532E+03 -0.11620933411E+03 -0.62880952194E+03  0.77623632500E+03  0.00000000000E+00 0.  1.
<mgrwt>
<rscale>  0 0.57584580E+03</rscale>
<asrwt>0</asrwt>
<pdfrwt beam="1">  1        1 0.23166907E+00 0.57584580E+03</pdfrwt>
<pdfrwt beam="2">  1       -1 0.12350401E+00 0.57584580E+03</pdfrwt>
<totfact> 0.40358921E+00</totfact>
</mgrwt>
</event>
<event>
12    1  0.1338445E-007  0.6154380E+03  0.7818608E-02  0.9873885E-01
          2   -1    0    0  501    0  0.00000000000E+00  0.00000000000E+00  0.26442322366E+04  0.26442322366E+04  0.00000000000E+00 0. -1.
         -2   -1    0    0    0  501 -0.00000000000E+00 -0.00000000000E+00 -0.18391285002E+03  0.18391285002E+03  0.00000000000E+00 0.  1.
         23    2    1    2    0    0 -0.50521855030E+03 -0.24286314460E+03  0.11420601543E+04  0.12754577095E+04  0.90899296351E+02 0.  0.
    5000000    2    1    2    0    0  0.50521855030E+03  0.24286314460E+03  0.13182592322E+04  0.15526873771E+04  0.59900116612E+03 0.  0.
         23    2    4    4    0    0  0.81278393361E+02  0.20616432979E+03  0.10079795375E+03  0.26003040389E+03  0.91354667978E+02 0.  0.
         23    2    4    4    0    0  0.42394015694E+03  0.36698814806E+02  0.12174612785E+04  0.12926569732E+04  0.87624346262E+02 0.  0.
          1    1    3    3  502    0 -0.36670846088E+03 -0.13385274149E+03  0.74673208267E+03  0.84261524730E+03  0.00000000000E+00 0. -1.
         -1    1    3    3    0  502 -0.13851008942E+03 -0.10901040311E+03  0.39532807162E+03  0.43284246219E+03  0.00000000000E+00 0.  1.
         13    1    5    5    0    0  0.92508497421E+02  0.18524353765E+03  0.64901063714E+02  0.21699110214E+03  0.00000000000E+00 0. -1.
        -13    1    5    5    0    0 -0.11230104060E+02  0.20920792141E+02  0.35896890034E+02  0.43039301749E+02  0.00000000000E+00 0.  1.
          3    1    6    6  503    0  0.13458342395E+03  0.50515161155E+02  0.44634147568E+03  0.46891917472E+03  0.00000000000E+00 0. -1.
         -3    1    6    6    0  503  0.28935673299E+03 -0.13816346348E+02  0.77111980282E+03  0.82373779849E+03  0.00000000000E+00 0.  1.
<mgrwt>
<rscale>  0 0.61543797E+03</rscale>
<asrwt>0</asrwt>
<pdfrwt beam="1">  1        2 0.40680493E+00 0.61543797E+03</pdfrwt>
<pdfrwt beam="2">  1       -2 0.28294286E-01 0.61543797E+03</pdfrwt>
<totfact> 0.35019298E+01</totfact>
</mgrwt>
</event>
<event>
12    1  0.1338445E-007  0.1346980E+04  0.7818608E-02  0.8993117E-01
         -1   -1    0    0    0  501 -0.00000000000E+00  0.00000000000E+00  0.96860334761E+03  0.96860334761E+03  0.00000000000E+00 0.  1.
          1   -1    0    0  501    0  0.00000000000E+00 -0.00000000000E+00 -0.25276203616E+04  0.25276203616E+04  0.00000000000E+00 0. -1.
         23    2    1    2    0    0  0.89448610255E+03  0.92677574874E+03  0.11993512235E+03  0.12966964466E+04  0.89546440586E+02 0.  0.
    5000000    2    1    2    0    0 -0.89448610255E+03 -0.92677574874E+03 -0.16789521363E+04  0.21995272626E+04  0.60001768858E+03 0.  0.
         23    2    4    4    0    0 -0.12914044189E+03 -0.52040810560E+03 -0.74138252033E+03  0.91984908267E+03  0.94722981987E+02 0.  0.
         23    2    4    4    0    0 -0.76534566067E+03 -0.40636764314E+03 -0.93756961601E+03  0.12796781799E+04  0.87468952256E+02 0.  0.
          3    1    3    3  502    0  0.74747236193E+03  0.73489795595E+03  0.75724356923E+02  0.10509634226E+04  0.00000000000E+00 0. -1.
         -3    1    3    3    0  502  0.14701374063E+03  0.19187779279E+03  0.44210765422E+02  0.24573302399E+03  0.00000000000E+00 0.  1.
         11    1    5    5    0    0 -0.48232401559E+02 -0.19094562101E+03 -0.35250178756E+03  0.40378720260E+03  0.00000000000E+00 0. -1.
        -11    1    5    5    0    0 -0.80908040327E+02 -0.32946248459E+03 -0.38888073277E+03  0.51606188007E+03  0.00000000000E+00 0.  1.
          4    1    6    6  503    0 -0.36712919149E+03 -0.16840773724E+03 -0.49069588440E+03  0.63555287755E+03  0.00000000000E+00 0. -1.
         -4    1    6    6    0  503 -0.39821646918E+03 -0.23795990590E+03 -0.44687373161E+03  0.64412530237E+03  0.00000000000E+00 0.  1.
<mgrwt>
<rscale>  0 0.13469799E+04</rscale>
<asrwt>0</asrwt>
<pdfrwt beam="1">  1        1 0.38886467E+00 0.13469799E+04</pdfrwt>
<pdfrwt beam="2">  1       -1 0.14901590E+00 0.13469799E+04</pdfrwt>
<totfact> 0.44549089E-01</totfact>
</mgrwt>
</event>
<event>
12    1  0.1338445E-007  0.1030487E+04  0.7818608E-02  0.9275725E-01
         -1   -1    0    0    0  501 -0.00000000000E+00  0.00000000000E+00  0.83166613520E+03  0.83166613520E+03  0.00000000000E+00 0.  1.
          1   -1    0    0  501    0  0.00000000000E+00 -0.00000000000E+00 -0.14698018843E+04  0.14698018843E+04  0.00000000000E+00 0. -1.
         23    2    1    2    0    0  0.10027019423E+04  0.16631326022E+03 -0.19030136114E+03  0.10390586992E+04  0.10176977330E+03 0.  0.
    5000000    2    1    2    0    0 -0.10027019423E+04 -0.16631326022E+03 -0.44783438793E+03  0.12624093202E+04  0.60004197121E+03 0.  0.
         23    2    4    4    0    0 -0.44838774249E+03  0.31615583250E+02  0.80796718514E+02  0.46653386824E+03  0.95260840705E+02 0.  0.
         23    2    4    4    0    0 -0.55431419982E+03 -0.19792884347E+03 -0.52863110644E+03  0.79587545201E+03  0.86757300673E+02 0.  0.
          3    1    3    3  502    0  0.15371222313E+03  0.13458659493E+02 -0.64726959273E+02  0.16732651407E+03  0.00000000000E+00 0. -1.
         -3    1    3    3    0  502  0.84898971918E+03  0.15285460072E+03 -0.12557440187E+03  0.87173218516E+03  0.00000000000E+00 0.  1.
         13    1    5    5    0    0 -0.14730735623E+03 -0.23548366736E+02 -0.28969674823E+01  0.14920581489E+03  0.00000000000E+00 0. -1.
        -13    1    5    5    0    0 -0.30108038626E+03  0.55163949987E+02  0.83693685997E+02  0.31732805335E+03  0.00000000000E+00 0.  1.
          1    1    6    6  503    0 -0.17925804485E+03 -0.56964227681E+02 -0.11739176380E+03  0.22171873192E+03  0.00000000000E+00 0. -1.
         -1    1    6    6    0  503 -0.37505615497E+03 -0.14096461579E+03 -0.41123934264E+03  0.57415672009E+03  0.00000000000E+00 0.  1.
<mgrwt>
<rscale>  0 0.10304870E+04</rscale>
<asrwt>0</asrwt>
<pdfrwt beam="1">  1        1 0.22612337E+00 0.10304870E+04</pdfrwt>
<pdfrwt beam="2">  1       -1 0.12794864E+00 0.10304870E+04</pdfrwt>
<totfact> 0.36291083E+00</totfact>
</mgrwt>
</event>
<event>
12    1  0.1338445E-007  0.3975930E+03  0.7818608E-02  0.1044616E+00
          3   -1    0    0  501    0  0.00000000000E+00  0.00000000000E+00  0.29423892241E+03  0.29423892241E+03  0.00000000000E+00 0. -1.
         -3   -1    0    0    0  501 -0.00000000000E+00 -0.00000000000E+00 -0.78179875739E+03  0.78179875739E+03  0.00000000000E+00 0.  1.
         23    2    1    2    0    0  0.18307487867E+03 -0.12977876630E+03 -0.34164944035E+03  0.41893710687E+03  0.91787907912E+02 0.  0.
    5000000    2    1    2    0    0 -0.18307487867E+03  0.12977876630E+03 -0.14591039463E+03  0.65710057293E+03  0.60011030678E+03 0.  0.
         23    2    4    4    0    0 -0.29000288200E+03  0.23593058624E+03 -0.24409771042E+03  0.45531655939E+03  0.89244405583E+02 0.  0.
         23    2    4    4    0    0  0.10692800333E+03 -0.10615181993E+03  0.98187315797E+02  0.20178401354E+03  0.91510831963E+02 0.  0.
          1    1    3    3  502    0  0.13393621846E+03 -0.13825472968E+03 -0.27607680077E+03  0.33655858452E+03  0.00000000000E+00 0. -1.
         -1    1    3    3    0  502  0.49138660213E+02  0.84759633757E+01 -0.65572639579E+02  0.82378522347E+02  0.00000000000E+00 0.  1.
         11    1    5    5    0    0 -0.18926065870E+02  0.53141154520E+02 -0.24721110446E+02  0.61589865844E+02  0.00000000000E+00 0.  1.
        -11    1    5    5    0    0 -0.27107681613E+03  0.18278943172E+03 -0.21937659998E+03  0.39372669355E+03  0.00000000000E+00 0. -1.
          2    1    6    6  503    0  0.75338373895E+02 -0.11425592686E+03  0.99403295918E+02  0.16914875891E+03  0.00000000000E+00 0. -1.
         -2    1    6    6    0  503  0.31589629439E+02  0.81041069228E+01 -0.12159801216E+01  0.32635254630E+02  0.00000000000E+00 0.  1.
<mgrwt>
<rscale>  0 0.39759303E+03</rscale>
<asrwt>0</asrwt>
<pdfrwt beam="1">  1        3 0.45267527E-01 0.39759303E+03</pdfrwt>
<pdfrwt beam="2">  1       -3 0.12027673E+00 0.39759303E+03</pdfrwt>
<totfact> 0.71179399E+00</totfact>
</mgrwt>
</event>
<event>
12    1  0.1338445E-007  0.5805952E+03  0.7818608E-02  0.9946503E-01
         -2   -1    0    0    0  501 -0.00000000000E+00  0.00000000000E+00  0.43994454363E+03  0.43994454363E+03  0.00000000000E+00 0. -1.
          2   -1    0    0  501    0  0.00000000000E+00 -0.00000000000E+00 -0.11088923356E+04  0.11088923356E+04  0.00000000000E+00 0.  1.
         23    2    1    2    0    0  0.43472978797E+03 -0.27425407430E+03 -0.53488287735E+03  0.74747796565E+03  0.91751462235E+02 0.  0.
    5000000    2    1    2    0    0 -0.43472978797E+03  0.27425407430E+03 -0.13406491459E+03  0.80135891355E+03  0.59999785098E+03 0.  0.
         23    2    4    4    0    0 -0.48409844074E+03  0.22743080269E+03  0.90376678922E+02  0.54998807543E+03  0.90790245545E+02 0.  0.
         23    2    4    4    0    0  0.49368652764E+02  0.46823271604E+02 -0.22444159351E+03  0.25137083812E+03  0.90463178804E+02 0.  0.
          2    1    3    3  502    0  0.17259328209E+03 -0.80488878933E+02 -0.25205086395E+03  0.31590590161E+03  0.00000000000E+00 0. -1.
         -2    1    3    3    0  502  0.26213650589E+03 -0.19376519536E+03 -0.28283201341E+03  0.43157206404E+03  0.00000000000E+00 0.  1.
         13    1    5    5    0    0 -0.65006913659E+02  0.32916854709E+02  0.45214897308E+02  0.85754329838E+02  0.00000000000E+00 0. -1.
        -13    1    5    5    0    0 -0.41909152708E+03  0.19451394798E+03  0.45161781614E+02  0.46423374559E+03  0.00000000000E+00 0.  1.
          1    1    6    6  503    0  0.52130029238E+02 -0.99217592499E+01 -0.13880538384E+03  0.14860321611E+03  0.00000000000E+00 0. -1.
         -1    1    6    6    0  503 -0.27613764732E+01  0.56745030854E+02 -0.85636209666E+02  0.10276762201E+03  0.00000000000E+00 0.  1.
<mgrwt>
<rscale>  0 0.58059524E+03</rscale>
<asrwt>0</asrwt>
<pdfrwt beam="1">  1        2 0.17059882E+00 0.58059524E+03</pdfrwt>
<pdfrwt beam="2">  1       -2 0.67683777E-01 0.58059524E+03</pdfrwt>
<totfact> 0.44553197E+01</totfact>
</mgrwt>
</event>
<event>
12    1  0.1338445E-007  0.4297636E+03  0.7818608E-02  0.1033935E+00
         -2   -1    0    0    0  501 -0.00000000000E+00  0.00000000000E+00  0.93374346049E+03  0.93374346049E+03  0.00000000000E+00 0.  1.
          2   -1    0    0  501    0  0.00000000000E+00 -0.00000000000E+00 -0.28422723665E+03  0.28422723665E+03  0.00000000000E+00 0. -1.
         23    2    1    2    0    0  0.69970475765E+01  0.22575425682E+03 -0.70970556143E+02  0.25353228204E+03  0.90707524776E+02 0.  0.
    5000000    2    1    2    0    0 -0.69970475765E+01 -0.22575425682E+03  0.72048677999E+03  0.96443841509E+03  0.60002192728E+03 0.  0.
         23    2    4    4    0    0  0.18121689913E+03 -0.34092181818E+03  0.51008171737E+03  0.64600198245E+03  0.89821780729E+02 0.  0.
         23    2    4    4    0    0 -0.18821394670E+03  0.11516756136E+03  0.21040506261E+03  0.31843643264E+03  0.91888053281E+02 0.  0.
          4    1    3    3  502    0  0.25630710788E+02  0.20390036047E+03 -0.83982020965E+02  0.22200286075E+03  0.00000000000E+00 0. -1.
         -4    1    3    3    0  502 -0.18633663211E+02  0.21853896356E+02  0.13011464822E+02  0.31529421298E+02  0.00000000000E+00 0.  1.
         13    1    5    5    0    0  0.10460450187E+03 -0.18057958750E+03  0.34637597472E+03  0.40438521869E+03  0.00000000000E+00 0. -1.
        -13    1    5    5    0    0  0.76612397255E+02 -0.16034223068E+03  0.16370574266E+03  0.24161676376E+03  0.00000000000E+00 0.  1.
          4    1    6    6  503    0 -0.39543382495E+02  0.75194492475E+02  0.70160758024E+02  0.11018358664E+03  0.00000000000E+00 0. -1.
         -4    1    6    6    0  503 -0.14867056421E+03  0.39973068880E+02  0.14024430459E+03  0.20825284600E+03  0.00000000000E+00 0.  1.
<mgrwt>
<rscale>  0 0.42976360E+03</rscale>
<asrwt>0</asrwt>
<pdfrwt beam="1">  1        2 0.43727268E-01 0.42976360E+03</pdfrwt>
<pdfrwt beam="2">  1       -2 0.14365284E+00 0.42976360E+03</pdfrwt>
<totfact> 0.40637639E+01</totfact>
</mgrwt>
</event>
<event>
12    1  0.1338445E-007  0.1109660E+04  0.7818608E-02  0.9195828E-01
         -2   -1    0    0    0  501 -0.00000000000E+00  0.00000000000E+00  0.12781811943E+04  0.12781811943E+04  0.00000000000E+00 0.  1.
          2   -1    0    0  501    0  0.00000000000E+00 -0.00000000000E+00 -0.13523482500E+04  0.13523482500E+04  0.00000000000E+00 0. -1.
         23    2    1    2    0    0 -0.49373217416E+03 -0.98898084116E+03 -0.60747562918E+03  0.12643962723E+04  0.88412269041E+02 0.  0.
    5000000    2    1    2    0    0  0.49373217416E+03  0.98898084116E+03  0.53330857342E+03  0.13661331720E+04  0.60003936965E+03 0.  0.
         23    2    4    4    0    0  0.22942577222E+03  0.41506976892E+03  0.54434170574E+03  0.72777330630E+03  0.91798664053E+02 0.  0.
         23    2    4    4    0    0  0.26430640194E+03  0.57391107225E+03 -0.11033132321E+02  0.63835986569E+03  0.90276215923E+02 0.  0.
          4    1    3    3  502    0 -0.42016505050E+03 -0.77176679648E+03 -0.46149105313E+03  0.99254050291E+03  0.00000000000E+00 0. -1.
         -4    1    3    3    0  502 -0.73567123665E+02 -0.21721404468E+03 -0.14598457606E+03  0.27185576937E+03  0.00000000000E+00 0.  1.
         13    1    5    5    0    0  0.19455166448E+03  0.39090522320E+03  0.46548290468E+03  0.63822533499E+03  0.00000000000E+00 0.  1.
        -13    1    5    5    0    0  0.34874107743E+02  0.24164545723E+02  0.78858801059E+02  0.89547971307E+02  0.00000000000E+00 0. -1.
          4    1    6    6  503    0  0.14805741031E+02  0.45176779428E+02 -0.24658407921E+02  0.53555470758E+02  0.00000000000E+00 0. -1.
         -4    1    6    6    0  503  0.24950066091E+03  0.52873429282E+03  0.13625275599E+02  0.58480439493E+03  0.00000000000E+00 0.  1.
<mgrwt>
<rscale>  0 0.11096598E+04</rscale>
<asrwt>0</asrwt>
<pdfrwt beam="1">  1        2 0.20805358E+00 0.11096598E+04</pdfrwt>
<pdfrwt beam="2">  1       -2 0.19664326E+00 0.11096598E+04</pdfrwt>
<totfact> 0.21137979E+00</totfact>
</mgrwt>
</event>
<event>
12    1  0.1338445E-007  0.1596059E+04  0.7818608E-02  0.8822972E-01
          2   -1    0    0  501    0  0.00000000000E+00  0.00000000000E+00  0.53218873116E+04  0.53218873116E+04  0.00000000000E+00 0.  1.
         -2   -1    0    0    0  501 -0.00000000000E+00 -0.00000000000E+00 -0.72339833357E+03  0.72339833357E+03  0.00000000000E+00 0. -1.
         23    2    1    2    0    0  0.88924816097E+03  0.12927824881E+04  0.55579976841E+03  0.16674621984E+04  0.97303377767E+02 0.  0.
    5000000    2    1    2    0    0 -0.88924816097E+03 -0.12927824881E+04  0.40426892096E+04  0.43778234467E+04  0.59996102549E+03 0.  0.
         23    2    4    4    0    0 -0.65381248837E+03 -0.11835008053E+04  0.28764137596E+04  0.31796529742E+04  0.91060383859E+02 0.  0.
         23    2    4    4    0    0 -0.23543567259E+03 -0.10928168279E+03  0.11662754499E+04  0.11981704725E+04  0.89675046679E+02 0.  0.
          2    1    3    3  502    0  0.44860550226E+03  0.73608368435E+03  0.31447441562E+03  0.91758391720E+03  0.00000000000E+00 0. -1.
         -2    1    3    3    0  502  0.44064265870E+03  0.55669880373E+03  0.24132535279E+03  0.74987828122E+03  0.00000000000E+00 0.  1.
         13    1    5    5    0    0 -0.58812494507E+03 -0.10380842177E+04  0.24709324800E+04  0.27439054493E+04  0.00000000000E+00 0. -1.
        -13    1    5    5    0    0 -0.65687543305E+02 -0.14541658760E+03  0.40548127966E+03  0.43574752490E+03  0.00000000000E+00 0.  1.
          4    1    6    6  503    0 -0.69437751427E+02 -0.66226718482E+02  0.55768176502E+03  0.56587678041E+03  0.00000000000E+00 0.  1.
         -4    1    6    6    0  503 -0.16599792116E+03 -0.43054964304E+02  0.60859368489E+03  0.63229369210E+03  0.00000000000E+00 0. -1.
<mgrwt>
<rscale>  0 0.15960595E+04</rscale>
<asrwt>0</asrwt>
<pdfrwt beam="1">  1        2 0.81875187E+00 0.15960595E+04</pdfrwt>
<pdfrwt beam="2">  1       -2 0.11129205E+00 0.15960595E+04</pdfrwt>
<totfact> 0.76127650E-03</totfact>
</mgrwt>
</event>
<event>
12    1  0.1338445E-007  0.5626395E+03  0.7818608E-02  0.9986100E-01
          2   -1    0    0  501    0  0.00000000000E+00  0.00000000000E+00  0.91514354140E+03  0.91514354140E+03  0.00000000000E+00 0. -1.
         -2   -1    0    0    0  501 -0.00000000000E+00 -0.00000000000E+00 -0.46819569729E+03  0.46819569729E+03  0.00000000000E+00 0.  1.
         23    2    1    2    0    0 -0.42829647420E+03  0.27390863224E+02  0.47174890308E+03  0.64523635861E+03  0.97953058716E+02 0.  0.
    5000000    2    1    2    0    0  0.42829647420E+03 -0.27390863224E+02 -0.24801058965E+02  0.73810288008E+03  0.59999386651E+03 0.  0.
         23    2    4    4    0    0  0.92595058500E+02 -0.25104291148E+03 -0.13260511420E+03  0.31184695564E+03  0.89822152980E+02 0.  0.
         23    2    4    4    0    0  0.33570141570E+03  0.22365204825E+03  0.10780405524E+03  0.42625592444E+03  0.85771321533E+02 0.  0.
          1    1    3    3  502    0 -0.29711843764E+03  0.42341900370E+02  0.26749638135E+03  0.40202800468E+03  0.00000000000E+00 0. -1.
         -1    1    3    3    0  502 -0.13117803657E+03 -0.14951037146E+02  0.20425252172E+03  0.24320835393E+03  0.00000000000E+00 0.  1.
         13    1    5    5    0    0  0.63246676519E+02 -0.58859833852E+02 -0.55590352809E+02  0.10273708900E+03  0.00000000000E+00 0.  1.
        -13    1    5    5    0    0  0.29348381981E+02 -0.19218307763E+03 -0.77014761396E+02  0.20910986663E+03  0.00000000000E+00 0. -1.
          1    1    6    6  503    0  0.13923663824E+03  0.14405254470E+03  0.56475353838E+02  0.20815245051E+03  0.00000000000E+00 0. -1.
         -1    1    6    6    0  503  0.19646477747E+03  0.79599503554E+02  0.51328701402E+02  0.21810347393E+03  0.00000000000E+00 0.  1.
<mgrwt>
<rscale>  0 0.56263948E+03</rscale>
<asrwt>0</asrwt>
<pdfrwt beam="1">  1        2 0.14079131E+00 0.56263948E+03</pdfrwt>
<pdfrwt beam="2">  1       -2 0.72030107E-01 0.56263948E+03</pdfrwt>
<totfact> 0.51653290E+01</totfact>
</mgrwt>
</event>
<event>
12    1  0.1338445E-007  0.1098740E+04  0.7818608E-02  0.9206420E-01
          1   -1    0    0  501    0  0.00000000000E+00  0.00000000000E+00  0.19091289118E+04  0.19091289118E+04  0.00000000000E+00 0.  1.
         -1   -1    0    0    0  501 -0.00000000000E+00 -0.00000000000E+00 -0.66268347164E+03  0.66268347164E+03  0.00000000000E+00 0. -1.
         23    2    1    2    0    0  0.40801719287E+03  0.94888931944E+03  0.74282286081E+03  0.12754290075E+04  0.89801895730E+02 0.  0.
    5000000    2    1    2    0    0 -0.40801719287E+03 -0.94888931944E+03  0.50362257931E+03  0.12963833759E+04  0.60008764746E+03 0.  0.
         23    2    4    4    0    0 -0.25645462160E+02  0.52573755803E+02  0.10302801976E+03  0.14831247321E+03  0.89219545646E+02 0.  0.
         23    2    4    4    0    0 -0.38237173071E+03 -0.10014630752E+04  0.40059455955E+03  0.11480709027E+04  0.91947620355E+02 0.  0.
          1    1    3    3  502    0  0.73041233322E+02  0.20770047129E+03  0.11818668209E+03  0.24988517235E+03  0.00000000000E+00 0. -1.
         -1    1    3    3    0  502  0.33497595955E+03  0.74118884815E+03  0.62463617872E+03  0.10255438352E+04  0.00000000000E+00 0.  1.
         11    1    5    5    0    0 -0.21523070800E+02 -0.11103938631E+02  0.74641760373E+02  0.78472494681E+02  0.00000000000E+00 0. -1.
        -11    1    5    5    0    0 -0.41223913595E+01  0.63677694434E+02  0.28386259386E+02  0.69839978529E+02  0.00000000000E+00 0.  1.
          3    1    6    6  503    0 -0.10363060516E+03 -0.17134853383E+03  0.75284772778E+02  0.21393321244E+03  0.00000000000E+00 0. -1.
         -3    1    6    6    0  503 -0.27874112555E+03 -0.83011454141E+03  0.32530978677E+03  0.93413769023E+03  0.00000000000E+00 0.  1.
<mgrwt>
<rscale>  0 0.10987404E+04</rscale>
<asrwt>0</asrwt>
<pdfrwt beam="1">  1        1 0.29371214E+00 0.10987404E+04</pdfrwt>
<pdfrwt beam="2">  1       -1 0.10195130E+00 0.10987404E+04</pdfrwt>
<totfact> 0.31225689E+00</totfact>
</mgrwt>
</event>
<event>
12    1  0.1338445E-007  0.5543796E+03  0.7818608E-02  0.1000485E+00
          2   -1    0    0  501    0  0.00000000000E+00  0.00000000000E+00  0.60170535363E+03  0.60170535363E+03  0.00000000000E+00 0.  1.
         -2   -1    0    0    0  501 -0.00000000000E+00 -0.00000000000E+00 -0.70082872208E+03  0.70082872208E+03  0.00000000000E+00 0. -1.
         23    2    1    2    0    0  0.36484512032E+03  0.24754305685E+03 -0.28841862615E+03  0.53426046118E+03  0.88653311537E+02 0.  0.
    5000000    2    1    2    0    0 -0.36484512032E+03 -0.24754305685E+03  0.18929525771E+03  0.76827361453E+03  0.60001843753E+03 0.  0.
         23    2    4    4    0    0  0.43361398200E+02 -0.24009635256E+03 -0.76153358272E+02  0.27271333856E+03  0.95114466218E+02 0.  0.
         23    2    4    4    0    0 -0.40820651852E+03 -0.74467042903E+01  0.26544861598E+03  0.49556027598E+03  0.91809608592E+02 0.  0.
          1    1    3    3  502    0  0.12722846974E+03  0.64022741906E+02 -0.13853900865E+03  0.19869336152E+03  0.00000000000E+00 0. -1.
         -1    1    3    3    0  502  0.23761665058E+03  0.18352031494E+03 -0.14987961751E+03  0.33556709966E+03  0.00000000000E+00 0.  1.
         11    1    5    5    0    0 -0.21321112249E+02 -0.11505493963E+03 -0.10824699361E+02  0.11751341658E+03  0.00000000000E+00 0. -1.
        -11    1    5    5    0    0  0.64682510448E+02 -0.12504141293E+03 -0.65328658910E+02  0.15519992197E+03  0.00000000000E+00 0.  1.
          2    1    6    6  503    0 -0.19187603355E+03 -0.12062496207E+01  0.70930216396E+02  0.20457019061E+03  0.00000000000E+00 0.  1.
         -2    1    6    6    0  503 -0.21633048497E+03 -0.62404546696E+01  0.19451839959E+03  0.29099008537E+03  0.00000000000E+00 0. -1.
<mgrwt>
<rscale>  0 0.55437958E+03</rscale>
<asrwt>0</asrwt>
<pdfrwt beam="1">  1        2 0.92570055E-01 0.55437958E+03</pdfrwt>
<pdfrwt beam="2">  1       -2 0.10781980E+00 0.55437958E+03</pdfrwt>
<totfact> 0.35134501E+01</totfact>
</mgrwt>
</event>
<event>
12    1  0.1338445E-007  0.7634475E+03  0.7818608E-02  0.9614486E-01
          2   -1    0    0  501    0  0.00000000000E+00  0.00000000000E+00  0.84213241651E+03  0.84213241651E+03  0.00000000000E+00 0. -1.
         -2   -1    0    0    0  501 -0.00000000000E+00 -0.00000000000E+00 -0.10077422424E+04  0.10077422424E+04  0.00000000000E+00 0.  1.
         23    2    1    2    0    0 -0.69415690992E+03 -0.14026522634E+03  0.34238041316E+03  0.79174641328E+03  0.90054907280E+02 0.  0.
    5000000    2    1    2    0    0  0.69415690992E+03  0.14026522634E+03 -0.50799023901E+03  0.10581282456E+04  0.60004429159E+03 0.  0.
         23    2    4    4    0    0  0.58501913811E+03  0.26441506797E+03 -0.16922989714E+03  0.67014070079E+03  0.91033403999E+02 0.  0.
         23    2    4    4    0    0  0.10913777181E+03 -0.12414984163E+03 -0.33876034187E+03  0.38798754480E+03  0.91932199381E+02 0.  0.
          4    1    3    3  502    0 -0.34583082281E+03 -0.48899619739E+02  0.21302641048E+03  0.40910925482E+03  0.00000000000E+00 0. -1.
         -4    1    3    3    0  502 -0.34832608711E+03 -0.91365606599E+02  0.12935400268E+03  0.38263715847E+03  0.00000000000E+00 0.  1.
         13    1    5    5    0    0  0.32545664514E+03  0.15647414354E+03 -0.14079458780E+03  0.38759424843E+03  0.00000000000E+00 0. -1.
        -13    1    5    5    0    0  0.25956249297E+03  0.10794092443E+03 -0.28435309343E+02  0.28254645236E+03  0.00000000000E+00 0.  1.
          3    1    6    6  503    0  0.35145899568E+02 -0.84101961685E+02 -0.10236035223E+03  0.13706208784E+03  0.00000000000E+00 0. -1.
         -3    1    6    6    0  503  0.73991872243E+02 -0.40047879944E+02 -0.23639998964E+03  0.25092545695E+03  0.00000000000E+00 0.  1.
<mgrwt>
<rscale>  0 0.76344750E+03</rscale>
<asrwt>0</asrwt>
<pdfrwt beam="1">  1        2 0.12955883E+00 0.76344750E+03</pdfrwt>
<pdfrwt beam="2">  1       -2 0.15503727E+00 0.76344750E+03</pdfrwt>
<totfact> 0.89544841E+00</totfact>
</mgrwt>
</event>
<event>
12    1  0.1338445E-007  0.1827388E+04  0.7818608E-02  0.8691869E-01
          2   -1    0    0  501    0  0.00000000000E+00  0.00000000000E+00  0.24839392187E+04  0.24839392187E+04  0.00000000000E+00 0. -1.
         -2   -1    0    0    0  501 -0.00000000000E+00 -0.00000000000E+00 -0.14432036880E+04  0.14432036880E+04  0.00000000000E+00 0.  1.
         23    2    1    2    0    0 -0.18094834662E+04 -0.54081607452E+01  0.13584299727E+03  0.18168759990E+04  0.91243701912E+02 0.  0.
    5000000    2    1    2    0    0  0.18094834662E+04  0.54081607452E+01  0.90489253337E+03  0.21102669078E+04  0.60011354122E+03 0.  0.
         23    2    4    4    0    0  0.10182001753E+03 -0.23659187038E+02  0.22766177239E+03  0.27011926064E+03  0.10103197148E+03 0.  0.
         23    2    4    4    0    0  0.17076634487E+04  0.29067347783E+02  0.67723076098E+03  0.18401476471E+04  0.10267665219E+03 0.  0.
          2    1    3    3  502    0 -0.10069587855E+04 -0.86159956096E+01  0.12068563794E+03  0.10142017819E+04  0.00000000000E+00 0. -1.
         -2    1    3    3    0  502 -0.80252468067E+03  0.32078348644E+01  0.15157359322E+02  0.80267421712E+03  0.00000000000E+00 0.  1.
         11    1    5    5    0    0  0.43666283540E+02  0.32061557567E+02  0.14463297375E+03  0.15444541071E+03  0.00000000000E+00 0. -1.
        -11    1    5    5    0    0  0.58153733986E+02 -0.55720744605E+02  0.83028798637E+02  0.11567384994E+03  0.00000000000E+00 0.  1.
          1    1    6    6  503    0  0.10203217620E+04  0.63831019182E+02  0.42558826767E+03  0.11073645608E+04  0.00000000000E+00 0. -1.
         -1    1    6    6    0  503  0.68734168667E+03 -0.34763671398E+02  0.25164249331E+03  0.73278308627E+03  0.00000000000E+00 0.  1.
<mgrwt>
<rscale>  0 0.18273880E+04</rscale>
<asrwt>0</asrwt>
<pdfrwt beam="1">  1        2 0.38214449E+00 0.18273880E+04</pdfrwt>
<pdfrwt beam="2">  1       -2 0.22203134E+00 0.18273880E+04</pdfrwt>
<totfact> 0.30949534E-01</totfact>
</mgrwt>
</event>
<event>
12    1  0.1338445E-007  0.6057549E+03  0.7818608E-02  0.9893538E-01
          2   -1    0    0  501    0  0.00000000000E+00  0.00000000000E+00  0.94674302764E+03  0.94674302764E+03  0.00000000000E+00 0. -1.
         -2   -1    0    0    0  501 -0.00000000000E+00 -0.00000000000E+00 -0.53494807793E+03  0.53494807793E+03  0.00000000000E+00 0.  1.
         23    2    1    2    0    0  0.45134473200E+03 -0.17910080302E+03  0.50230893635E+03  0.70460122545E+03  0.91430053166E+02 0.  0.
    5000000    2    1    2    0    0 -0.45134473200E+03  0.17910080302E+03 -0.90513986640E+02  0.77708988012E+03  0.59990560529E+03 0.  0.
         23    2    4    4    0    0 -0.36089783866E+03 -0.13012875050E+03  0.78703230630E+02  0.40167091587E+03  0.89244520776E+02 0.  0.
         23    2    4    4    0    0 -0.90446893344E+02  0.30922955352E+03 -0.16921721727E+03  0.37541896425E+03  0.92202900224E+02 0.  0.
          3    1    3    3  502    0  0.13935219435E+02 -0.26762638703E+02  0.21976377132E+02  0.37328143845E+02  0.00000000000E+00 0.  1.
         -3    1    3    3    0  502  0.43740951257E+03 -0.15233816432E+03  0.48033255922E+03  0.66727308161E+03  0.00000000000E+00 0. -1.
         11    1    5    5    0    0 -0.96388904576E+02  0.39550208893E+01  0.30846719678E+02  0.10128170235E+03  0.00000000000E+00 0. -1.
        -11    1    5    5    0    0 -0.26450893408E+03 -0.13408377139E+03  0.47856510952E+02  0.30038921352E+03  0.00000000000E+00 0.  1.
          2    1    6    6  503    0 -0.56953369863E+02  0.11835950444E+03 -0.24634734129E+02  0.13363954787E+03  0.00000000000E+00 0.  1.
         -2    1    6    6    0  503 -0.33493523482E+02  0.19087004908E+03 -0.14458248314E+03  0.24177941637E+03  0.00000000000E+00 0. -1.
<mgrwt>
<rscale>  0 0.60575495E+03</rscale>
<asrwt>0</asrwt>
<pdfrwt beam="1">  1        2 0.14565277E+00 0.60575495E+03</pdfrwt>
<pdfrwt beam="2">  1       -2 0.82299704E-01 0.60575495E+03</pdfrwt>
<totfact> 0.36449688E+01</totfact>
</mgrwt>
</event>
<event>
12    1  0.1338445E-007  0.6041704E+03  0.7818608E-02  0.9896791E-01
          2   -1    0    0  501    0  0.00000000000E+00  0.00000000000E+00  0.16479739158E+04  0.16479739158E+04  0.00000000000E+00 0. -1.
         -2   -1    0    0    0  501 -0.00000000000E+00 -0.00000000000E+00 -0.39711776491E+03  0.39711776491E+03  0.00000000000E+00 0.  1.
         23    2    1    2    0    0 -0.10821631094E+03 -0.45201057915E+03  0.11932100949E+04  0.12839091858E+04  0.92995339383E+02 0.  0.
    5000000    2    1    2    0    0  0.10821631094E+03  0.45201057915E+03  0.57646055987E+02  0.76118249493E+03  0.60004282280E+03 0.  0.
         23    2    4    4    0    0  0.32330638045E+03  0.17121537693E+03  0.10960100791E+03  0.39303996794E+03  0.92877955028E+02 0.  0.
         23    2    4    4    0    0 -0.21509006951E+03  0.28079520222E+03 -0.51954951927E+02  0.36814252698E+03  0.87863072745E+02 0.  0.
          2    1    3    3  502    0 -0.93025982966E+02 -0.26622012759E+03  0.81171024459E+03  0.85930233970E+03  0.00000000000E+00 0. -1.
         -2    1    3    3    0  502 -0.15190327973E+02 -0.18579045156E+03  0.38149985036E+03  0.42460684613E+03  0.00000000000E+00 0.  1.
         11    1    5    5    0    0  0.20487649832E+03  0.56892096089E+02  0.68322838586E+02  0.22333629448E+03  0.00000000000E+00 0. -1.
        -11    1    5    5    0    0  0.11842988213E+03  0.11432328084E+03  0.41278169327E+02  0.16970367346E+03  0.00000000000E+00 0.  1.
          2    1    6    6  503    0 -0.13491452586E+03  0.11022950491E+03 -0.68676840488E+01  0.17435491999E+03  0.00000000000E+00 0. -1.
         -2    1    6    6    0  503 -0.80175543645E+02  0.17056569732E+03 -0.45087267878E+02  0.19378760699E+03  0.00000000000E+00 0.  1.
<mgrwt>
<rscale>  0 0.60417041E+03</rscale>
<asrwt>0</asrwt>
<pdfrwt beam="1">  1        2 0.25353445E+00 0.60417041E+03</pdfrwt>
<pdfrwt beam="2">  1       -2 0.61095041E-01 0.60417041E+03</pdfrwt>
<totfact> 0.27349291E+01</totfact>
</mgrwt>
</event>
<event>
12    1  0.1338445E-007  0.7103128E+03  0.7818608E-02  0.9699757E-01
          1   -1    0    0  501    0  0.00000000000E+00  0.00000000000E+00  0.94644596255E+03  0.94644596255E+03  0.00000000000E+00 0. -1.
         -1   -1    0    0    0  501 -0.00000000000E+00 -0.00000000000E+00 -0.65641109467E+03  0.65641109467E+03  0.00000000000E+00 0.  1.
         23    2    1    2    0    0 -0.60726262071E+03 -0.28284075524E+03  0.15182146059E+03  0.69323155912E+03  0.93559902392E+02 0.  0.
    5000000    2    1    2    0    0  0.60726262071E+03  0.28284075524E+03  0.13821340729E+03  0.90962549810E+03  0.59962389671E+03 0.  0.
         23    2    4    4    0    0  0.26026265757E+03 -0.37372257535E+02 -0.18140530314E+03  0.33226111789E+03  0.91412416526E+02 0.  0.
         23    2    4    4    0    0  0.34699996314E+03  0.32021301277E+03  0.31961871043E+03  0.57736438022E+03  0.90819378536E+02 0.  0.
          3    1    3    3  502    0 -0.32804599776E+03 -0.16334405802E+03  0.12960766956E+03  0.38870760984E+03  0.00000000000E+00 0.  1.
         -3    1    3    3    0  502 -0.27921662295E+03 -0.11949669721E+03  0.22213791029E+02  0.30452394928E+03  0.00000000000E+00 0. -1.
         11    1    5    5    0    0  0.10782575017E+03 -0.61005936609E+02 -0.87436289626E+02  0.15163515900E+03  0.00000000000E+00 0. -1.
        -11    1    5    5    0    0  0.15243690740E+03  0.23633679073E+02 -0.93969013513E+02  0.18062595889E+03  0.00000000000E+00 0.  1.
          1    1    6    6  503    0  0.37002844221E+02  0.38988493702E+02  0.75961832476E+02  0.93056504957E+02  0.00000000000E+00 0. -1.
         -1    1    6    6    0  503  0.30999711892E+03  0.28122451907E+03  0.24365687795E+03  0.48430787526E+03  0.00000000000E+00 0.  1.
<mgrwt>
<rscale>  0 0.71031283E+03</rscale>
<asrwt>0</asrwt>
<pdfrwt beam="1">  1        1 0.14560707E+00 0.71031283E+03</pdfrwt>
<pdfrwt beam="2">  1       -1 0.10098632E+00 0.71031283E+03</pdfrwt>
<totfact> 0.16091320E+01</totfact>
</mgrwt>
</event>
<event>
12    1  0.1338445E-007  0.1019796E+04  0.7818608E-02  0.9287095E-01
         -3   -1    0    0    0  501 -0.00000000000E+00  0.00000000000E+00  0.29037573595E+04  0.29037573595E+04  0.00000000000E+00 0.  1.
          3   -1    0    0  501    0  0.00000000000E+00 -0.00000000000E+00 -0.78500236540E+03  0.78500236540E+03  0.00000000000E+00 0. -1.
         23    2    1    2    0    0  0.15202402455E+03  0.92811303537E+03 -0.32740187093E+03  0.10002235292E+04  0.93541502888E+02 0.  0.
    5000000    2    1    2    0    0 -0.15202402455E+03 -0.92811303537E+03  0.24461568650E+04  0.26885361957E+04  0.60003196322E+03 0.  0.
         23    2    4    4    0    0  0.11822171881E+03 -0.23113101877E+02  0.52535787789E+03  0.54606820985E+03  0.87629901663E+02 0.  0.
         23    2    4    4    0    0 -0.27024574336E+03 -0.90499993350E+03  0.19207989871E+04  0.21424679858E+04  0.92966015630E+02 0.  0.
          2    1    3    3  502    0  0.12829178670E+03  0.52830371102E+03 -0.21064115617E+03  0.58303798357E+03  0.00000000000E+00 0. -1.
         -2    1    3    3    0  502  0.23732237851E+02  0.39980932435E+03 -0.11676071475E+03  0.41718554561E+03  0.00000000000E+00 0.  1.
         13    1    5    5    0    0  0.12372898362E+03 -0.39025694676E+02  0.42682901135E+03  0.44611082834E+03  0.00000000000E+00 0.  1.
        -13    1    5    5    0    0 -0.55072648140E+01  0.15912592799E+02  0.98528866546E+02  0.99957381509E+02  0.00000000000E+00 0. -1.
          4    1    6    6  503    0 -0.13791673040E+03 -0.30979622492E+03  0.70805263925E+03  0.78506895585E+03  0.00000000000E+00 0.  1.
         -4    1    6    6    0  503 -0.13232901296E+03 -0.59520370858E+03  0.12127463478E+04  0.13573990300E+04  0.00000000000E+00 0. -1.
<mgrwt>
<rscale>  0 0.10197960E+04</rscale>
<asrwt>0</asrwt>
<pdfrwt beam="1">  1        3 0.12076960E+00 0.10197960E+04</pdfrwt>
<pdfrwt beam="2">  1       -3 0.44673190E+00 0.10197960E+04</pdfrwt>
<totfact> 0.84220540E-03</totfact>
</mgrwt>
</event>
<event>
12    1  0.1338445E-007  0.8373384E+03  0.7818608E-02  0.9507490E-01
          2   -1    0    0  501    0  0.00000000000E+00  0.00000000000E+00  0.18484742460E+04  0.18484742460E+04  0.00000000000E+00 0. -1.
         -2   -1    0    0    0  501 -0.00000000000E+00 -0.00000000000E+00 -0.69120620630E+03  0.69120620630E+03  0.00000000000E+00 0.  1.
         23    2    1    2    0    0 -0.71305865271E+03  0.41229604594E+03  0.12676902576E+04  0.15146717393E+04  0.93547937980E+02 0.  0.
    5000000    2    1    2    0    0  0.71305865271E+03 -0.41229604594E+03 -0.11042221790E+03  0.10250087131E+04  0.60000760327E+03 0.  0.
         23    2    4    4    0    0  0.58633390181E+03 -0.38727930296E+03 -0.30767329155E+03  0.77244772250E+03  0.90774042323E+02 0.  0.
         23    2    4    4    0    0  0.12672475091E+03 -0.25016742983E+02  0.19725107366E+03  0.25256099058E+03  0.90521091360E+02 0.  0.
          1    1    3    3  502    0 -0.39361535127E+03  0.22651996639E+03  0.61312191910E+03  0.76299595518E+03  0.00000000000E+00 0. -1.
         -1    1    3    3    0  502 -0.31944330145E+03  0.18577607955E+03  0.65456833853E+03  0.75167578408E+03  0.00000000000E+00 0.  1.
         11    1    5    5    0    0  0.48053412188E+03 -0.31473918789E+03 -0.21154851132E+03  0.61214914140E+03  0.00000000000E+00 0.  1.
        -11    1    5    5    0    0  0.10579977993E+03 -0.72540115071E+02 -0.96124780236E+02  0.16029858110E+03  0.00000000000E+00 0. -1.
          4    1    6    6  503    0  0.14045450616E+02  0.22073441144E+02  0.76375894508E+02  0.80732823243E+02  0.00000000000E+00 0. -1.
         -4    1    6    6    0  503  0.11267930029E+03 -0.47090184127E+02  0.12087517915E+03  0.17182816733E+03  0.00000000000E+00 0.  1.
<mgrwt>
<rscale>  0 0.83733840E+03</rscale>
<asrwt>0</asrwt>
<pdfrwt beam="1">  1        2 0.28438065E+00 0.83733840E+03</pdfrwt>
<pdfrwt beam="2">  1       -2 0.10633942E+00 0.83733840E+03</pdfrwt>
<totfact> 0.58930033E+00</totfact>
</mgrwt>
</event>
<event>
12    1  0.1338445E-007  0.8162696E+03  0.7818608E-02  0.9536762E-01
         -1   -1    0    0    0  501 -0.00000000000E+00  0.00000000000E+00  0.16997503068E+04  0.16997503068E+04  0.00000000000E+00 0.  1.
          1   -1    0    0  501    0  0.00000000000E+00 -0.00000000000E+00 -0.54544642777E+03  0.54544642777E+03  0.00000000000E+00 0. -1.
         23    2    1    2    0    0 -0.51300284414E+03 -0.56626889781E+03  0.43221150955E+02  0.76912857263E+03  0.76539601626E+02 0.  0.
    5000000    2    1    2    0    0  0.51300284414E+03  0.56626889781E+03  0.11110827281E+04  0.14760681620E+04  0.60036656083E+03 0.  0.
         23    2    4    4    0    0  0.53570539765E+03  0.37323019895E+03  0.10712042486E+04  0.12579287056E+04  0.92871048480E+02 0.  0.
         23    2    4    4    0    0 -0.22702553516E+02  0.19303869886E+03  0.39878479477E+02  0.21813945635E+03  0.90637652766E+02 0.  0.
          3    1    3    3  502    0 -0.37088338170E+03 -0.45249306491E+03  0.47817310493E+02  0.58701869799E+03  0.00000000000E+00 0. -1.
         -3    1    3    3    0  502 -0.14211946243E+03 -0.11377583291E+03 -0.45961595381E+01  0.18210987463E+03  0.00000000000E+00 0.  1.
         13    1    5    5    0    0  0.17195706229E+03  0.69334597141E+02  0.30985387278E+03  0.36108993355E+03  0.00000000000E+00 0. -1.
        -13    1    5    5    0    0  0.36374833536E+03  0.30389560181E+03  0.76135037586E+03  0.89683877208E+03  0.00000000000E+00 0.  1.
          2    1    6    6  503    0 -0.75435099890E+01 -0.39056969331E+01 -0.11255531726E+02  0.14101276748E+02  0.00000000000E+00 0. -1.
         -2    1    6    6    0  503 -0.15159043527E+02  0.19694439579E+03  0.51134011203E+02  0.20403817961E+03  0.00000000000E+00 0.  1.
<mgrwt>
<rscale>  0 0.81626961E+03</rscale>
<asrwt>0</asrwt>
<pdfrwt beam="1">  1        1 0.83914836E-01 0.81626961E+03</pdfrwt>
<pdfrwt beam="2">  1       -1 0.26150004E+00 0.81626961E+03</pdfrwt>
<totfact> 0.23832851E+00</totfact>
</mgrwt>
</event>
<event>
12    1  0.1338445E-007  0.6460730E+03  0.7818608E-02  0.9814176E-01
          2   -1    0    0  501    0  0.00000000000E+00  0.00000000000E+00  0.37241785472E+04  0.37241785472E+04  0.00000000000E+00 0. -1.
         -2   -1    0    0    0  501 -0.00000000000E+00 -0.00000000000E+00 -0.17729527925E+03  0.17729527925E+03  0.00000000000E+00 0.  1.
         23    2    1    2    0    0 -0.50660092390E+03 -0.95443150038E+02  0.26677082678E+04  0.27185554626E+04  0.90124970780E+02 0.  0.
    5000000    2    1    2    0    0  0.50660092390E+03  0.95443150038E+02  0.87917500011E+03  0.11829183638E+04  0.60049419942E+03 0.  0.
         23    2    4    4    0    0  0.68567786971E+02 -0.21256360283E+03  0.20669782073E+03  0.31793377059E+03  0.92049262511E+02 0.  0.
         23    2    4    4    0    0  0.43803313693E+03  0.30800675286E+03  0.67247717938E+03  0.86498459319E+03  0.96081219811E+02 0.  0.
          4    1    3    3  502    0 -0.13049706813E+03 -0.10768329004E+02  0.50166670891E+03  0.51847365269E+03  0.00000000000E+00 0. -1.
         -4    1    3    3    0  502 -0.37610385578E+03 -0.84674821034E+02  0.21660415589E+04  0.22000818100E+04  0.00000000000E+00 0.  1.
         13    1    5    5    0    0  0.16231105115E+02 -0.11106219031E+01 -0.18390063900E+01  0.16372666208E+02  0.00000000000E+00 0. -1.
        -13    1    5    5    0    0  0.52336681856E+02 -0.21145298092E+03  0.20853682712E+03  0.30156110438E+03  0.00000000000E+00 0.  1.
          3    1    6    6  503    0  0.35410296214E+03  0.20665910567E+03  0.54274798412E+03  0.68020016761E+03  0.00000000000E+00 0. -1.
         -3    1    6    6    0  503  0.83930174798E+02  0.10134764719E+03  0.12972919526E+03  0.18478442558E+03  0.00000000000E+00 0.  1.
<mgrwt>
<rscale>  0 0.64607304E+03</rscale>
<asrwt>0</asrwt>
<pdfrwt beam="1">  1        2 0.57295049E+00 0.64607304E+03</pdfrwt>
<pdfrwt beam="2">  1       -2 0.27276200E-01 0.64607304E+03</pdfrwt>
<totfact> 0.76384421E+00</totfact>
</mgrwt>
</event>
<event>
12    1  0.1338445E-007  0.7663750E+03  0.7818608E-02  0.9610005E-01
          1   -1    0    0  501    0  0.00000000000E+00  0.00000000000E+00  0.26639405926E+04  0.26639405926E+04  0.00000000000E+00 0. -1.
         -1   -1    0    0    0  501 -0.00000000000E+00 -0.00000000000E+00 -0.23777383907E+03  0.23777383907E+03  0.00000000000E+00 0.  1.
         23    2    1    2    0    0  0.35449124420E+03 -0.56847047157E+03  0.84179415234E+03  0.10798531765E+04  0.92966491324E+02 0.  0.
    5000000    2    1    2    0    0 -0.35449124420E+03  0.56847047157E+03  0.15843726012E+04  0.18218612552E+04  0.60009930396E+03 0.  0.
         23    2    4    4    0    0 -0.42357849183E+03  0.18333433691E+03  0.10752206011E+04  0.11736689541E+04  0.91483632002E+02 0.  0.
         23    2    4    4    0    0  0.69087247630E+02  0.38513613466E+03  0.50915200003E+03  0.64819230108E+03  0.88400283033E+02 0.  0.
          4    1    3    3  502    0  0.98217210176E+02 -0.17971580471E+03  0.19416993825E+03  0.28221685945E+03  0.00000000000E+00 0. -1.
         -4    1    3    3    0  502  0.25627403403E+03 -0.38875466686E+03  0.64762421409E+03  0.79763631700E+03  0.00000000000E+00 0.  1.
         13    1    5    5    0    0 -0.38859734305E+02 -0.67688604740E+01  0.12423740540E+03  0.13034887542E+03  0.00000000000E+00 0. -1.
        -13    1    5    5    0    0 -0.38471875753E+03  0.19010319738E+03  0.95098319574E+03  0.10433200787E+04  0.00000000000E+00 0.  1.
          4    1    6    6  503    0  0.65198385196E+02  0.24393205275E+03  0.38337401668E+03  0.45905262493E+03  0.00000000000E+00 0. -1.
         -4    1    6    6    0  503  0.38888624334E+01  0.14120408191E+03  0.12577798336E+03  0.18913967615E+03  0.00000000000E+00 0.  1.
<mgrwt>
<rscale>  0 0.76637500E+03</rscale>
<asrwt>0</asrwt>
<pdfrwt beam="1">  1        1 0.40983699E+00 0.76637500E+03</pdfrwt>
<pdfrwt beam="2">  1       -1 0.36580592E-01 0.76637500E+03</pdfrwt>
<totfact> 0.78682875E+00</totfact>
</mgrwt>
</event>
<event>
12    1  0.1338445E-007  0.3763133E+03  0.7818608E-02  0.1052305E+00
          2   -1    0    0  501    0  0.00000000000E+00  0.00000000000E+00  0.19658857978E+04  0.19658857978E+04  0.00000000000E+00 0. -1.
         -2   -1    0    0    0  501 -0.00000000000E+00 -0.00000000000E+00 -0.24418173342E+03  0.24418173342E+03  0.00000000000E+00 0.  1.
         23    2    1    2    0    0  0.74525196356E+02  0.26192453482E+03  0.14812335030E+04  0.15087535050E+04  0.90144226675E+02 0.  0.
    5000000    2    1    2    0    0 -0.74525196356E+02 -0.26192453482E+03  0.24047056140E+03  0.70131402624E+03  0.59988065952E+03 0.  0.
         23    2    4    4    0    0 -0.11885148911E+03 -0.33813521511E+03 -0.59896465610E+02  0.37544773785E+03  0.94405069252E+02 0.  0.
         23    2    4    4    0    0  0.44326292757E+02  0.76210680284E+02  0.30036702701E+03  0.32586628839E+03  0.90529547547E+02 0.  0.
          4    1    3    3  502    0  0.90198989147E+02  0.16900244254E+03  0.93028784783E+03  0.94980690830E+03  0.00000000000E+00 0. -1.
         -4    1    3    3    0  502 -0.15673792791E+02  0.92922092282E+02  0.55094565512E+03  0.55894659666E+03  0.00000000000E+00 0.  1.
         11    1    5    5    0    0 -0.83652410925E+02 -0.18809884168E+03  0.10267136412E+02  0.20611723408E+03  0.00000000000E+00 0.  1.
        -11    1    5    5    0    0 -0.35199078187E+02 -0.15003637343E+03 -0.70163602022E+02  0.16933050377E+03  0.00000000000E+00 0. -1.
          3    1    6    6  503    0  0.57525775801E+02  0.45226353049E+02  0.10725457677E+03  0.12983906242E+03  0.00000000000E+00 0. -1.
         -3    1    6    6    0  503 -0.13199483044E+02  0.30984327234E+02  0.19311245024E+03  0.19602722597E+03  0.00000000000E+00 0.  1.
<mgrwt>
<rscale>  0 0.37631328E+03</rscale>
<asrwt>0</asrwt>
<pdfrwt beam="1">  1        2 0.30244396E+00 0.37631328E+03</pdfrwt>
<pdfrwt beam="2">  1       -2 0.37566422E-01 0.37631328E+03</pdfrwt>
<totfact> 0.51127244E+01</totfact>
</mgrwt>
</event>
<event>
12    1  0.1338445E-007  0.4046413E+03  0.7818608E-02  0.1042184E+00
         -1   -1    0    0    0  501 -0.00000000000E+00  0.00000000000E+00  0.17362718119E+03  0.17362718119E+03  0.00000000000E+00 0.  1.
          1   -1    0    0  501    0  0.00000000000E+00 -0.00000000000E+00 -0.15941614179E+04  0.15941614179E+04  0.00000000000E+00 0. -1.
         23    2    1    2    0    0  0.11584028375E+03 -0.18363121513E+03 -0.29357781018E+02  0.23727324399E+03  0.91089617952E+02 0.  0.
    5000000    2    1    2    0    0 -0.11584028375E+03  0.18363121513E+03 -0.13911764557E+04  0.15305153552E+04  0.59997160503E+03 0.  0.
         23    2    4    4    0    0  0.48993411944E+02  0.34009997609E+03 -0.55279849390E+03  0.65719618265E+03  0.90842167979E+02 0.  0.
         23    2    4    4    0    0 -0.16483369569E+03 -0.15646876096E+03 -0.83837796184E+03  0.87331917250E+03  0.90311404432E+02 0.  0.
          3    1    3    3  502    0  0.87849300901E+02 -0.13795882912E+03  0.19573367704E+02  0.16472175000E+03  0.00000000000E+00 0. -1.
         -3    1    3    3    0  502  0.27990982850E+02 -0.45672386012E+02 -0.48931148723E+02  0.72551493991E+02  0.00000000000E+00 0.  1.
         11    1    5    5    0    0  0.11729967679E+02  0.26152423747E+03 -0.46495259035E+03  0.53358544789E+03  0.00000000000E+00 0. -1.
        -11    1    5    5    0    0  0.37263444265E+02  0.78575738613E+02 -0.87845903550E+02  0.12361073476E+03  0.00000000000E+00 0.  1.
          2    1    6    6  503    0 -0.10925692008E+03 -0.15262437383E+03 -0.67995492338E+03  0.70538639900E+03  0.00000000000E+00 0. -1.
         -2    1    6    6    0  503 -0.55576775617E+02 -0.38443871336E+01 -0.15842303846E+03  0.16793277350E+03  0.00000000000E+00 0.  1.
<mgrwt>
<rscale>  0 0.40464130E+03</rscale>
<asrwt>0</asrwt>
<pdfrwt beam="1">  1        1 0.24525560E+00 0.40464130E+03</pdfrwt>
<pdfrwt beam="2">  1       -1 0.26711875E-01 0.40464130E+03</pdfrwt>
<totfact> 0.75673307E+01</totfact>
</mgrwt>
</event>
<event>
12    1  0.1338445E-007  0.1710753E+04  0.7818608E-02  0.8755255E-01
          2   -1    0    0  501    0  0.00000000000E+00  0.00000000000E+00  0.17257481699E+04  0.17257481699E+04  0.00000000000E+00 0. -1.
         -2   -1    0    0    0  501 -0.00000000000E+00 -0.00000000000E+00 -0.19129271018E+04  0.19129271018E+04  0.00000000000E+00 0.  1.
         23    2    1    2    0    0 -0.84103170707E+03 -0.14507047819E+04  0.46493559395E+03  0.17421113776E+04  0.83115875515E+02 0.  0.
    5000000    2    1    2    0    0  0.84103170707E+03  0.14507047819E+04 -0.65211452581E+03  0.18965638942E+04  0.59985210955E+03 0.  0.
         23    2    4    4    0    0  0.89006205070E+03  0.13629986796E+04 -0.66697030850E+03  0.17616221570E+04  0.92126962150E+02 0.  0.
         23    2    4    4    0    0 -0.49030343631E+02  0.87706102336E+02  0.14855782691E+02  0.13494173712E+03  0.88838297792E+02 0.  0.
          4    1    3    3  502    0 -0.26769481017E+03 -0.53208990108E+03  0.18406469369E+03  0.62342600658E+03  0.00000000000E+00 0. -1.
         -4    1    3    3    0  502 -0.57333689690E+03 -0.91861488082E+03  0.28087090026E+03  0.11186853710E+04  0.00000000000E+00 0.  1.
         13    1    5    5    0    0  0.43064969646E+03  0.69091315963E+03 -0.37966666945E+03  0.89831338357E+03  0.00000000000E+00 0.  1.
        -13    1    5    5    0    0  0.45941235424E+03  0.67208551993E+03 -0.28730363905E+03  0.86330877346E+03  0.00000000000E+00 0. -1.
          3    1    6    6  503    0 -0.53965556793E+02  0.40891517319E+02  0.42892660968E+02  0.80150969261E+02  0.00000000000E+00 0. -1.
         -3    1    6    6    0  503  0.49352131615E+01  0.46814585017E+02 -0.28036878277E+02  0.54790767861E+02  0.00000000000E+00 0.  1.
<mgrwt>
<rscale>  0 0.17107530E+04</rscale>
<asrwt>0</asrwt>
<pdfrwt beam="1">  1        2 0.26549972E+00 0.17107530E+04</pdfrwt>
<pdfrwt beam="2">  1       -2 0.29429648E+00 0.17107530E+04</pdfrwt>
<totfact> 0.30022820E-01</totfact>
</mgrwt>
</event>
<event>
12    1  0.1338445E-007  0.3953680E+03  0.7818608E-02  0.1045395E+00
         -3   -1    0    0    0  501 -0.00000000000E+00  0.00000000000E+00  0.30407973302E+03  0.30407973302E+03  0.00000000000E+00 0.  1.
          3   -1    0    0  501    0  0.00000000000E+00 -0.00000000000E+00 -0.62843750433E+03  0.62843750433E+03  0.00000000000E+00 0. -1.
         23    2    1    2    0    0 -0.19595101728E+03 -0.24308338458E+02 -0.18486063393E+03  0.28555358325E+03  0.91540692798E+02 0.  0.
    5000000    2    1    2    0    0  0.19595101728E+03  0.24308338458E+02 -0.13949713738E+03  0.64696365409E+03  0.60009567728E+03 0.  0.
         23    2    4    4    0    0  0.32174336739E+03  0.15772614934E+03  0.42626902050E+02  0.37298490497E+03  0.94362884172E+02 0.  0.
         23    2    4    4    0    0 -0.12579235011E+03 -0.13341781088E+03 -0.18212403943E+03  0.27397874913E+03  0.90945926945E+02 0.  0.
          1    1    3    3  502    0 -0.14183396747E+03  0.24213518780E+02 -0.10915732789E+03  0.18060589983E+03  0.00000000000E+00 0. -1.
         -1    1    3    3    0  502 -0.54117049803E+02 -0.48521857238E+02 -0.75703306046E+02  0.10494768342E+03  0.00000000000E+00 0.  1.
         11    1    5    5    0    0  0.13743318809E+03  0.11841902154E+03  0.96820291460E+01  0.18167192281E+03  0.00000000000E+00 0. -1.
        -11    1    5    5    0    0  0.18431017930E+03  0.39307127803E+02  0.32944872904E+02  0.19131298215E+03  0.00000000000E+00 0.  1.
          1    1    6    6  503    0 -0.43338324299E+02  0.45411909135E+01 -0.45940486278E+02  0.63319515534E+02  0.00000000000E+00 0. -1.
         -1    1    6    6    0  503 -0.82454025815E+02 -0.13795900180E+03 -0.13618355315E+03  0.21065923359E+03  0.00000000000E+00 0.  1.
<mgrwt>
<rscale>  0 0.39536804E+03</rscale>
<asrwt>0</asrwt>
<pdfrwt beam="1">  1        3 0.96682693E-01 0.39536804E+03</pdfrwt>
<pdfrwt beam="2">  1       -3 0.46781497E-01 0.39536804E+03</pdfrwt>
<totfact> 0.11170526E+01</totfact>
</mgrwt>
</event>
<event>
12    1  0.1338445E-007  0.5818360E+03  0.7818608E-02  0.9943824E-01
         -2   -1    0    0    0  501 -0.00000000000E+00  0.00000000000E+00  0.88468059411E+03  0.88468059411E+03  0.00000000000E+00 0.  1.
          2   -1    0    0  501    0  0.00000000000E+00 -0.00000000000E+00 -0.50425080059E+03  0.50425080059E+03  0.00000000000E+00 0. -1.
         23    2    1    2    0    0 -0.45522575557E+03  0.11010762147E+03  0.40684862499E+03  0.62731442319E+03  0.92969914710E+02 0.  0.
    5000000    2    1    2    0    0  0.45522575557E+03 -0.11010762147E+03 -0.26418831464E+02  0.76161697151E+03  0.60000689978E+03 0.  0.
         23    2    4    4    0    0 -0.10046988486E+03  0.43816714536E+02 -0.10023096870E+03  0.17297768064E+03  0.88661878372E+02 0.  0.
         23    2    4    4    0    0  0.55569564043E+03 -0.15392433601E+03  0.73812137239E+02  0.58863929087E+03  0.92507497758E+02 0.  0.
          3    1    3    3  502    0 -0.41280707912E+03  0.10884087738E+03  0.39862528255E+03  0.58408743956E+03  0.00000000000E+00 0. -1.
         -3    1    3    3    0  502 -0.42418676457E+02  0.12667440872E+01  0.82233424344E+01  0.43226983629E+02  0.00000000000E+00 0.  1.
         13    1    5    5    0    0 -0.56105038504E+02  0.12578639666E+02  0.16801547243E+01  0.57522347320E+02  0.00000000000E+00 0. -1.
        -13    1    5    5    0    0 -0.44364846353E+02  0.31238074870E+02 -0.10191112343E+03  0.11545533332E+03  0.00000000000E+00 0.  1.
          3    1    6    6  503    0  0.15708816472E+03 -0.53911272882E+01  0.17116080420E+01  0.15718996581E+03  0.00000000000E+00 0. -1.
         -3    1    6    6    0  503  0.39860747571E+03 -0.14853320872E+03  0.72100529197E+02  0.43144932506E+03  0.00000000000E+00 0.  1.
<mgrwt>
<rscale>  0 0.58183598E+03</rscale>
<asrwt>0</asrwt>
<pdfrwt beam="1">  1        2 0.77577047E-01 0.58183598E+03</pdfrwt>
<pdfrwt beam="2">  1       -2 0.13610471E+00 0.58183598E+03</pdfrwt>
<totfact> 0.24239372E+01</totfact>
</mgrwt>
</event>
<event>
12    1  0.1338445E-007  0.1153664E+04  0.7818608E-02  0.9154410E-01
          2   -1    0    0  501    0  0.00000000000E+00  0.00000000000E+00  0.11697410148E+04  0.11697410148E+04  0.00000000000E+00 0. -1.
         -2   -1    0    0    0  501 -0.00000000000E+00 -0.00000000000E+00 -0.21105154673E+04  0.21105154673E+04  0.00000000000E+00 0.  1.
         23    2    1    2    0    0  0.15080421407E+03  0.11059636496E+04 -0.15190199469E+04  0.18873028713E+04  0.92698564380E+02 0.  0.
    5000000    2    1    2    0    0 -0.15080421407E+03 -0.11059636496E+04  0.57824549435E+03  0.13929536108E+04  0.60004533578E+03 0.  0.
         23    2    4    4    0    0 -0.27292404530E+03 -0.73570339458E+03  0.60020882430E+03  0.99233841367E+03  0.93476602322E+02 0.  0.
         23    2    4    4    0    0  0.12211983122E+03 -0.37026025498E+03 -0.21963329950E+02  0.40061519713E+03  0.89466411104E+02 0.  0.
          4    1    3    3  502    0  0.54278934098E+02  0.66331065752E+03 -0.85614825056E+03  0.10843970942E+04  0.00000000000E+00 0. -1.
         -4    1    3    3    0  502  0.96525279976E+02  0.44265299204E+03 -0.66287169633E+03  0.80290577705E+03  0.00000000000E+00 0.  1.
         13    1    5    5    0    0 -0.13128238793E+03 -0.48106931604E+03  0.38970922784E+03  0.63287916262E+03  0.00000000000E+00 0.  1.
        -13    1    5    5    0    0 -0.14164165737E+03 -0.25463407854E+03  0.21049959645E+03  0.35945925104E+03  0.00000000000E+00 0. -1.
          2    1    6    6  503    0 -0.43596653494E+01 -0.10234016866E+03 -0.19823543178E+02  0.10433355006E+03  0.00000000000E+00 0. -1.
         -2    1    6    6    0  503  0.12647949657E+03 -0.26792008632E+03 -0.21397867723E+01  0.29628164708E+03  0.00000000000E+00 0.  1.
<mgrwt>
<rscale>  0 0.11536641E+04</rscale>
<asrwt>0</asrwt>
<pdfrwt beam="1">  1        2 0.17996016E+00 0.11536641E+04</pdfrwt>
<pdfrwt beam="2">  1       -2 0.32469468E+00 0.11536641E+04</pdfrwt>
<totfact> 0.43576913E-01</totfact>
</mgrwt>
</event>
<event>
12    1  0.1338445E-007  0.5435969E+03  0.7818608E-02  0.1002987E+00
         -2   -1    0    0    0  501 -0.00000000000E+00  0.00000000000E+00  0.83413251510E+03  0.83413251510E+03  0.00000000000E+00 0.  1.
          2   -1    0    0  501    0  0.00000000000E+00 -0.00000000000E+00 -0.60952480897E+03  0.60952480897E+03  0.00000000000E+00 0. -1.
         23    2    1    2    0    0 -0.43177653310E+03 -0.30552837519E+03  0.34018846654E+03  0.63539378488E+03  0.90655978874E+02 0.  0.
    5000000    2    1    2    0    0  0.43177653310E+03  0.30552837519E+03 -0.11558076041E+03  0.80826353919E+03  0.60012704824E+03 0.  0.
         23    2    4    4    0    0  0.41581534734E+03  0.26391685368E+03 -0.31165739964E+03  0.58977477817E+03  0.90274279121E+02 0.  0.
         23    2    4    4    0    0  0.15961185768E+02  0.41611521507E+02  0.19607663923E+03  0.21848876103E+03  0.85469363329E+02 0.  0.
          4    1    3    3  502    0 -0.25293256893E+03 -0.20476607771E+03  0.16178059490E+03  0.36342398365E+03  0.00000000000E+00 0. -1.
         -4    1    3    3    0  502 -0.17884396418E+03 -0.10076229748E+03  0.17840787164E+03  0.27196980123E+03  0.00000000000E+00 0.  1.
         11    1    5    5    0    0  0.16062387110E+03  0.11127235119E+03 -0.73381602018E+02  0.20872571385E+03  0.00000000000E+00 0.  1.
        -11    1    5    5    0    0  0.25519147623E+03  0.15264450250E+03 -0.23827579762E+03  0.38104906432E+03  0.00000000000E+00 0. -1.
          2    1    6    6  503    0  0.11402143543E+02 -0.79862849717E+01  0.14997785732E+03  0.15062253255E+03  0.00000000000E+00 0. -1.
         -2    1    6    6    0  503  0.45590422249E+01  0.49597806479E+02  0.46098781910E+02  0.67866228473E+02  0.00000000000E+00 0.  1.
<mgrwt>
<rscale>  0 0.54359690E+03</rscale>
<asrwt>0</asrwt>
<pdfrwt beam="1">  1        2 0.93773048E-01 0.54359690E+03</pdfrwt>
<pdfrwt beam="2">  1       -2 0.12832808E+00 0.54359690E+03</pdfrwt>
<totfact> 0.22601863E+01</totfact>
</mgrwt>
</event>
<event>
12    1  0.1338445E-007  0.4244624E+03  0.7818608E-02  0.1035624E+00
          1   -1    0    0  501    0  0.00000000000E+00  0.00000000000E+00  0.86144556920E+03  0.86144556920E+03  0.00000000000E+00 0. -1.
         -1   -1    0    0    0  501 -0.00000000000E+00 -0.00000000000E+00 -0.29834580160E+03  0.29834580160E+03  0.00000000000E+00 0.  1.
         23    2    1    2    0    0 -0.31804420989E+03 -0.34807296687E+02  0.17263583973E+03  0.37574829976E+03  0.94973597705E+02 0.  0.
    5000000    2    1    2    0    0  0.31804420989E+03  0.34807296687E+02  0.39046392787E+03  0.78404307104E+03  0.59991481973E+03 0.  0.
         23    2    4    4    0    0 -0.77321062451E+02 -0.42103284228E+02  0.34488534047E+03  0.36677961926E+03  0.88488178825E+02 0.  0.
         23    2    4    4    0    0  0.39536527234E+03  0.76910580914E+02  0.45578587404E+02  0.41726345178E+03  0.99007295350E+02 0.  0.
          3    1    3    3  502    0 -0.15735641716E+03 -0.11910980568E+02  0.13832795799E+03  0.20985122693E+03  0.00000000000E+00 0. -1.
         -3    1    3    3    0  502 -0.16068779273E+03 -0.22896316118E+02  0.34307881741E+02  0.16589707283E+03  0.00000000000E+00 0.  1.
         11    1    5    5    0    0 -0.36080565398E+02 -0.64788082562E+02  0.16610103523E+03  0.18190342697E+03  0.00000000000E+00 0.  1.
        -11    1    5    5    0    0 -0.41240497054E+02  0.22684798334E+02  0.17878430524E+03  0.18487619228E+03  0.00000000000E+00 0. -1.
          1    1    6    6  503    0  0.14140344292E+03  0.58264338820E+02  0.54780692738E+02  0.16245181177E+03  0.00000000000E+00 0. -1.
         -1    1    6    6    0  503  0.25396182942E+03  0.18646242094E+02 -0.92021053332E+01  0.25481164002E+03  0.00000000000E+00 0.  1.
<mgrwt>
<rscale>  0 0.42446237E+03</rscale>
<asrwt>0</asrwt>
<pdfrwt beam="1">  1        1 0.13253009E+00 0.42446237E+03</pdfrwt>
<pdfrwt beam="2">  1       -1 0.45899354E-01 0.42446237E+03</pdfrwt>
<totfact> 0.97408712E+01</totfact>
</mgrwt>
</event>
<event>
12    1  0.1338445E-007  0.2098750E+04  0.7818608E-02  0.8561794E-01
         -1   -1    0    0    0  501 -0.00000000000E+00  0.00000000000E+00  0.32634963364E+04  0.32634963364E+04  0.00000000000E+00 0.  1.
          1   -1    0    0  501    0  0.00000000000E+00 -0.00000000000E+00 -0.14303610458E+04  0.14303610458E+04  0.00000000000E+00 0. -1.
         23    2    1    2    0    0  0.20941375451E+04 -0.71457968151E+02  0.12330833022E+04  0.24331971080E+04  0.97136177856E+02 0.  0.
    5000000    2    1    2    0    0 -0.20941375451E+04  0.71457968151E+02  0.60005198835E+03  0.22606602742E+04  0.60000348968E+03 0.  0.
         23    2    4    4    0    0 -0.76447120032E+03  0.59218886227E+02  0.50896314448E+03  0.92473387509E+03  0.90366834009E+02 0.  0.
         23    2    4    4    0    0 -0.13296663448E+04  0.12239081924E+02  0.91088843867E+02  0.13359263991E+04  0.90773249400E+02 0.  0.
          1    1    3    3  502    0  0.15803091439E+04 -0.95398192333E+02  0.93672285836E+03  0.18395454653E+04  0.00000000000E+00 0. -1.
         -1    1    3    3    0  502  0.51382840121E+03  0.23940224181E+02  0.29636044386E+03  0.59365164272E+03  0.00000000000E+00 0.  1.
         13    1    5    5    0    0 -0.53741421722E+03  0.26698429255E+02  0.40190359439E+03  0.67160505223E+03  0.00000000000E+00 0. -1.
        -13    1    5    5    0    0 -0.22705698310E+03  0.32520456972E+02  0.10705955009E+03  0.25312882286E+03  0.00000000000E+00 0.  1.
          3    1    6    6  503    0 -0.55576549106E+03  0.47366054147E+02  0.53007906087E+02  0.56029337159E+03  0.00000000000E+00 0. -1.
         -3    1    6    6    0  503 -0.77390085374E+03 -0.35126972223E+02  0.38080937780E+02  0.77563302755E+03  0.00000000000E+00 0.  1.
<mgrwt>
<rscale>  0 0.20987504E+04</rscale>
<asrwt>0</asrwt>
<pdfrwt beam="1">  1        1 0.22005555E+00 0.20987504E+04</pdfrwt>
<pdfrwt beam="2">  1       -1 0.50207636E+00 0.20987504E+04</pdfrwt>
<totfact> 0.92753067E-03</totfact>
</mgrwt>
</event>
<event>
12    1  0.1338445E-007  0.9028914E+03  0.7818608E-02  0.9421974E-01
         -2   -1    0    0    0  501 -0.00000000000E+00  0.00000000000E+00  0.61906924521E+03  0.61906924521E+03  0.00000000000E+00 0.  1.
          2   -1    0    0  501    0  0.00000000000E+00 -0.00000000000E+00 -0.29040723338E+04  0.29040723338E+04  0.00000000000E+00 0. -1.
         23    2    1    2    0    0  0.12084030165E+03 -0.83763394574E+03 -0.23341477692E+04  0.24845279168E+04  0.91652360535E+02 0.  0.
    5000000    2    1    2    0    0 -0.12084030165E+03  0.83763394574E+03  0.49144680642E+02  0.10386136622E+04  0.60005844226E+03 0.  0.
         23    2    4    4    0    0 -0.77171470463E+01  0.80333269861E+03  0.18930383513E+03  0.83046208609E+03  0.91806075080E+02 0.  0.
         23    2    4    4    0    0 -0.11312315461E+03  0.34301247135E+02 -0.14015915449E+03  0.20815157612E+03  0.98534594904E+02 0.  0.
          3    1    3    3  502    0  0.18682279843E+02 -0.44173241376E+03 -0.12431598936E+04  0.13194404397E+04  0.00000000000E+00 0. -1.
         -3    1    3    3    0  502  0.10215802181E+03 -0.39590153198E+03 -0.10909878756E+04  0.11650874770E+04  0.00000000000E+00 0.  1.
         13    1    5    5    0    0 -0.39659097345E+02  0.59320076254E+03  0.11679540027E+03  0.60588873088E+03  0.00000000000E+00 0.  1.
        -13    1    5    5    0    0  0.31941950298E+02  0.21013193607E+03  0.72508434854E+02  0.22457335521E+03  0.00000000000E+00 0. -1.
          3    1    6    6  503    0 -0.75517295591E+01  0.41230622231E+02 -0.68711056169E+02  0.80487278925E+02  0.00000000000E+00 0. -1.
         -3    1    6    6    0  503 -0.10557142505E+03 -0.69293750959E+01 -0.71448098318E+02  0.12766429720E+03  0.00000000000E+00 0.  1.
<mgrwt>
<rscale>  0 0.90289136E+03</rscale>
<asrwt>0</asrwt>
<pdfrwt beam="1">  1        2 0.44678036E+00 0.90289136E+03</pdfrwt>
<pdfrwt beam="2">  1       -2 0.95241422E-01 0.90289136E+03</pdfrwt>
<totfact> 0.19131639E+00</totfact>
</mgrwt>
</event>
<event>
12    1  0.1338445E-007  0.7960412E+03  0.7818608E-02  0.9565765E-01
          2   -1    0    0  501    0  0.00000000000E+00  0.00000000000E+00  0.99365239441E+03  0.99365239441E+03  0.00000000000E+00 0. -1.
         -2   -1    0    0    0  501 -0.00000000000E+00 -0.00000000000E+00 -0.78507765178E+03  0.78507765178E+03  0.00000000000E+00 0.  1.
         23    2    1    2    0    0  0.30954263370E+03  0.64510790047E+03 -0.21609651052E+03  0.75291586826E+03  0.90574596266E+02 0.  0.
    5000000    2    1    2    0    0 -0.30954263370E+03 -0.64510790047E+03  0.42467125315E+03  0.10258141779E+04  0.59997350696E+03 0.  0.
         23    2    4    4    0    0 -0.44522438249E+03 -0.46390461104E+03  0.43545113320E+03  0.78187597073E+03  0.90995083841E+02 0.  0.
         23    2    4    4    0    0  0.13568174879E+03 -0.18120328943E+03 -0.10779880052E+02  0.24393820720E+03  0.90252280106E+02 0.  0.
          3    1    3    3  502    0  0.20290071335E+03  0.35431965925E+03 -0.87608632710E+02  0.41759596853E+03  0.00000000000E+00 0. -1.
         -3    1    3    3    0  502  0.10664192035E+03  0.29078824123E+03 -0.12848787781E+03  0.33531989973E+03  0.00000000000E+00 0.  1.
         11    1    5    5    0    0 -0.31466828627E+03 -0.27434070568E+03  0.30784518259E+03  0.51869799462E+03  0.00000000000E+00 0. -1.
        -11    1    5    5    0    0 -0.13055609622E+03 -0.18956390536E+03  0.12760595061E+03  0.26317797610E+03  0.00000000000E+00 0.  1.
          3    1    6    6  503    0  0.93278947657E+02 -0.12790843553E+03  0.34669699008E+02  0.16206022950E+03  0.00000000000E+00 0. -1.
         -3    1    6    6    0  503  0.42402801132E+02 -0.53294853898E+02 -0.45449579060E+02  0.81877977702E+02  0.00000000000E+00 0.  1.
<mgrwt>
<rscale>  0 0.79604119E+03</rscale>
<asrwt>0</asrwt>
<pdfrwt beam="1">  1        2 0.15286960E+00 0.79604119E+03</pdfrwt>
<pdfrwt beam="2">  1       -2 0.12078118E+00 0.79604119E+03</pdfrwt>
<totfact> 0.13441992E+01</totfact>
</mgrwt>
</event>
<event>
12    1  0.1338445E-007  0.8414070E+03  0.7818608E-02  0.9501943E-01
         -2   -1    0    0    0  501 -0.00000000000E+00  0.00000000000E+00  0.56703281694E+03  0.56703281694E+03  0.00000000000E+00 0. -1.
          2   -1    0    0  501    0  0.00000000000E+00 -0.00000000000E+00 -0.24557461683E+04  0.24557461683E+04  0.00000000000E+00 0.  1.
         23    2    1    2    0    0  0.81367595653E+03 -0.50248782026E+02  0.64283933540E+02  0.82277232126E+03  0.90710342209E+02 0.  0.
    5000000    2    1    2    0    0 -0.81367595653E+03  0.50248782026E+02 -0.19529972849E+04  0.22000066639E+04  0.60103030240E+03 0.  0.
         23    2    4    4    0    0 -0.76319342613E+03  0.79846657864E+02 -0.11213009050E+04  0.13618907421E+04  0.92687536148E+02 0.  0.
         23    2    4    4    0    0 -0.50482530395E+02 -0.29597875838E+02 -0.83169637984E+03  0.83811592184E+03  0.85410245750E+02 0.  0.
          1    1    3    3  502    0  0.47940049207E+03 -0.37884510918E+01  0.10823028752E+01  0.47941668258E+03  0.00000000000E+00 0. -1.
         -1    1    3    3    0  502  0.33427546446E+03 -0.46460330934E+02  0.63201630665E+02  0.34335563867E+03  0.00000000000E+00 0.  1.
         11    1    5    5    0    0 -0.26546844472E+03  0.72336779839E+02 -0.40200556140E+03  0.48714943935E+03  0.00000000000E+00 0. -1.
        -11    1    5    5    0    0 -0.49772498141E+03  0.75098780247E+01 -0.71929534363E+03  0.87474130276E+03  0.00000000000E+00 0.  1.
          4    1    6    6  503    0 -0.23820090832E+02 -0.52616120490E+02 -0.31721584913E+03  0.32243099696E+03  0.00000000000E+00 0.  1.
         -4    1    6    6    0  503 -0.26662439563E+02  0.23018244651E+02 -0.51448053071E+03  0.51568492488E+03  0.00000000000E+00 0. -1.
<mgrwt>
<rscale>  0 0.84140702E+03</rscale>
<asrwt>0</asrwt>
<pdfrwt beam="1">  1        2 0.37780711E+00 0.84140702E+03</pdfrwt>
<pdfrwt beam="2">  1       -2 0.87235815E-01 0.84140702E+03</pdfrwt>
<totfact> 0.43287988E+00</totfact>
</mgrwt>
</event>
<event>
12    1  0.1338445E-007  0.6290356E+03  0.7818608E-02  0.9846933E-01
          2   -1    0    0  501    0  0.00000000000E+00  0.00000000000E+00  0.57578518461E+03  0.57578518461E+03  0.00000000000E+00 0. -1.
         -2   -1    0    0    0  501 -0.00000000000E+00 -0.00000000000E+00 -0.71862821731E+03  0.71862821731E+03  0.00000000000E+00 0.  1.
         23    2    1    2    0    0  0.22286251725E+03  0.44553123628E+03 -0.43082136751E+02  0.50831192456E+03  0.91428431291E+02 0.  0.
    5000000    2    1    2    0    0 -0.22286251725E+03 -0.44553123628E+03 -0.99760895951E+02  0.78610147736E+03  0.59986457826E+03 0.  0.
         23    2    4    4    0    0 -0.40350284689E+03 -0.31186503523E+03  0.11482447115E+02  0.51823211443E+03  0.91423903801E+02 0.  0.
         23    2    4    4    0    0  0.18064032964E+03 -0.13366620105E+03 -0.11124334307E+03  0.26786936293E+03  0.94240820374E+02 0.  0.
          2    1    3    3  502    0  0.82720683301E+02  0.26681246530E+03 -0.26464744703E+02  0.28059220551E+03  0.00000000000E+00 0. -1.
         -2    1    3    3    0  502  0.14014183395E+03  0.17871877098E+03 -0.16617392049E+02  0.22771971904E+03  0.00000000000E+00 0.  1.
         13    1    5    5    0    0 -0.11277403622E+03 -0.11546966111E+03  0.39814116310E+02  0.16624196143E+03  0.00000000000E+00 0. -1.
        -13    1    5    5    0    0 -0.29072881067E+03 -0.19639537412E+03 -0.28331669195E+02  0.35199015300E+03  0.00000000000E+00 0.  1.
          3    1    6    6  503    0  0.60748654627E+01 -0.41539300776E+02 -0.14542768726E+01  0.42006337862E+02  0.00000000000E+00 0. -1.
         -3    1    6    6    0  503  0.17456546418E+03 -0.92126900274E+02 -0.10978906619E+03  0.22586302507E+03  0.00000000000E+00 0.  1.
<mgrwt>
<rscale>  0 0.62903560E+03</rscale>
<asrwt>0</asrwt>
<pdfrwt beam="1">  1        2 0.88582337E-01 0.62903560E+03</pdfrwt>
<pdfrwt beam="2">  1       -2 0.11055819E+00 0.62903560E+03</pdfrwt>
<totfact> 0.34602865E+01</totfact>
</mgrwt>
</event>
<event>
12    1  0.1338445E-007  0.9678740E+03  0.7818608E-02  0.9344499E-01
         -1   -1    0    0    0  501 -0.00000000000E+00  0.00000000000E+00  0.39064816509E+03  0.39064816509E+03  0.00000000000E+00 0.  1.
          1   -1    0    0  501    0  0.00000000000E+00 -0.00000000000E+00 -0.25910390913E+04  0.25910390913E+04  0.00000000000E+00 0. -1.
         23    2    1    2    0    0 -0.61021991247E+03  0.62801105578E+03 -0.61534714755E+03  0.10740434589E+04  0.90282954688E+02 0.  0.
    5000000    2    1    2    0    0  0.61021991247E+03 -0.62801105578E+03 -0.15850437787E+04  0.19076437975E+04  0.59997904125E+03 0.  0.
         23    2    4    4    0    0  0.56393746690E+03 -0.18149684015E+03 -0.98843963253E+03  0.11558648369E+04  0.89688597229E+02 0.  0.
         23    2    4    4    0    0  0.46282445566E+02 -0.44651421563E+03 -0.59660414615E+03  0.75177896057E+03  0.87852654037E+02 0.  0.
          3    1    3    3  502    0 -0.47731565488E+03  0.54052096641E+03 -0.50936035720E+03  0.88285962814E+03  0.00000000000E+00 0. -1.
         -3    1    3    3    0  502 -0.13290425759E+03  0.87490089376E+02 -0.10598679035E+03  0.19118383078E+03  0.00000000000E+00 0.  1.
         11    1    5    5    0    0  0.40100540457E+03 -0.16775654705E+03 -0.68800727769E+03  0.81381914928E+03  0.00000000000E+00 0.  1.
        -11    1    5    5    0    0  0.16293206233E+03 -0.13740293100E+02 -0.30043235484E+03  0.34204568763E+03  0.00000000000E+00 0. -1.
          4    1    6    6  503    0  0.72284137094E+02 -0.30473724060E+03 -0.40168417105E+03  0.50935248655E+03  0.00000000000E+00 0. -1.
         -4    1    6    6    0  503 -0.26001691528E+02 -0.14177697503E+03 -0.19491997510E+03  0.24242647402E+03  0.00000000000E+00 0.  1.
<mgrwt>
<rscale>  0 0.96787395E+03</rscale>
<asrwt>0</asrwt>
<pdfrwt beam="1">  1        1 0.39862139E+00 0.96787395E+03</pdfrwt>
<pdfrwt beam="2">  1       -1 0.60099719E-01 0.96787395E+03</pdfrwt>
<totfact> 0.33685836E+00</totfact>
</mgrwt>
</event>
<event>
12    1  0.1338445E-007  0.4959386E+03  0.7818608E-02  0.1014844E+00
          2   -1    0    0  501    0  0.00000000000E+00  0.00000000000E+00  0.65428741136E+03  0.65428741136E+03  0.00000000000E+00 0.  1.
         -2   -1    0    0    0  501 -0.00000000000E+00 -0.00000000000E+00 -0.42757079666E+03  0.42757079666E+03  0.00000000000E+00 0. -1.
         23    2    1    2    0    0  0.31606489116E+03 -0.93094557947E+02 -0.25964034327E+02  0.35222477961E+03  0.12175611749E+03 0.  0.
    5000000    2    1    2    0    0 -0.31606489116E+03  0.93094557947E+02  0.25268064903E+03  0.72963342841E+03  0.59996151319E+03 0.  0.
         23    2    4    4    0    0 -0.33433525949E+03  0.29133664814E+03  0.24249108714E+03  0.51411750234E+03  0.94115729695E+02 0.  0.
         23    2    4    4    0    0  0.18270368331E+02 -0.19824209019E+03  0.10189561886E+02  0.21551592607E+03  0.81911870539E+02 0.  0.
          4    1    3    3  502    0  0.85966298346E+02 -0.63153502554E+00 -0.55746895150E+02  0.10246130785E+03  0.00000000000E+00 0. -1.
         -4    1    3    3    0  502  0.23009859282E+03 -0.92463022922E+02  0.29782860823E+02  0.24976347175E+03  0.00000000000E+00 0.  1.
         13    1    5    5    0    0 -0.20394444274E+03  0.18452637954E+03  0.20065645148E+03  0.34045019018E+03  0.00000000000E+00 0.  1.
        -13    1    5    5    0    0 -0.13039081675E+03  0.10681026860E+03  0.41834635659E+02  0.17366731216E+03  0.00000000000E+00 0. -1.
          3    1    6    6  503    0  0.38903922287E+02 -0.44033121452E+02  0.11769958886E+02  0.59924643397E+02  0.00000000000E+00 0. -1.
         -3    1    6    6    0  503 -0.20633553955E+02 -0.15420896874E+03 -0.15803969996E+01  0.15559128267E+03  0.00000000000E+00 0.  1.
<mgrwt>
<rscale>  0 0.49593861E+03</rscale>
<asrwt>0</asrwt>
<pdfrwt beam="1">  1        2 0.10065960E+00 0.49593861E+03</pdfrwt>
<pdfrwt beam="2">  1       -2 0.65780123E-01 0.49593861E+03</pdfrwt>
<totfact> 0.97809254E+01</totfact>
</mgrwt>
</event>
<event>
12    1  0.1338445E-007  0.1507359E+04  0.7818608E-02  0.8879574E-01
         -2   -1    0    0    0  501 -0.00000000000E+00  0.00000000000E+00  0.17859909142E+04  0.17859909142E+04  0.00000000000E+00 0.  1.
          2   -1    0    0  501    0  0.00000000000E+00 -0.00000000000E+00 -0.12984619981E+04  0.12984619981E+04  0.00000000000E+00 0. -1.
         23    2    1    2    0    0  0.14281648406E+04 -0.28765688547E+03  0.11170837068E+03  0.14646609907E+04  0.10174360826E+03 0.  0.
    5000000    2    1    2    0    0 -0.14281648406E+04  0.28765688547E+03  0.37582054547E+03  0.16197919216E+04  0.60006957210E+03 0.  0.
         23    2    4    4    0    0 -0.11462490190E+04  0.44695181667E+03  0.35001809912E+03  0.12823842447E+04  0.91345177501E+02 0.  0.
         23    2    4    4    0    0 -0.28191582158E+03 -0.15929493120E+03  0.25802446348E+02  0.33740767690E+03  0.91251129464E+02 0.  0.
          2    1    3    3  502    0  0.15181360243E+03 -0.47097976726E+02  0.39748869078E+02  0.16384615311E+03  0.00000000000E+00 0. -1.
         -2    1    3    3    0  502  0.12763512382E+04 -0.24055890874E+03  0.71959501602E+02  0.13008148376E+04  0.00000000000E+00 0.  1.
         13    1    5    5    0    0 -0.70493156670E+03  0.31661820395E+03  0.19755750770E+03  0.79762432864E+03  0.00000000000E+00 0. -1.
        -13    1    5    5    0    0 -0.44131745232E+03  0.13033361272E+03  0.15246059142E+03  0.48475991610E+03  0.00000000000E+00 0.  1.
          3    1    6    6  503    0 -0.16126146332E+03 -0.97641447107E+02 -0.29966995883E+02  0.19088512930E+03  0.00000000000E+00 0. -1.
         -3    1    6    6    0  503 -0.12065435826E+03 -0.61653484093E+02  0.55769442231E+02  0.14652254760E+03  0.00000000000E+00 0.  1.
<mgrwt>
<rscale>  0 0.15073594E+04</rscale>
<asrwt>0</asrwt>
<pdfrwt beam="1">  1        2 0.19976338E+00 0.15073594E+04</pdfrwt>
<pdfrwt beam="2">  1       -2 0.27476783E+00 0.15073594E+04</pdfrwt>
<totfact> 0.70733784E-01</totfact>
</mgrwt>
</event>
<event>
12    1  0.1338445E-007  0.5221043E+03  0.7818608E-02  0.1008165E+00
          2   -1    0    0  501    0  0.00000000000E+00  0.00000000000E+00  0.10941442758E+04  0.10941442758E+04  0.00000000000E+00 0.  1.
         -2   -1    0    0    0  501 -0.00000000000E+00 -0.00000000000E+00 -0.64446637915E+03  0.64446637915E+03  0.00000000000E+00 0. -1.
         23    2    1    2    0    0 -0.13830287100E+03  0.39235766828E+03 -0.42491049170E+03  0.59947322898E+03  0.75808985778E+02 0.  0.
    5000000    2    1    2    0    0  0.13830287100E+03 -0.39235766828E+03  0.87458838832E+03  0.11391374259E+04  0.59971410038E+03 0.  0.
         23    2    4    4    0    0  0.36571999796E+00 -0.44410126488E+03  0.85224293869E+03  0.96528368243E+03  0.90711045649E+02 0.  0.
         23    2    4    4    0    0  0.13793715100E+03  0.51743596596E+02  0.22345449634E+02  0.17385374350E+03  0.89564209345E+02 0.  0.
          2    1    3    3  502    0 -0.32479566622E+02  0.17455443189E+03 -0.14404403493E+03  0.22863257847E+03  0.00000000000E+00 0. -1.
         -2    1    3    3    0  502 -0.10582330438E+03  0.21780323639E+03 -0.28086645677E+03  0.37084065051E+03  0.00000000000E+00 0.  1.
         11    1    5    5    0    0  0.29324069480E+02 -0.39126037065E+03  0.72019193448E+03  0.82013474575E+03  0.00000000000E+00 0. -1.
        -11    1    5    5    0    0 -0.28958349482E+02 -0.52840894230E+02  0.13205100421E+03  0.14514893668E+03  0.00000000000E+00 0.  1.
          3    1    6    6  503    0  0.10648153315E+03 -0.54503571175E+01  0.20377675543E+02  0.10855078514E+03  0.00000000000E+00 0. -1.
         -3    1    6    6    0  503  0.31455617855E+02  0.57193953714E+02  0.19677740905E+01  0.65302958363E+02  0.00000000000E+00 0.  1.
<mgrwt>
<rscale>  0 0.52210426E+03</rscale>
<asrwt>0</asrwt>
<pdfrwt beam="1">  1        2 0.16832989E+00 0.52210426E+03</pdfrwt>
<pdfrwt beam="2">  1       -2 0.99148674E-01 0.52210426E+03</pdfrwt>
<totfact> 0.19415131E+01</totfact>
</mgrwt>
</event>
<event>
12    1  0.1338445E-007  0.1363249E+04  0.7818608E-02  0.8980859E-01
         -1   -1    0    0    0  501 -0.00000000000E+00  0.00000000000E+00  0.58692639053E+03  0.58692639053E+03  0.00000000000E+00 0.  1.
          1   -1    0    0  501    0  0.00000000000E+00 -0.00000000000E+00 -0.38256489407E+04  0.38256489407E+04  0.00000000000E+00 0. -1.
         23    2    1    2    0    0 -0.86037287007E+03 -0.10520218328E+04 -0.22427151628E+04  0.26239691809E+04  0.91932305165E+02 0.  0.
    5000000    2    1    2    0    0  0.86037287007E+03  0.10520218328E+04 -0.99600738737E+03  0.17886061503E+04  0.60007485618E+03 0.  0.
         23    2    4    4    0    0  0.49138114876E+03  0.49433536166E+03 -0.17066366502E+03  0.72332672356E+03  0.90843708189E+02 0.  0.
         23    2    4    4    0    0  0.36899172131E+03  0.55768647114E+03 -0.82534372235E+03  0.10652794268E+04  0.80367322683E+02 0.  0.
          1    1    3    3  502    0 -0.63960008722E+03 -0.73762399234E+03 -0.15497651586E+04  0.18316521156E+04  0.00000000000E+00 0. -1.
         -1    1    3    3    0  502 -0.22077278285E+03 -0.31439784045E+03 -0.69295000418E+03  0.79231706534E+03  0.00000000000E+00 0.  1.
         11    1    5    5    0    0  0.93896144887E+02  0.93152394852E+02 -0.70102955301E+02  0.14969395122E+03  0.00000000000E+00 0. -1.
        -11    1    5    5    0    0  0.39748500387E+03  0.40118296681E+03 -0.10056070972E+03  0.57363277234E+03  0.00000000000E+00 0.  1.
          2    1    6    6  503    0  0.11353749433E+03  0.15521473965E+03 -0.18378655260E+03  0.26600728362E+03  0.00000000000E+00 0. -1.
         -2    1    6    6    0  503  0.25545422698E+03  0.40247173149E+03 -0.64155716975E+03  0.79927214313E+03  0.00000000000E+00 0.  1.
<mgrwt>
<rscale>  0 0.13632487E+04</rscale>
<asrwt>0</asrwt>
<pdfrwt beam="1">  1        1 0.58856136E+00 0.13632487E+04</pdfrwt>
<pdfrwt beam="2">  1       -1 0.90296370E-01 0.13632487E+04</pdfrwt>
<totfact> 0.16049784E-01</totfact>
</mgrwt>
</event>
<event>
12    1  0.1338445E-007  0.1697505E+04  0.7818608E-02  0.8762789E-01
          2   -1    0    0  501    0  0.00000000000E+00  0.00000000000E+00  0.35947247480E+04  0.35947247480E+04  0.00000000000E+00 0. -1.
         -2   -1    0    0    0  501 -0.00000000000E+00 -0.00000000000E+00 -0.81307426462E+03  0.81307426462E+03  0.00000000000E+00 0.  1.
         23    2    1    2    0    0 -0.15870662107E+04 -0.46991309532E+03  0.12939772246E+04  0.21028508979E+04  0.89483888665E+02 0.  0.
    5000000    2    1    2    0    0  0.15870662107E+04  0.46991309532E+03  0.14876732588E+04  0.23049481148E+04  0.60001384361E+03 0.  0.
         23    2    4    4    0    0  0.13229783584E+04  0.16231963532E+03  0.12291111938E+04  0.18152331635E+04  0.87964255687E+02 0.  0.
         23    2    4    4    0    0  0.26408785230E+03  0.30759346001E+03  0.25856206499E+03  0.48971495128E+03  0.92791495754E+02 0.  0.
          2    1    3    3  502    0 -0.72437259478E+03 -0.23021506070E+03  0.64748117377E+03  0.99847208305E+03  0.00000000000E+00 0. -1.
         -2    1    3    3    0  502 -0.86269361596E+03 -0.23969803462E+03  0.64649605085E+03  0.11043788148E+04  0.00000000000E+00 0.  1.
         11    1    5    5    0    0  0.93183641851E+03  0.12623355280E+03  0.81386737539E+03  0.12436374574E+04  0.00000000000E+00 0. -1.
        -11    1    5    5    0    0  0.39114193993E+03  0.36086082519E+02  0.41524381839E+03  0.57159570610E+03  0.00000000000E+00 0.  1.
          3    1    6    6  503    0  0.25318856722E+03  0.28433754551E+03  0.26420587834E+03  0.46341885644E+03  0.00000000000E+00 0. -1.
         -3    1    6    6    0  503  0.10899285085E+02  0.23255914498E+02 -0.56438133561E+01  0.26296094837E+02  0.00000000000E+00 0.  1.
<mgrwt>
<rscale>  0 0.16975050E+04</rscale>
<asrwt>0</asrwt>
<pdfrwt beam="1">  1        2 0.55303457E+00 0.16975050E+04</pdfrwt>
<pdfrwt beam="2">  1       -2 0.12508835E+00 0.16975050E+04</pdfrwt>
<totfact> 0.31226870E-01</totfact>
</mgrwt>
</event>
<event>
12    1  0.1338445E-007  0.1011081E+04  0.7818608E-02  0.9296474E-01
          1   -1    0    0  501    0  0.00000000000E+00  0.00000000000E+00  0.95307175222E+03  0.95307175222E+03  0.00000000000E+00 0. -1.
         -1   -1    0    0    0  501 -0.00000000000E+00 -0.00000000000E+00 -0.13484311099E+04  0.13484311099E+04  0.00000000000E+00 0.  1.
         23    2    1    2    0    0 -0.93112712201E+03 -0.18276006576E+03 -0.64536428472E+03  0.11512734585E+04  0.92393491154E+02 0.  0.
    5000000    2    1    2    0    0  0.93112712201E+03  0.18276006576E+03  0.25000492701E+03  0.11502294037E+04  0.60010520628E+03 0.  0.
         23    2    4    4    0    0  0.90902255268E+03  0.28852974126E+03  0.29338167659E+03  0.10022218069E+04  0.93831386949E+02 0.  0.
         23    2    4    4    0    0  0.22104569331E+02 -0.10576967550E+03 -0.43376749581E+02  0.14800759680E+03  0.91372151476E+02 0.  0.
          1    1    3    3  502    0 -0.67344058266E+03 -0.10242329914E+03 -0.42567509441E+03  0.80325091757E+03  0.00000000000E+00 0.  1.
         -1    1    3    3    0  502 -0.25768653935E+03 -0.80336766627E+02 -0.21968919032E+03  0.34802254090E+03  0.00000000000E+00 0. -1.
         11    1    5    5    0    0  0.67346467757E+03  0.24595669695E+03  0.24750829625E+03  0.75849174380E+03  0.00000000000E+00 0.  1.
        -11    1    5    5    0    0  0.23555787511E+03  0.42573044319E+02  0.45873380338E+02  0.24373006309E+03  0.00000000000E+00 0. -1.
          3    1    6    6  503    0  0.32608881554E+02 -0.90352268348E+02 -0.67580979509E+02  0.11744811767E+03  0.00000000000E+00 0. -1.
         -3    1    6    6    0  503 -0.10504312223E+02 -0.15417407154E+02  0.24204229927E+02  0.30559479135E+02  0.00000000000E+00 0.  1.
<mgrwt>
<rscale>  0 0.10110814E+04</rscale>
<asrwt>0</asrwt>
<pdfrwt beam="1">  1        1 0.14662642E+00 0.10110814E+04</pdfrwt>
<pdfrwt beam="2">  1       -1 0.20745094E+00 0.10110814E+04</pdfrwt>
<totfact> 0.22121446E+00</totfact>
</mgrwt>
</event>
<event>
12    1  0.1338445E-007  0.8953834E+03  0.7818608E-02  0.9431371E-01
         -1   -1    0    0    0  501 -0.00000000000E+00  0.00000000000E+00  0.91590586477E+03  0.91590586477E+03  0.00000000000E+00 0.  1.
          1   -1    0    0  501    0  0.00000000000E+00 -0.00000000000E+00 -0.20005271180E+04  0.20005271180E+04  0.00000000000E+00 0. -1.
         23    2    1    2    0    0 -0.63011891159E+02 -0.88316583479E+03  0.48872900924E+03  0.10139678087E+04  0.72953975354E+02 0.  0.
    5000000    2    1    2    0    0  0.63011891159E+02  0.88316583479E+03 -0.15733502625E+04  0.19024651740E+04  0.59999191640E+03 0.  0.
         23    2    4    4    0    0 -0.98305683290E+01  0.45263223610E+03 -0.12991133216E+04  0.13788328021E+04  0.92259918494E+02 0.  0.
         23    2    4    4    0    0  0.72842459488E+02  0.43053359869E+03 -0.27423694083E+03  0.52363237187E+03  0.91212705530E+02 0.  0.
          3    1    3    3  502    0  0.68889879632E+01 -0.30087694021E+03  0.18853146085E+03  0.35513166999E+03  0.00000000000E+00 0. -1.
         -3    1    3    3    0  502 -0.69900879122E+02 -0.58228889458E+03  0.30019754840E+03  0.65883613875E+03  0.00000000000E+00 0.  1.
         13    1    5    5    0    0  0.29405824230E+02  0.17442736124E+03 -0.41425138497E+03  0.45043736168E+03  0.00000000000E+00 0.  1.
        -13    1    5    5    0    0 -0.39236392559E+02  0.27820487486E+03 -0.88486193666E+03  0.92839544045E+03  0.00000000000E+00 0. -1.
          2    1    6    6  503    0  0.28184753394E+02  0.36561220558E+03 -0.23571633955E+03  0.43592299541E+03  0.00000000000E+00 0. -1.
         -2    1    6    6    0  503  0.44657706095E+02  0.64921393113E+02 -0.38520601283E+02  0.87709376469E+02  0.00000000000E+00 0.  1.
<mgrwt>
<rscale>  0 0.89538344E+03</rscale>
<asrwt>0</asrwt>
<pdfrwt beam="1">  1        1 0.30777340E+00 0.89538344E+03</pdfrwt>
<pdfrwt beam="2">  1       -1 0.14090860E+00 0.89538344E+03</pdfrwt>
<totfact> 0.12617694E+00</totfact>
</mgrwt>
</event>
<event>
12    1  0.1338445E-007  0.1411161E+04  0.7818608E-02  0.8945779E-01
         -2   -1    0    0    0  501 -0.00000000000E+00  0.00000000000E+00  0.78330202177E+03  0.78330202177E+03  0.00000000000E+00 0. -1.
          2   -1    0    0  501    0  0.00000000000E+00 -0.00000000000E+00 -0.26020300923E+04  0.26020300923E+04  0.00000000000E+00 0.  1.
         23    2    1    2    0    0 -0.31925338169E+03 -0.13199468195E+04 -0.10072411594E+04  0.16933958814E+04  0.94194108418E+02 0.  0.
    5000000    2    1    2    0    0  0.31925338169E+03  0.13199468195E+04 -0.81148691118E+03  0.16919362327E+04  0.59996239910E+03 0.  0.
         23    2    4    4    0    0  0.10520054976E+03  0.12043400166E+04 -0.75628401011E+03  0.14288758190E+04  0.90656333973E+02 0.  0.
         23    2    4    4    0    0  0.21405283193E+03  0.11560680294E+03 -0.55202901072E+02  0.26306041370E+03  0.83485766611E+02 0.  0.
          1    1    3    3  502    0 -0.13129493693E+03 -0.70683823290E+03 -0.49884686190E+03  0.87504676423E+03  0.00000000000E+00 0. -1.
         -1    1    3    3    0  502 -0.18795844476E+03 -0.61310858660E+03 -0.50839429746E+03  0.81834911719E+03  0.00000000000E+00 0.  1.
         11    1    5    5    0    0  0.63620250758E+02  0.41711107100E+03 -0.30372777870E+03  0.51988435773E+03  0.00000000000E+00 0. -1.
        -11    1    5    5    0    0  0.41580298997E+02  0.78722894557E+03 -0.45255623140E+03  0.90899146123E+03  0.00000000000E+00 0.  1.
          2    1    6    6  503    0  0.19251694917E+02  0.37169180373E+02 -0.30116983850E+02  0.51567513446E+02  0.00000000000E+00 0.  1.
         -2    1    6    6    0  503  0.19480113701E+03  0.78437622565E+02 -0.25085917222E+02  0.21149290026E+03  0.00000000000E+00 0. -1.
<mgrwt>
<rscale>  0 0.14111608E+04</rscale>
<asrwt>0</asrwt>
<pdfrwt beam="1">  1        2 0.40031233E+00 0.14111608E+04</pdfrwt>
<pdfrwt beam="2">  1       -2 0.12050800E+00 0.14111608E+04</pdfrwt>
<totfact> 0.15287492E+00</totfact>
</mgrwt>
</event>
<event>
12    1  0.1338445E-007  0.6648707E+03  0.7818608E-02  0.9779269E-01
          1   -1    0    0  501    0  0.00000000000E+00  0.00000000000E+00  0.48290397111E+03  0.48290397111E+03  0.00000000000E+00 0.  1.
         -1   -1    0    0    0  501 -0.00000000000E+00 -0.00000000000E+00 -0.97577595126E+03  0.97577595126E+03  0.00000000000E+00 0. -1.
         23    2    1    2    0    0  0.41353718517E+03 -0.35947631165E+03 -0.13994689943E+03  0.57273272887E+03  0.90561702226E+02 0.  0.
    5000000    2    1    2    0    0 -0.41353718517E+03  0.35947631165E+03 -0.35292508072E+03  0.88594719349E+03  0.60009173874E+03 0.  0.
         23    2    4    4    0    0 -0.40819004125E+03 -0.84329899502E+01 -0.26958280251E+03  0.49756433035E+03  0.90582284892E+02 0.  0.
         23    2    4    4    0    0 -0.53471439226E+01  0.36790930160E+03 -0.83342278210E+02  0.38838286314E+03  0.92246771738E+02 0.  0.
          3    1    3    3  502    0  0.23814062921E+03 -0.18545799696E+03 -0.33457752427E+02  0.30368577364E+03  0.00000000000E+00 0. -1.
         -3    1    3    3    0  502  0.17539655596E+03 -0.17401831469E+03 -0.10648914700E+03  0.26904695523E+03  0.00000000000E+00 0.  1.
         11    1    5    5    0    0 -0.36284377717E+03  0.12145514545E+02 -0.26076710806E+03  0.44699284648E+03  0.00000000000E+00 0. -1.
        -11    1    5    5    0    0 -0.45346264076E+02 -0.20578504495E+02 -0.88156944557E+01  0.50571483878E+02  0.00000000000E+00 0.  1.
          2    1    6    6  503    0 -0.60455910171E+01  0.24960723385E+03 -0.11440287158E+02  0.24994239442E+03  0.00000000000E+00 0. -1.
         -2    1    6    6    0  503  0.69844709456E+00  0.11830206775E+03 -0.71901991052E+02  0.13844046872E+03  0.00000000000E+00 0.  1.
<mgrwt>
<rscale>  0 0.66487068E+03</rscale>
<asrwt>0</asrwt>
<pdfrwt beam="1">  1        1 0.74292919E-01 0.66487068E+03</pdfrwt>
<pdfrwt beam="2">  1       -1 0.15011938E+00 0.66487068E+03</pdfrwt>
<totfact> 0.16796488E+01</totfact>
</mgrwt>
</event>
<event>
12    1  0.1338445E-007  0.4858500E+03  0.7818608E-02  0.1017540E+00
          2   -1    0    0  501    0  0.00000000000E+00  0.00000000000E+00  0.28665596598E+03  0.28665596598E+03  0.00000000000E+00 0. -1.
         -2   -1    0    0    0  501 -0.00000000000E+00 -0.00000000000E+00 -0.15135374371E+04  0.15135374371E+04  0.00000000000E+00 0.  1.
         23    2    1    2    0    0  0.29548548546E+03  0.22226216450E+03  0.53938326241E+01  0.38066531861E+03  0.90359556652E+02 0.  0.
    5000000    2    1    2    0    0 -0.29548548546E+03 -0.22226216450E+03 -0.12322753037E+04  0.14195280845E+04  0.59987116657E+03 0.  0.
         23    2    4    4    0    0  0.51966274024E+01  0.13116009174E+03 -0.89093253778E+02  0.18256869790E+03  0.90353455855E+02 0.  0.
         23    2    4    4    0    0 -0.30068211286E+03 -0.35342225624E+03 -0.11431820500E+04  0.12369593866E+04  0.88804844675E+02 0.  0.
          2    1    3    3  502    0  0.17045392023E+03  0.13335346161E+03 -0.41240405568E+02  0.22031444732E+03  0.00000000000E+00 0. -1.
         -2    1    3    3    0  502  0.12503156523E+03  0.88908702888E+02  0.46634238192E+02  0.16035087129E+03  0.00000000000E+00 0.  1.
         13    1    5    5    0    0  0.13476223398E+02  0.82912383309E+02 -0.10181097238E+03  0.13199070422E+03  0.00000000000E+00 0.  1.
        -13    1    5    5    0    0 -0.82795959960E+01  0.48247708427E+02  0.12717718607E+02  0.50577993681E+02  0.00000000000E+00 0. -1.
          3    1    6    6  503    0 -0.16436849006E+03 -0.24354940466E+03 -0.64106102404E+03  0.70518972594E+03  0.00000000000E+00 0. -1.
         -3    1    6    6    0  503 -0.13631362280E+03 -0.10987285158E+03 -0.50212102592E+03  0.53176966062E+03  0.00000000000E+00 0.  1.
<mgrwt>
<rscale>  0 0.48584999E+03</rscale>
<asrwt>0</asrwt>
<pdfrwt beam="1">  1        2 0.44100918E-01 0.48584999E+03</pdfrwt>
<pdfrwt beam="2">  1       -2 0.23285191E+00 0.48584999E+03</pdfrwt>
<totfact> 0.10033478E+01</totfact>
</mgrwt>
</event>
<event>
12    1  0.1338445E-007  0.6472798E+03  0.7818608E-02  0.9811897E-01
          1   -1    0    0  501    0  0.00000000000E+00  0.00000000000E+00  0.22671422822E+04  0.22671422822E+04  0.00000000000E+00 0. -1.
         -1   -1    0    0    0  501 -0.00000000000E+00 -0.00000000000E+00 -0.22187157024E+03  0.22187157024E+03  0.00000000000E+00 0.  1.
         23    2    1    2    0    0  0.35299581396E+03  0.40256802344E+03  0.12258291839E+04  0.13408184742E+04  0.92032246403E+02 0.  0.
    5000000    2    1    2    0    0 -0.35299581396E+03 -0.40256802344E+03  0.81944152798E+03  0.11481953782E+04  0.60016760206E+03 0.  0.
         23    2    4    4    0    0 -0.96729787046E+02  0.12902079816E+03  0.10295513024E+03  0.21551222090E+03  0.99210586403E+02 0.  0.
         23    2    4    4    0    0 -0.25626602691E+03 -0.53158882160E+03  0.71648639773E+03  0.93268315729E+03  0.91028358007E+02 0.  0.
          4    1    3    3  502    0  0.50792564669E+02  0.20366607474E+02  0.15415393483E+03  0.16357909080E+03  0.00000000000E+00 0. -1.
         -4    1    3    3    0  502  0.30220324929E+03  0.38220141597E+03  0.10716752491E+04  0.11772393834E+04  0.00000000000E+00 0.  1.
         11    1    5    5    0    0 -0.60305783568E+02  0.94951071556E+02  0.11838861520E+03  0.16330449391E+03  0.00000000000E+00 0.  1.
        -11    1    5    5    0    0 -0.36424003478E+02  0.34069726606E+02 -0.15433484953E+02  0.52207726997E+02  0.00000000000E+00 0. -1.
          2    1    6    6  503    0 -0.86223471222E+02 -0.16710978904E+03  0.16536082473E+03  0.25040840828E+03  0.00000000000E+00 0. -1.
         -2    1    6    6    0  503 -0.17004255569E+03 -0.36447903256E+03  0.55112557300E+03  0.68227474901E+03  0.00000000000E+00 0.  1.
<mgrwt>
<rscale>  0 0.64727981E+03</rscale>
<asrwt>0</asrwt>
<pdfrwt beam="1">  1        1 0.34879111E+00 0.64727981E+03</pdfrwt>
<pdfrwt beam="2">  1       -1 0.34134089E-01 0.64727981E+03</pdfrwt>
<totfact> 0.16914699E+01</totfact>
</mgrwt>
</event>
<event>
12    1  0.1338445E-007  0.1074737E+04  0.7818608E-02  0.9230171E-01
         -1   -1    0    0    0  501 -0.00000000000E+00  0.00000000000E+00  0.13809618160E+04  0.13809618160E+04  0.00000000000E+00 0.  1.
          1   -1    0    0  501    0  0.00000000000E+00 -0.00000000000E+00 -0.88665752413E+03  0.88665752413E+03  0.00000000000E+00 0. -1.
         23    2    1    2    0    0  0.98882076277E+03 -0.23331373273E+03  0.35354419104E+03  0.10793289769E+04  0.88066716401E+02 0.  0.
    5000000    2    1    2    0    0 -0.98882076277E+03  0.23331373273E+03  0.14076010083E+03  0.11882903633E+04  0.60001565203E+03 0.  0.
         23    2    4    4    0    0 -0.85310934652E+03  0.81825067374E+01  0.24062053522E+03  0.89229244559E+03  0.10210316325E+03 0.  0.
         23    2    4    4    0    0 -0.13571141624E+03  0.22513122599E+03 -0.99860434387E+02  0.29599791768E+03  0.92417549724E+02 0.  0.
          2    1    3    3  502    0  0.28455440658E+03 -0.26551481676E+02  0.98041355837E+02  0.30213953554E+03  0.00000000000E+00 0.  1.
         -2    1    3    3    0  502  0.70426635619E+03 -0.20676225105E+03  0.25550283520E+03  0.77718944133E+03  0.00000000000E+00 0. -1.
         11    1    5    5    0    0 -0.54008391405E+03  0.51516936585E+02  0.13475283034E+03  0.55901963673E+03  0.00000000000E+00 0. -1.
        -11    1    5    5    0    0 -0.31302543248E+03 -0.43334429848E+02  0.10586770488E+03  0.33327280886E+03  0.00000000000E+00 0.  1.
          2    1    6    6  503    0  0.44555986765E+00  0.46691311508E+02 -0.45194015226E+02  0.64982890873E+02  0.00000000000E+00 0.  1.
         -2    1    6    6    0  503 -0.13615697611E+03  0.17843991448E+03 -0.54666419160E+02  0.23101502680E+03  0.00000000000E+00 0. -1.
<mgrwt>
<rscale>  0 0.10747371E+04</rscale>
<asrwt>0</asrwt>
<pdfrwt beam="1">  1        1 0.13640885E+00 0.10747371E+04</pdfrwt>
<pdfrwt beam="2">  1       -1 0.21245566E+00 0.10747371E+04</pdfrwt>
<totfact> 0.22990789E+00</totfact>
</mgrwt>
</event>
<event>
12    1  0.1338445E-007  0.6377006E+03  0.7818608E-02  0.9830136E-01
         -2   -1    0    0    0  501 -0.00000000000E+00  0.00000000000E+00  0.18518748466E+04  0.18518748466E+04  0.00000000000E+00 0.  1.
          2   -1    0    0  501    0  0.00000000000E+00 -0.00000000000E+00 -0.26360307257E+03  0.26360307257E+03  0.00000000000E+00 0. -1.
         23    2    1    2    0    0  0.34672788382E+03 -0.42020209497E+03  0.88076200362E+03  0.10396744740E+04  0.91603923537E+02 0.  0.
    5000000    2    1    2    0    0 -0.34672788382E+03  0.42020209497E+03  0.70750977037E+03  0.10758034451E+04  0.59999412610E+03 0.  0.
         23    2    4    4    0    0 -0.43783408201E+03  0.23760679651E+03  0.68321975116E+03  0.85073636619E+03  0.93848086168E+02 0.  0.
         23    2    4    4    0    0  0.91106198194E+02  0.18259529846E+03  0.24290019210E+02  0.22506707894E+03  0.91781275974E+02 0.  0.
          1    1    3    3  502    0  0.78305797144E+02 -0.44148749641E+02  0.12743855103E+03  0.15595350028E+03  0.00000000000E+00 0. -1.
         -1    1    3    3    0  502  0.26842208667E+03 -0.37605334533E+03  0.75332345260E+03  0.88372097371E+03  0.00000000000E+00 0.  1.
         11    1    5    5    0    0 -0.10926329399E+03  0.83739981282E+02  0.25236132579E+03  0.28746667743E+03  0.00000000000E+00 0. -1.
        -11    1    5    5    0    0 -0.32857078802E+03  0.15386681523E+03  0.43085842536E+03  0.56326968876E+03  0.00000000000E+00 0.  1.
          2    1    6    6  503    0  0.87797171006E+02  0.75312130095E+02  0.21766755039E+02  0.11770323615E+03  0.00000000000E+00 0.  1.
         -2    1    6    6    0  503  0.33090271877E+01  0.10728316836E+03  0.25232641713E+01  0.10736384278E+03  0.00000000000E+00 0. -1.
<mgrwt>
<rscale>  0 0.63770065E+03</rscale>
<asrwt>0</asrwt>
<pdfrwt beam="1">  1        2 0.40554320E-01 0.63770065E+03</pdfrwt>
<pdfrwt beam="2">  1       -2 0.28490381E+00 0.63770065E+03</pdfrwt>
<totfact> 0.52407562E+00</totfact>
</mgrwt>
</event>
<event>
12    1  0.1338445E-007  0.9491739E+03  0.7818608E-02  0.9366117E-01
          2   -1    0    0  501    0  0.00000000000E+00  0.00000000000E+00  0.24502000848E+04  0.24502000848E+04  0.00000000000E+00 0. -1.
         -2   -1    0    0    0  501 -0.00000000000E+00 -0.00000000000E+00 -0.50249479249E+03  0.50249479249E+03  0.00000000000E+00 0.  1.
         23    2    1    2    0    0 -0.51362913403E+02 -0.86994909297E+03  0.18418037798E+03  0.89608600298E+03  0.97970096797E+02 0.  0.
    5000000    2    1    2    0    0  0.51362913403E+02  0.86994909297E+03  0.17635249143E+04  0.20566088743E+04  0.60014195420E+03 0.  0.
         23    2    4    4    0    0  0.27517933491E+03  0.60039859997E+03  0.89872202325E+03  0.11190791984E+04  0.91841341292E+02 0.  0.
         23    2    4    4    0    0 -0.22381642151E+03  0.26955049300E+03  0.86480289107E+03  0.93752967592E+03  0.91250172654E+02 0.  0.
          4    1    3    3  502    0 -0.24270471035E+02 -0.23103796551E+03  0.66034638420E+01  0.23240310456E+03  0.00000000000E+00 0. -1.
         -4    1    3    3    0  502 -0.27092442368E+02 -0.63891112746E+03  0.17757691414E+03  0.66368289842E+03  0.00000000000E+00 0.  1.
         13    1    5    5    0    0  0.13657304723E+03  0.38431321899E+03  0.50630676775E+03  0.65015028308E+03  0.00000000000E+00 0. -1.
        -13    1    5    5    0    0  0.13860628768E+03  0.21608538098E+03  0.39241525550E+03  0.46892891530E+03  0.00000000000E+00 0.  1.
          3    1    6    6  503    0 -0.41374769605E+02  0.65489604376E+01  0.10616602229E+03  0.11413143621E+03  0.00000000000E+00 0. -1.
         -3    1    6    6    0  503 -0.18244165190E+03  0.26300153256E+03  0.75863686877E+03  0.82339823970E+03  0.00000000000E+00 0.  1.
<mgrwt>
<rscale>  0 0.94917387E+03</rscale>
<asrwt>0</asrwt>
<pdfrwt beam="1">  1        2 0.37695385E+00 0.94917387E+03</pdfrwt>
<pdfrwt beam="2">  1       -2 0.77306892E-01 0.94917387E+03</pdfrwt>
<totfact> 0.56435595E+00</totfact>
</mgrwt>
</event>
<event>
12    1  0.1338445E-007  0.9663421E+03  0.7818608E-02  0.9346251E-01
         -1   -1    0    0    0  501 -0.00000000000E+00  0.00000000000E+00  0.78425271943E+03  0.78425271943E+03  0.00000000000E+00 0.  1.
          1   -1    0    0  501    0  0.00000000000E+00 -0.00000000000E+00 -0.14965963299E+04  0.14965963299E+04  0.00000000000E+00 0. -1.
         23    2    1    2    0    0 -0.53360232620E+03 -0.75140101994E+03  0.74149360304E+02  0.92882654657E+03  0.88801411505E+02 0.  0.
    5000000    2    1    2    0    0  0.53360232620E+03  0.75140101994E+03 -0.78649297075E+03  0.13520225027E+04  0.60004893100E+03 0.  0.
         23    2    4    4    0    0  0.44466542688E+03  0.77383240056E+03 -0.82322992648E+03  0.12178280552E+04  0.94094283927E+02 0.  0.
         23    2    4    4    0    0  0.88936899321E+02 -0.22431380625E+02  0.36736955726E+02  0.13419444750E+03  0.90805324327E+02 0.  0.
          2    1    3    3  502    0 -0.11005442796E+03 -0.98994041323E+02  0.12209220616E+02  0.14852899515E+03  0.00000000000E+00 0. -1.
         -2    1    3    3    0  502 -0.42354789824E+03 -0.65240697861E+03  0.61940139688E+02  0.78029755142E+03  0.00000000000E+00 0.  1.
         13    1    5    5    0    0  0.85402649328E+02  0.21086548842E+03 -0.24642643768E+03  0.33538612957E+03  0.00000000000E+00 0. -1.
        -13    1    5    5    0    0  0.35926277755E+03  0.56296691214E+03 -0.57680348880E+03  0.88244192567E+03  0.00000000000E+00 0.  1.
          2    1    6    6  503    0  0.11764136175E+02 -0.31648679137E+02 -0.18822813148E+02  0.38656591752E+02  0.00000000000E+00 0. -1.
         -2    1    6    6    0  503  0.77172763147E+02  0.92172985123E+01  0.55559768874E+02  0.95537855748E+02  0.00000000000E+00 0.  1.
<mgrwt>
<rscale>  0 0.96634211E+03</rscale>
<asrwt>0</asrwt>
<pdfrwt beam="1">  1        1 0.23024559E+00 0.96634211E+03</pdfrwt>
<pdfrwt beam="2">  1       -1 0.12065426E+00 0.96634211E+03</pdfrwt>
<totfact> 0.40571385E+00</totfact>
</mgrwt>
</event>
<event>
12    1  0.1338445E-007  0.9878057E+03  0.7818608E-02  0.9322021E-01
          1   -1    0    0  501    0  0.00000000000E+00  0.00000000000E+00  0.18517883206E+04  0.18517883206E+04  0.00000000000E+00 0. -1.
         -1   -1    0    0    0  501 -0.00000000000E+00 -0.00000000000E+00 -0.56206959472E+03  0.56206959472E+03  0.00000000000E+00 0.  1.
         23    2    1    2    0    0  0.92199080591E+03  0.11474630937E+03  0.62427700600E+03  0.11231674867E+04  0.92464378709E+02 0.  0.
    5000000    2    1    2    0    0 -0.92199080591E+03 -0.11474630937E+03  0.66544171988E+03  0.12906904286E+04  0.59986276616E+03 0.  0.
         23    2    4    4    0    0 -0.92225344438E+03 -0.20763611391E+03  0.48014583953E+03  0.10643884991E+04  0.93373862801E+02 0.  0.
         23    2    4    4    0    0  0.26263847752E+00  0.92889804538E+02  0.18529588035E+03  0.22630192953E+03  0.90826291715E+02 0.  0.
          1    1    3    3  502    0  0.61044354483E+03  0.57149565862E+02  0.45849810855E+03  0.76558990971E+03  0.00000000000E+00 0. -1.
         -1    1    3    3    0  502  0.31154726107E+03  0.57596743507E+02  0.16577889745E+03  0.35757757702E+03  0.00000000000E+00 0.  1.
         11    1    5    5    0    0 -0.85818263432E+03 -0.21330513553E+03  0.43283641214E+03  0.98454246956E+03  0.00000000000E+00 0. -1.
        -11    1    5    5    0    0 -0.64070810065E+02  0.56690216217E+01  0.47309427391E+02  0.79846029511E+02  0.00000000000E+00 0.  1.
          3    1    6    6  503    0 -0.11453953478E+02  0.18566646823E+02  0.13274607290E+03  0.13452670104E+03  0.00000000000E+00 0. -1.
         -3    1    6    6    0  503  0.11716591955E+02  0.74323157715E+02  0.52549807458E+02  0.91775228485E+02  0.00000000000E+00 0.  1.
<mgrwt>
<rscale>  0 0.98780569E+03</rscale>
<asrwt>0</asrwt>
<pdfrwt beam="1">  1        1 0.28489051E+00 0.98780569E+03</pdfrwt>
<pdfrwt beam="2">  1       -1 0.86472246E-01 0.98780569E+03</pdfrwt>
<totfact> 0.50093390E+00</totfact>
</mgrwt>
</event>
<event>
12    1  0.1338445E-007  0.9051570E+03  0.7818608E-02  0.9419158E-01
          2   -1    0    0  501    0  0.00000000000E+00  0.00000000000E+00  0.22350712959E+04  0.22350712959E+04  0.00000000000E+00 0. -1.
         -2   -1    0    0    0  501 -0.00000000000E+00 -0.00000000000E+00 -0.39560794326E+03  0.39560794326E+03  0.00000000000E+00 0.  1.
         23    2    1    2    0    0  0.67904617381E+03 -0.49127095908E+03  0.71644569660E+03  0.11063079440E+04  0.90398946030E+02 0.  0.
    5000000    2    1    2    0    0 -0.67904617381E+03  0.49127095908E+03  0.11230176560E+04  0.15243712951E+04  0.60007360231E+03 0.  0.
         23    2    4    4    0    0 -0.71138702347E+03  0.34695230868E+03  0.67825841208E+03  0.10463735857E+04  0.91737699769E+02 0.  0.
         23    2    4    4    0    0  0.32340849660E+02  0.14431865040E+03  0.44475924393E+03  0.47799770943E+03  0.93793505873E+02 0.  0.
          3    1    3    3  502    0  0.70934430184E+02 -0.87104524684E+02  0.10851086384E+03  0.15618418350E+03  0.00000000000E+00 0. -1.
         -3    1    3    3    0  502  0.60811174363E+03 -0.40416643440E+03  0.60793483276E+03  0.95012376053E+03  0.00000000000E+00 0.  1.
         11    1    5    5    0    0 -0.43697013273E+03  0.25040304915E+03  0.39158852880E+03  0.63795466909E+03  0.00000000000E+00 0.  1.
        -11    1    5    5    0    0 -0.27441689074E+03  0.96549259532E+02  0.28666988327E+03  0.40841891658E+03  0.00000000000E+00 0. -1.
          2    1    6    6  503    0  0.54319934652E+02  0.42123170203E+02  0.14340185842E+03  0.15902550037E+03  0.00000000000E+00 0. -1.
         -2    1    6    6    0  503 -0.21979084993E+02  0.10219548020E+03  0.30135738551E+03  0.31897220906E+03  0.00000000000E+00 0.  1.
<mgrwt>
<rscale>  0 0.90515695E+03</rscale>
<asrwt>0</asrwt>
<pdfrwt beam="1">  1        2 0.34385711E+00 0.90515695E+03</pdfrwt>
<pdfrwt beam="2">  1       -2 0.60862762E-01 0.90515695E+03</pdfrwt>
<totfact> 0.12627643E+01</totfact>
</mgrwt>
</event>
<event>
12    1  0.1338445E-007  0.4871241E+03  0.7818608E-02  0.1017195E+00
         -1   -1    0    0    0  501 -0.00000000000E+00  0.00000000000E+00  0.16450843410E+04  0.16450843410E+04  0.00000000000E+00 0.  1.
          1   -1    0    0  501    0  0.00000000000E+00 -0.00000000000E+00 -0.23076068860E+03  0.23076068860E+03  0.00000000000E+00 0. -1.
         23    2    1    2    0    0 -0.40693310583E+03  0.21398014185E+03  0.44173569314E+03  0.64409965563E+03  0.91388675816E+02 0.  0.
    5000000    2    1    2    0    0  0.40693310583E+03 -0.21398014185E+03  0.97258795925E+03  0.12317453740E+04  0.59990605438E+03 0.  0.
         23    2    4    4    0    0  0.25814479996E+03 -0.33035715807E+02  0.55800063794E+02  0.28148428556E+03  0.91595085197E+02 0.  0.
         23    2    4    4    0    0  0.14878830587E+03 -0.18094442604E+03  0.91678789545E+03  0.95026108840E+03  0.87276833179E+02 0.  0.
          4    1    3    3  502    0 -0.11660367729E+03  0.78316915523E+02  0.19160692343E+03  0.23757771343E+03  0.00000000000E+00 0. -1.
         -4    1    3    3    0  502 -0.29032942854E+03  0.13566322632E+03  0.25012876972E+03  0.40652194220E+03  0.00000000000E+00 0.  1.
         13    1    5    5    0    0  0.83561672613E+02 -0.31860360335E+02 -0.19203382749E+02  0.91468057810E+02  0.00000000000E+00 0.  1.
        -13    1    5    5    0    0  0.17458312735E+03 -0.11753554721E+01  0.75003446542E+02  0.19001622775E+03  0.00000000000E+00 0. -1.
          3    1    6    6  503    0  0.90211136112E+02 -0.44019794785E+02  0.40411084162E+03  0.41639087854E+03  0.00000000000E+00 0. -1.
         -3    1    6    6    0  503  0.58577169756E+02 -0.13692463125E+03  0.51267705383E+03  0.53387020987E+03  0.00000000000E+00 0.  1.
<mgrwt>
<rscale>  0 0.48712409E+03</rscale>
<asrwt>0</asrwt>
<pdfrwt beam="1">  1        1 0.35501645E-01 0.48712409E+03</pdfrwt>
<pdfrwt beam="2">  1       -1 0.25308989E+00 0.48712409E+03</pdfrwt>
<totfact> 0.88610245E+00</totfact>
</mgrwt>
</event>
<event>
12    1  0.1338445E-007  0.5669265E+03  0.7818608E-02  0.9976503E-01
          2   -1    0    0  501    0  0.00000000000E+00  0.00000000000E+00  0.85650206636E+03  0.85650206636E+03  0.00000000000E+00 0.  1.
         -2   -1    0    0    0  501 -0.00000000000E+00 -0.00000000000E+00 -0.53644343235E+03  0.53644343235E+03  0.00000000000E+00 0. -1.
         23    2    1    2    0    0  0.33819811600E+03 -0.41704492473E+03  0.19197965014E+03  0.57762717788E+03  0.92154954561E+02 0.  0.
    5000000    2    1    2    0    0 -0.33819811600E+03  0.41704492473E+03  0.12807898388E+03  0.81531832083E+03  0.60002941867E+03 0.  0.
         23    2    4    4    0    0 -0.31249702023E+02  0.21080725207E+03  0.31503101893E+03  0.39060926493E+03  0.88965237934E+02 0.  0.
         23    2    4    4    0    0 -0.30694841398E+03  0.20623767266E+03 -0.18695203506E+03  0.42470905590E+03  0.93141893293E+02 0.  0.
          1    1    3    3  502    0  0.53158255816E+02 -0.12750587146E+03  0.39807242263E+02  0.14376426522E+03  0.00000000000E+00 0. -1.
         -1    1    3    3    0  502  0.28503986019E+03 -0.28953905327E+03  0.15217240787E+03  0.43386291266E+03  0.00000000000E+00 0.  1.
         13    1    5    5    0    0 -0.10298306054E+02  0.18465168741E+03  0.20738997386E+03  0.27787209653E+03  0.00000000000E+00 0.  1.
        -13    1    5    5    0    0 -0.20951395969E+02  0.26155564655E+02  0.10764104507E+03  0.11273716840E+03  0.00000000000E+00 0. -1.
          2    1    6    6  503    0 -0.16455512202E+03  0.92919357137E+02 -0.14436972849E+03  0.23781298034E+03  0.00000000000E+00 0. -1.
         -2    1    6    6    0  503 -0.14239329196E+03  0.11331831552E+03 -0.42582306562E+02  0.18689607556E+03  0.00000000000E+00 0.  1.
<mgrwt>
<rscale>  0 0.56692648E+03</rscale>
<asrwt>0</asrwt>
<pdfrwt beam="1">  1        2 0.13176955E+00 0.56692648E+03</pdfrwt>
<pdfrwt beam="2">  1       -2 0.82529759E-01 0.56692648E+03</pdfrwt>
<totfact> 0.41788586E+01</totfact>
</mgrwt>
</event>
<event>
12    1  0.1338445E-007  0.4293343E+03  0.7818608E-02  0.1034070E+00
         -2   -1    0    0    0  501 -0.00000000000E+00  0.00000000000E+00  0.13704097751E+03  0.13704097751E+03  0.00000000000E+00 0.  1.
          2   -1    0    0  501    0  0.00000000000E+00 -0.00000000000E+00 -0.17590118799E+04  0.17590118799E+04  0.00000000000E+00 0. -1.
         23    2    1    2    0    0  0.14600091966E+03  0.16830551443E+03 -0.89853031790E+03  0.93011475360E+03  0.90076123100E+02 0.  0.
    5000000    2    1    2    0    0 -0.14600091966E+03 -0.16830551443E+03 -0.72344058450E+03  0.96593810382E+03  0.60002260489E+03 0.  0.
         23    2    4    4    0    0 -0.44837560581E+01 -0.36334638374E+03 -0.35452867362E+03  0.51555347767E+03  0.89800385708E+02 0.  0.
         23    2    4    4    0    0 -0.14151716360E+03  0.19504086931E+03 -0.36891191088E+03  0.45038462615E+03  0.93178673456E+02 0.  0.
          2    1    3    3  502    0  0.17784786400E+02  0.66315152285E+02 -0.38529052419E+03  0.39136017437E+03  0.00000000000E+00 0. -1.
         -2    1    3    3    0  502  0.12821613326E+03  0.10199036214E+03 -0.51323979371E+03  0.53875457923E+03  0.00000000000E+00 0.  1.
         11    1    5    5    0    0 -0.46798887898E+02 -0.21505707036E+03 -0.21001711911E+03  0.30421517013E+03  0.00000000000E+00 0. -1.
        -11    1    5    5    0    0  0.42315131840E+02 -0.14828931338E+03 -0.14451155452E+03  0.21133830754E+03  0.00000000000E+00 0.  1.
          2    1    6    6  503    0 -0.40192198724E+02  0.11780469417E+03 -0.23254133686E+03  0.26375904184E+03  0.00000000000E+00 0. -1.
         -2    1    6    6    0  503 -0.10132496488E+03  0.77236175141E+02 -0.13637057402E+03  0.18662558431E+03  0.00000000000E+00 0.  1.
<mgrwt>
<rscale>  0 0.42933434E+03</rscale>
<asrwt>0</asrwt>
<pdfrwt beam="1">  1        2 0.27061717E+00 0.42933434E+03</pdfrwt>
<pdfrwt beam="2">  1       -2 0.21083231E-01 0.42933434E+03</pdfrwt>
<totfact> 0.18674356E+02</totfact>
</mgrwt>
</event>
<event>
12    1  0.1338445E-007  0.7105093E+03  0.7818608E-02  0.9699427E-01
         -3   -1    0    0    0  501 -0.00000000000E+00  0.00000000000E+00  0.65963593850E+03  0.65963593850E+03  0.00000000000E+00 0.  1.
          3   -1    0    0  501    0  0.00000000000E+00 -0.00000000000E+00 -0.96566139877E+03  0.96566139877E+03  0.00000000000E+00 0. -1.
         23    2    1    2    0    0 -0.67241424291E+03 -0.46372341883E+02 -0.27259444537E+02  0.68084104122E+03  0.92250408887E+02 0.  0.
    5000000    2    1    2    0    0  0.67241424291E+03  0.46372341883E+02 -0.27876601573E+03  0.94445629606E+03  0.59999657956E+03 0.  0.
         23    2    4    4    0    0  0.82614232562E+02  0.78270089541E+02  0.14970525949E+03  0.20908508482E+03  0.91397973917E+02 0.  0.
         23    2    4    4    0    0  0.58980001034E+03 -0.31897747658E+02 -0.42847127522E+03  0.73537121124E+03  0.91113479394E+02 0.  0.
          4    1    3    3  502    0 -0.43414225107E+03  0.26489471988E+01  0.12607914646E+02  0.43433336344E+03  0.00000000000E+00 0. -1.
         -4    1    3    3    0  502 -0.23827199184E+03 -0.49021289082E+02 -0.39867359182E+02  0.24650767778E+03  0.00000000000E+00 0.  1.
         11    1    5    5    0    0 -0.16021740366E+02  0.34516276715E+02  0.39683559654E+02  0.54980491353E+02  0.00000000000E+00 0.  1.
        -11    1    5    5    0    0  0.98635972928E+02  0.43753812826E+02  0.11002169983E+03  0.15410459346E+03  0.00000000000E+00 0. -1.
          4    1    6    6  503    0  0.32008478641E+03 -0.62736364214E+02 -0.23334775121E+03  0.40105023985E+03  0.00000000000E+00 0. -1.
         -4    1    6    6    0  503  0.26971522393E+03  0.30838616556E+02 -0.19512352400E+03  0.33432097139E+03  0.00000000000E+00 0.  1.
<mgrwt>
<rscale>  0 0.71050931E+03</rscale>
<asrwt>0</asrwt>
<pdfrwt beam="1">  1        3 0.14856329E+00 0.71050931E+03</pdfrwt>
<pdfrwt beam="2">  1       -3 0.10148245E+00 0.71050931E+03</pdfrwt>
<totfact> 0.72750531E-01</totfact>
</mgrwt>
</event>
<event>
12    1  0.1338445E-007  0.7196983E+03  0.7818608E-02  0.9684126E-01
         -2   -1    0    0    0  501 -0.00000000000E+00  0.00000000000E+00  0.38653537556E+03  0.38653537556E+03  0.00000000000E+00 0.  1.
          2   -1    0    0  501    0  0.00000000000E+00 -0.00000000000E+00 -0.31033475234E+04  0.31033475234E+04  0.00000000000E+00 0. -1.
         23    2    1    2    0    0  0.62809790315E+03  0.19285797886E+03 -0.35063282913E+02  0.66439463064E+03  0.92139109240E+02 0.  0.
    5000000    2    1    2    0    0 -0.62809790315E+03 -0.19285797886E+03 -0.26817488649E+04  0.28254882683E+04  0.59992149809E+03 0.  0.
         23    2    4    4    0    0 -0.64209038383E+03 -0.22886128533E+03 -0.26184806512E+04  0.27071680143E+04  0.87522499220E+02 0.  0.
         23    2    4    4    0    0  0.13992480679E+02  0.36003306463E+02 -0.63268213667E+02  0.11832025398E+03  0.92221407762E+02 0.  0.
          3    1    3    3  502    0  0.28265492419E+03  0.12685290194E+03 -0.41900828568E+02  0.31263580143E+03  0.00000000000E+00 0. -1.
         -3    1    3    3    0  502  0.34544297896E+03  0.66005076919E+02  0.68375456552E+01  0.35175882920E+03  0.00000000000E+00 0.  1.
         13    1    5    5    0    0 -0.52539136191E+03 -0.22193724458E+03 -0.21689586707E+04  0.22426934563E+04  0.00000000000E+00 0. -1.
        -13    1    5    5    0    0 -0.11669902192E+03 -0.69240407462E+01 -0.44952198055E+03  0.46447455803E+03  0.00000000000E+00 0.  1.
          2    1    6    6  503    0  0.47361907998E+02  0.31707982057E+02 -0.14051278600E+02  0.58702511749E+02  0.00000000000E+00 0. -1.
         -2    1    6    6    0  503 -0.33369427319E+02  0.42953244057E+01 -0.49216935067E+02  0.59617742231E+02  0.00000000000E+00 0.  1.
<mgrwt>
<rscale>  0 0.71969827E+03</rscale>
<asrwt>0</asrwt>
<pdfrwt beam="1">  1        2 0.47743807E+00 0.71969827E+03</pdfrwt>
<pdfrwt beam="2">  1       -2 0.59466983E-01 0.71969827E+03</pdfrwt>
<totfact> 0.42550345E+00</totfact>
</mgrwt>
</event>
<event>
12    1  0.1338445E-007  0.1116902E+04  0.7818608E-02  0.9188872E-01
         -2   -1    0    0    0  501 -0.00000000000E+00  0.00000000000E+00  0.45491614077E+03  0.45491614077E+03  0.00000000000E+00 0. -1.
          2   -1    0    0  501    0  0.00000000000E+00 -0.00000000000E+00 -0.28328482085E+04  0.28328482085E+04  0.00000000000E+00 0.  1.
         23    2    1    2    0    0  0.43101552961E+03  0.95751787261E+03 -0.97483827440E+03  0.14355188815E+04  0.88260607142E+02 0.  0.
    5000000    2    1    2    0    0 -0.43101552961E+03 -0.95751787261E+03 -0.14030937934E+04  0.18522454678E+04  0.59960505080E+03 0.  0.
         23    2    4    4    0    0 -0.44608191461E+03 -0.99617577351E+03 -0.11941168857E+04  0.16198653310E+04  0.81812637296E+02 0.  0.
         23    2    4    4    0    0  0.15066385003E+02  0.38657900907E+02 -0.20897690771E+03  0.23238013684E+03  0.92777964955E+02 0.  0.
          2    1    3    3  502    0  0.33646543574E+03  0.74890209481E+03 -0.81000445477E+03  0.11533302016E+04  0.00000000000E+00 0. -1.
         -2    1    3    3    0  502  0.94550093867E+02  0.20861577779E+03 -0.16483381962E+03  0.28218867994E+03  0.00000000000E+00 0.  1.
         11    1    5    5    0    0 -0.21945536541E+03 -0.50560228642E+03 -0.66272855762E+03  0.86197649070E+03  0.00000000000E+00 0.  1.
        -11    1    5    5    0    0 -0.22662654920E+03 -0.49057348709E+03 -0.53138832803E+03  0.75788884027E+03  0.00000000000E+00 0. -1.
          4    1    6    6  503    0  0.47995048272E+02  0.34246269653E+02 -0.81158932939E+02  0.10031502400E+03  0.00000000000E+00 0. -1.
         -4    1    6    6    0  503 -0.32928663270E+02  0.44116312541E+01 -0.12781797477E+03  0.13206511284E+03  0.00000000000E+00 0.  1.
<mgrwt>
<rscale>  0 0.11169025E+04</rscale>
<asrwt>0</asrwt>
<pdfrwt beam="1">  1        2 0.43582279E+00 0.11169025E+04</pdfrwt>
<pdfrwt beam="2">  1       -2 0.69987101E-01 0.11169025E+04</pdfrwt>
<totfact> 0.41169921E+00</totfact>
</mgrwt>
</event>
<event>
12    1  0.1338445E-007  0.8988933E+03  0.7818608E-02  0.9426966E-01
          1   -1    0    0  501    0  0.00000000000E+00  0.00000000000E+00  0.13689792162E+04  0.13689792162E+04  0.00000000000E+00 0.  1.
         -1   -1    0    0    0  501 -0.00000000000E+00 -0.00000000000E+00 -0.95895131163E+03  0.95895131163E+03  0.00000000000E+00 0. -1.
         23    2    1    2    0    0  0.74496895348E+03  0.48827089355E+03  0.78440319600E+03  0.11905603926E+04  0.93586684000E+02 0.  0.
    5000000    2    1    2    0    0 -0.74496895348E+03 -0.48827089355E+03 -0.37437529144E+03  0.11373701352E+04  0.60005562949E+03 0.  0.
         23    2    4    4    0    0 -0.22543584986E+03 -0.13338316892E+03  0.14862727596E+03  0.31416774692E+03  0.89436647354E+02 0.  0.
         23    2    4    4    0    0 -0.51953310362E+03 -0.35488772463E+03 -0.52300256740E+03  0.82320238829E+03  0.90942529813E+02 0.  0.
          2    1    3    3  502    0  0.59485711169E+03  0.34924621254E+03  0.63051859431E+03  0.93454887410E+03  0.00000000000E+00 0.  1.
         -2    1    3    3    0  502  0.15011184179E+03  0.13902468101E+03  0.15388460169E+03  0.25601151852E+03  0.00000000000E+00 0. -1.
         13    1    5    5    0    0 -0.33090295272E+02 -0.45477160611E+02  0.67008836907E+02  0.87483278414E+02  0.00000000000E+00 0. -1.
        -13    1    5    5    0    0 -0.19234555459E+03 -0.87906008311E+02  0.81618439052E+02  0.22668446850E+03  0.00000000000E+00 0.  1.
          2    1    6    6  503    0 -0.31036646417E+03 -0.26456112963E+03 -0.33046261564E+03  0.52490520452E+03  0.00000000000E+00 0. -1.
         -2    1    6    6    0  503 -0.20916663945E+03 -0.90326594997E+02 -0.19253995176E+03  0.29829718377E+03  0.00000000000E+00 0.  1.
<mgrwt>
<rscale>  0 0.89889327E+03</rscale>
<asrwt>0</asrwt>
<pdfrwt beam="1">  1        1 0.21061219E+00 0.89889327E+03</pdfrwt>
<pdfrwt beam="2">  1       -1 0.14753097E+00 0.89889327E+03</pdfrwt>
<totfact> 0.30021359E+00</totfact>
</mgrwt>
</event>
<event>
12    1  0.1338445E-007  0.3796489E+03  0.7818608E-02  0.1051064E+00
          2   -1    0    0  501    0  0.00000000000E+00  0.00000000000E+00  0.11235218566E+04  0.11235218566E+04  0.00000000000E+00 0. -1.
         -2   -1    0    0    0  501 -0.00000000000E+00 -0.00000000000E+00 -0.35812434975E+03  0.35812434975E+03  0.00000000000E+00 0.  1.
         23    2    1    2    0    0 -0.31202819816E+03 -0.17317145848E+03 -0.88046314396E+02  0.37850909763E+03  0.90371638395E+02 0.  0.
    5000000    2    1    2    0    0  0.31202819816E+03  0.17317145848E+03  0.85344382119E+03  0.11031371087E+04  0.60099515317E+03 0.  0.
         23    2    4    4    0    0  0.46674026812E+02  0.74892956161E+01 -0.69645879308E+02  0.12416277070E+03  0.91275904799E+02 0.  0.
         23    2    4    4    0    0  0.26535417135E+03  0.16568216286E+03  0.92308970050E+03  0.97897433797E+03  0.91829972747E+02 0.  0.
          1    1    3    3  502    0 -0.19252801633E+03 -0.62075026597E+02 -0.26027830682E+02  0.20395537250E+03  0.00000000000E+00 0. -1.
         -1    1    3    3    0  502 -0.11950018183E+03 -0.11109643188E+03 -0.62018483714E+02  0.17455372513E+03  0.00000000000E+00 0.  1.
         13    1    5    5    0    0  0.61149063909E+02  0.46220272795E+01 -0.92826722773E+01  0.62022086047E+02  0.00000000000E+00 0. -1.
        -13    1    5    5    0    0 -0.14475037097E+02  0.28672683366E+01 -0.60363207030E+02  0.62140684657E+02  0.00000000000E+00 0.  1.
          2    1    6    6  503    0  0.65103567293E+02  0.14099208405E+02  0.11663784081E+03  0.13431920213E+03  0.00000000000E+00 0. -1.
         -2    1    6    6    0  503  0.20025060406E+03  0.15158295446E+03  0.80645185969E+03  0.84465513584E+03  0.00000000000E+00 0.  1.
<mgrwt>
<rscale>  0 0.37964887E+03</rscale>
<asrwt>0</asrwt>
<pdfrwt beam="1">  1        2 0.17284952E+00 0.37964887E+03</pdfrwt>
<pdfrwt beam="2">  1       -2 0.55096054E-01 0.37964887E+03</pdfrwt>
<totfact> 0.69292166E+01</totfact>
</mgrwt>
</event>
<event>
12    1  0.1338445E-007  0.1680823E+04  0.7818608E-02  0.8772378E-01
          2   -1    0    0  501    0  0.00000000000E+00  0.00000000000E+00  0.23860737207E+04  0.23860737207E+04  0.00000000000E+00 0. -1.
         -2   -1    0    0    0  501 -0.00000000000E+00 -0.00000000000E+00 -0.14293745351E+04  0.14293745351E+04  0.00000000000E+00 0.  1.
         23    2    1    2    0    0 -0.12267166962E+04  0.10763901005E+04  0.12425717321E+04  0.20532268798E+04  0.91140601723E+02 0.  0.
    5000000    2    1    2    0    0  0.12267166962E+04 -0.10763901005E+04 -0.28587254642E+03  0.17622213760E+04  0.60020959998E+03 0.  0.
         23    2    4    4    0    0  0.10041176882E+04 -0.54319985635E+03 -0.27196888638E+03  0.11771692401E+04  0.91879970059E+02 0.  0.
         23    2    4    4    0    0  0.22259900798E+03 -0.53319024419E+03 -0.13903660040E+02  0.58505213590E+03  0.90832456249E+02 0.  0.
          3    1    3    3  502    0 -0.36275472408E+03  0.29806693625E+03  0.40628906670E+03  0.62089104846E+03  0.00000000000E+00 0. -1.
         -3    1    3    3    0  502 -0.86396197212E+03  0.77832316430E+03  0.83628266538E+03  0.14323358313E+04  0.00000000000E+00 0.  1.
         11    1    5    5    0    0  0.96826249817E+03 -0.53942031569E+03 -0.25506736205E+03  0.11373503864E+04  0.00000000000E+00 0. -1.
        -11    1    5    5    0    0  0.35855190051E+02 -0.37795406650E+01 -0.16901524328E+02  0.39818853648E+02  0.00000000000E+00 0.  1.
          3    1    6    6  503    0  0.15894478754E+03 -0.26323659211E+03 -0.10213977755E+02  0.30767072375E+03  0.00000000000E+00 0. -1.
         -3    1    6    6    0  503  0.63654220435E+02 -0.26995365208E+03 -0.36896822858E+01  0.27738141215E+03  0.00000000000E+00 0.  1.
<mgrwt>
<rscale>  0 0.16808228E+04</rscale>
<asrwt>0</asrwt>
<pdfrwt beam="1">  1        2 0.36708826E+00 0.16808228E+04</pdfrwt>
<pdfrwt beam="2">  1       -2 0.21990377E+00 0.16808228E+04</pdfrwt>
<totfact> 0.36888779E-01</totfact>
</mgrwt>
</event>
<event>
12    1  0.1338445E-007  0.7835115E+03  0.7818608E-02  0.9584195E-01
         -1   -1    0    0    0  501 -0.00000000000E+00  0.00000000000E+00  0.58416132796E+03  0.58416132796E+03  0.00000000000E+00 0.  1.
          1   -1    0    0  501    0  0.00000000000E+00 -0.00000000000E+00 -0.12964814343E+04  0.12964814343E+04  0.00000000000E+00 0. -1.
         23    2    1    2    0    0 -0.61372486945E+03 -0.28271430226E+03 -0.69940369006E+03  0.97689454907E+03  0.92584265681E+02 0.  0.
    5000000    2    1    2    0    0  0.61372486945E+03  0.28271430226E+03 -0.12916416247E+02  0.90374821315E+03  0.60000700568E+03 0.  0.
         23    2    4    4    0    0 -0.86080737708E+02  0.12583848453E+03  0.78411317479E+01  0.18032247251E+03  0.95966104176E+02 0.  0.
         23    2    4    4    0    0  0.69980560716E+03  0.15687581773E+03 -0.20757547995E+02  0.72342574064E+03  0.92606783880E+02 0.  0.
          1    1    3    3  502    0 -0.17548717660E+03 -0.12370713300E+03 -0.24703083333E+03  0.32729716852E+03  0.00000000000E+00 0. -1.
         -1    1    3    3    0  502 -0.43823769285E+03 -0.15900716925E+03 -0.45237285672E+03  0.64959738055E+03  0.00000000000E+00 0.  1.
         11    1    5    5    0    0 -0.70433744298E+01  0.68355119639E+02  0.37379473401E+02  0.78225676961E+02  0.00000000000E+00 0. -1.
        -11    1    5    5    0    0 -0.79037363278E+02  0.57483364888E+02 -0.29538341653E+02  0.10209679554E+03  0.00000000000E+00 0.  1.
          4    1    6    6  503    0  0.30952676940E+03  0.99967094890E+02  0.25749583111E+02  0.32628711600E+03  0.00000000000E+00 0. -1.
         -4    1    6    6    0  503  0.39027883776E+03  0.56908722838E+02 -0.46507131106E+02  0.39713862464E+03  0.00000000000E+00 0.  1.
<mgrwt>
<rscale>  0 0.78351148E+03</rscale>
<asrwt>0</asrwt>
<pdfrwt beam="1">  1        1 0.19945868E+00 0.78351148E+03</pdfrwt>
<pdfrwt beam="2">  1       -1 0.89870974E-01 0.78351148E+03</pdfrwt>
<totfact> 0.11359609E+01</totfact>
</mgrwt>
</event>
<event>
12    1  0.1338445E-007  0.6597120E+03  0.7818608E-02  0.9788724E-01
          1   -1    0    0  501    0  0.00000000000E+00  0.00000000000E+00  0.53550478632E+03  0.53550478632E+03  0.00000000000E+00 0. -1.
         -1   -1    0    0    0  501 -0.00000000000E+00 -0.00000000000E+00 -0.83755382636E+03  0.83755382636E+03  0.00000000000E+00 0.  1.
         23    2    1    2    0    0  0.12481533317E+03  0.51550895349E+03 -0.13929241124E+03  0.55600682649E+03  0.91721680962E+02 0.  0.
    5000000    2    1    2    0    0 -0.12481533317E+03 -0.51550895349E+03 -0.16275662880E+03  0.81705178618E+03  0.59979625921E+03 0.  0.
         23    2    4    4    0    0 -0.35423328131E+03 -0.29822714895E+03 -0.99815492963E+02  0.48218877100E+03  0.90123405828E+02 0.  0.
         23    2    4    4    0    0  0.22941794814E+03 -0.21728180453E+03 -0.62941135842E+02  0.33486301518E+03  0.91256094843E+02 0.  0.
          1    1    3    3  502    0  0.42485112702E+02  0.21229901298E+03 -0.10290140731E+03  0.23971765755E+03  0.00000000000E+00 0. -1.
         -1    1    3    3    0  502  0.82330220466E+02  0.30320994051E+03 -0.36391003924E+02  0.31628916894E+03  0.00000000000E+00 0.  1.
         11    1    5    5    0    0 -0.24843388620E+03 -0.15207925280E+03 -0.64483856840E+02  0.29833816842E+03  0.00000000000E+00 0.  1.
        -11    1    5    5    0    0 -0.10579939511E+03 -0.14614789615E+03 -0.35331636123E+02  0.18385060257E+03  0.00000000000E+00 0. -1.
          4    1    6    6  503    0  0.85637066797E+02 -0.64425281028E+02  0.20359956772E+02  0.10908185864E+03  0.00000000000E+00 0.  1.
         -4    1    6    6    0  503  0.14378088135E+03 -0.15285652350E+03 -0.83301092614E+02  0.22578115654E+03  0.00000000000E+00 0. -1.
<mgrwt>
<rscale>  0 0.65971204E+03</rscale>
<asrwt>0</asrwt>
<pdfrwt beam="1">  1        1 0.82385352E-01 0.65971204E+03</pdfrwt>
<pdfrwt beam="2">  1       -1 0.12885443E+00 0.65971204E+03</pdfrwt>
<totfact> 0.21648255E+01</totfact>
</mgrwt>
</event>
<event>
12    1  0.1338445E-007  0.9681103E+03  0.7818608E-02  0.9344229E-01
         -3   -1    0    0    0  501 -0.00000000000E+00  0.00000000000E+00  0.14720198165E+04  0.14720198165E+04  0.00000000000E+00 0.  1.
          3   -1    0    0  501    0  0.00000000000E+00 -0.00000000000E+00 -0.64875802764E+03  0.64875802764E+03  0.00000000000E+00 0. -1.
         23    2    1    2    0    0 -0.73495134485E+03 -0.48925453133E+03  0.41967294560E+03  0.97943900857E+03  0.60431072567E+02 0.  0.
    5000000    2    1    2    0    0  0.73495134485E+03  0.48925453133E+03  0.40358884328E+03  0.11413388356E+04  0.60020572096E+03 0.  0.
         23    2    4    4    0    0  0.74024165390E+03  0.21066483159E+03  0.28834856482E+03  0.82613442683E+03  0.83760485391E+02 0.  0.
         23    2    4    4    0    0 -0.52903090577E+01  0.27858969974E+03  0.11524027846E+03  0.31520440876E+03  0.91832942615E+02 0.  0.
          1    1    3    3  502    0 -0.21206309993E+03 -0.10938316329E+03  0.11789529638E+03  0.26614795824E+03  0.00000000000E+00 0. -1.
         -1    1    3    3    0  502 -0.52288824491E+03 -0.37987136804E+03  0.30177764921E+03  0.71329105033E+03  0.00000000000E+00 0.  1.
         13    1    5    5    0    0  0.57863094543E+03  0.19260021399E+03  0.20482073665E+03  0.64331963098E+03  0.00000000000E+00 0. -1.
        -13    1    5    5    0    0  0.16161070847E+03  0.18064617594E+02  0.83527828176E+02  0.18281479585E+03  0.00000000000E+00 0.  1.
          4    1    6    6  503    0  0.29812462851E+01  0.11839706741E+03  0.98284864792E+02  0.15390473693E+03  0.00000000000E+00 0. -1.
         -4    1    6    6    0  503 -0.82715553428E+01  0.16019263233E+03  0.16955413666E+02  0.16129967183E+03  0.00000000000E+00 0.  1.
<mgrwt>
<rscale>  0 0.96811034E+03</rscale>
<asrwt>0</asrwt>
<pdfrwt beam="1">  1        3 0.99808927E-01 0.96811034E+03</pdfrwt>
<pdfrwt beam="2">  1       -3 0.22646459E+00 0.96811034E+03</pdfrwt>
<totfact> 0.22651835E-01</totfact>
</mgrwt>
</event>
<event>
12    1  0.1338445E-007  0.1260732E+04  0.7818608E-02  0.9061298E-01
         -2   -1    0    0    0  501 -0.00000000000E+00  0.00000000000E+00  0.13366760299E+04  0.13366760299E+04  0.00000000000E+00 0.  1.
          2   -1    0    0  501    0  0.00000000000E+00 -0.00000000000E+00 -0.12734428544E+04  0.12734428544E+04  0.00000000000E+00 0. -1.
         23    2    1    2    0    0  0.10339660568E+04 -0.65639630874E+03 -0.11969482300E+03  0.12341111893E+04  0.93603718658E+02 0.  0.
    5000000    2    1    2    0    0 -0.10339660568E+04  0.65639630874E+03  0.18292799854E+03  0.13760076950E+04  0.59999383601E+03 0.  0.
         23    2    4    4    0    0 -0.43772231454E+03  0.50691228563E+03 -0.11761564611E+03  0.68588167310E+03  0.89662362873E+02 0.  0.
         23    2    4    4    0    0 -0.59624374228E+03  0.14948402311E+03  0.30054364465E+03  0.69012602189E+03  0.89974276221E+02 0.  0.
          4    1    3    3  502    0  0.63796510524E+03 -0.41408383983E+03 -0.11922377476E+03  0.76985661677E+03  0.00000000000E+00 0. -1.
         -4    1    3    3    0  502  0.39600095157E+03 -0.24231246891E+03 -0.47104824063E+00  0.46425457254E+03  0.00000000000E+00 0.  1.
         11    1    5    5    0    0 -0.14379217461E+03  0.10687265025E+03 -0.37566299952E+02  0.18305512760E+03  0.00000000000E+00 0.  1.
        -11    1    5    5    0    0 -0.29393013993E+03  0.40003963538E+03 -0.80049346154E+02  0.50282654550E+03  0.00000000000E+00 0. -1.
          2    1    6    6  503    0 -0.40898653800E+03  0.59431369536E+02  0.19214187492E+03  0.45576372832E+03  0.00000000000E+00 0. -1.
         -2    1    6    6    0  503 -0.18725720428E+03  0.90052653574E+02  0.10840176973E+03  0.23436229357E+03  0.00000000000E+00 0.  1.
<mgrwt>
<rscale>  0 0.12607317E+04</rscale>
<asrwt>0</asrwt>
<pdfrwt beam="1">  1        2 0.19591429E+00 0.12607317E+04</pdfrwt>
<pdfrwt beam="2">  1       -2 0.20564247E+00 0.12607317E+04</pdfrwt>
<totfact> 0.20197697E+00</totfact>
</mgrwt>
</event>
<event>
12    1  0.1338445E-007  0.4898069E+03  0.7818608E-02  0.1016474E+00
         -2   -1    0    0    0  501 -0.00000000000E+00  0.00000000000E+00  0.57961903591E+03  0.57961903591E+03  0.00000000000E+00 0.  1.
          2   -1    0    0  501    0  0.00000000000E+00 -0.00000000000E+00 -0.12922485401E+04  0.12922485401E+04  0.00000000000E+00 0. -1.
         23    2    1    2    0    0 -0.10132400117E+03  0.34906282610E+03  0.40545025945E+03  0.55190915590E+03  0.90013297368E+02 0.  0.
    5000000    2    1    2    0    0  0.10132400117E+03 -0.34906282610E+03 -0.11180797637E+04  0.13199584201E+04  0.60006371593E+03 0.  0.
         23    2    4    4    0    0  0.47893746136E+02  0.11544880835E+03 -0.74441012812E+02  0.17275696987E+03  0.93173322257E+02 0.  0.
         23    2    4    4    0    0  0.53430255038E+02 -0.46451163445E+03 -0.10436387509E+04  0.11472014503E+04  0.90903655109E+02 0.  0.
          2    1    3    3  502    0 -0.10868712565E+03  0.22703199194E+03  0.25945510967E+03  0.36148771844E+03  0.00000000000E+00 0. -1.
         -2    1    3    3    0  502  0.73631244769E+01  0.12203083416E+03  0.14599514977E+03  0.19042143746E+03  0.00000000000E+00 0.  1.
         11    1    5    5    0    0  0.37627106685E+02  0.45052993609E+02  0.12909949052E+02  0.60101898266E+02  0.00000000000E+00 0.  1.
        -11    1    5    5    0    0  0.10266639450E+02  0.70395814743E+02 -0.87350961864E+02  0.11265507160E+03  0.00000000000E+00 0. -1.
          3    1    6    6  503    0  0.49513095054E+02 -0.10301157705E+03 -0.22849016183E+03  0.25548128237E+03  0.00000000000E+00 0. -1.
         -3    1    6    6    0  503  0.39171599840E+01 -0.36150005740E+03 -0.81514858903E+03  0.89172016790E+03  0.00000000000E+00 0.  1.
<mgrwt>
<rscale>  0 0.48980688E+03</rscale>
<asrwt>0</asrwt>
<pdfrwt beam="1">  1        2 0.19880746E+00 0.48980688E+03</pdfrwt>
<pdfrwt beam="2">  1       -2 0.89172161E-01 0.48980688E+03</pdfrwt>
<totfact> 0.19108385E+01</totfact>
</mgrwt>
</event>
<event>
12    1  0.1338445E-007  0.6945244E+03  0.7818608E-02  0.9726642E-01
          2   -1    0    0  501    0  0.00000000000E+00  0.00000000000E+00  0.18175002821E+04  0.18175002821E+04  0.00000000000E+00 0. -1.
         -2   -1    0    0    0  501 -0.00000000000E+00 -0.00000000000E+00 -0.79964601556E+03  0.79964601556E+03  0.00000000000E+00 0.  1.
         23    2    1    2    0    0  0.52920042187E+03 -0.24990838592E+03  0.15261864906E+04  0.16370291821E+04  0.90066925918E+02 0.  0.
    5000000    2    1    2    0    0 -0.52920042187E+03  0.24990838592E+03 -0.50833222406E+03  0.98011711555E+03  0.59976714008E+03 0.  0.
         23    2    4    4    0    0 -0.63238735472E+03  0.14929974356E+03 -0.46208922999E+03  0.80265434489E+03  0.92322050799E+02 0.  0.
         23    2    4    4    0    0  0.10318693284E+03  0.10060864236E+03 -0.46242994075E+02  0.17746277067E+03  0.92655158764E+02 0.  0.
          2    1    3    3  502    0  0.21653567245E+03 -0.14531423198E+03  0.61369362837E+03  0.66680116449E+03  0.00000000000E+00 0. -1.
         -2    1    3    3    0  502  0.31266474942E+03 -0.10459415394E+03  0.91249286226E+03  0.97022801766E+03  0.00000000000E+00 0.  1.
         13    1    5    5    0    0 -0.17252143298E+03  0.29957566487E+02 -0.77876451395E+02  0.19163987662E+03  0.00000000000E+00 0.  1.
        -13    1    5    5    0    0 -0.45986592173E+03  0.11934217707E+03 -0.38421277859E+03  0.61101446827E+03  0.00000000000E+00 0. -1.
          4    1    6    6  503    0  0.70676612390E+02  0.44471219664E+02  0.18805691645E+02  0.85595133948E+02  0.00000000000E+00 0. -1.
         -4    1    6    6    0  503  0.32510320453E+02  0.56137422694E+02 -0.65048685720E+02  0.91867636720E+02  0.00000000000E+00 0.  1.
<mgrwt>
<rscale>  0 0.69452444E+03</rscale>
<asrwt>0</asrwt>
<pdfrwt beam="1">  1        2 0.27961543E+00 0.69452444E+03</pdfrwt>
<pdfrwt beam="2">  1       -2 0.12302246E+00 0.69452444E+03</pdfrwt>
<totfact> 0.43868993E+00</totfact>
</mgrwt>
</event>
<event>
12    1  0.1338445E-007  0.7344380E+03  0.7818608E-02  0.9660086E-01
          2   -1    0    0  501    0  0.00000000000E+00  0.00000000000E+00  0.15453198360E+04  0.15453198360E+04  0.00000000000E+00 0. -1.
         -2   -1    0    0    0  501 -0.00000000000E+00 -0.00000000000E+00 -0.73720251538E+03  0.73720251538E+03  0.00000000000E+00 0.  1.
         23    2    1    2    0    0  0.46236651332E+03 -0.46058059921E+03 -0.40761464192E+03  0.77791030512E+03  0.11435674660E+03 0.  0.
    5000000    2    1    2    0    0 -0.46236651332E+03  0.46058059921E+03  0.12157319625E+04  0.15046120463E+04  0.59994660096E+03 0.  0.
         23    2    4    4    0    0  0.61297610084E+02  0.38721428037E+01  0.46716094299E+03  0.47919317793E+03  0.87260326777E+02 0.  0.
         23    2    4    4    0    0 -0.52366412340E+03  0.45670845641E+03  0.74857101956E+03  0.10254188683E+04  0.91206117800E+02 0.  0.
          1    1    3    3  502    0  0.39248204124E+03 -0.32365435214E+03 -0.31921790949E+03  0.60057835966E+03  0.00000000000E+00 0. -1.
         -1    1    3    3    0  502  0.69884472080E+02 -0.13692624708E+03 -0.88396732430E+02  0.17733194546E+03  0.00000000000E+00 0.  1.
         11    1    5    5    0    0  0.84050042030E+01 -0.37688385099E+02  0.14266599472E+03  0.14779933869E+03  0.00000000000E+00 0.  1.
        -11    1    5    5    0    0  0.52892605881E+02  0.41560527902E+02  0.32449494826E+03  0.33139383924E+03  0.00000000000E+00 0. -1.
          3    1    6    6  503    0 -0.20058419796E+03  0.11920208996E+03  0.26248775031E+03  0.35120218932E+03  0.00000000000E+00 0. -1.
         -3    1    6    6    0  503 -0.32307992544E+03  0.33750636645E+03  0.48608326925E+03  0.67421667902E+03  0.00000000000E+00 0.  1.
<mgrwt>
<rscale>  0 0.73443801E+03</rscale>
<asrwt>0</asrwt>
<pdfrwt beam="1">  1        2 0.23774151E+00 0.73443801E+03</pdfrwt>
<pdfrwt beam="2">  1       -2 0.11341577E+00 0.73443801E+03</pdfrwt>
<totfact> 0.75054842E+00</totfact>
</mgrwt>
</event>
<event>
12    1  0.1338445E-007  0.1353175E+04  0.7818608E-02  0.8988428E-01
          2   -1    0    0  501    0  0.00000000000E+00  0.00000000000E+00  0.18893685217E+04  0.18893685217E+04  0.00000000000E+00 0. -1.
         -2   -1    0    0    0  501 -0.00000000000E+00 -0.00000000000E+00 -0.11776316092E+04  0.11776316092E+04  0.00000000000E+00 0.  1.
         23    2    1    2    0    0  0.13469830813E+04  0.29787248502E+02 -0.15031121288E+03  0.13586832625E+04  0.90421488765E+02 0.  0.
    5000000    2    1    2    0    0 -0.13469830813E+04 -0.29787248502E+02  0.86204812540E+03  0.17083168684E+04  0.59997404187E+03 0.  0.
         23    2    4    4    0    0 -0.11801556443E+04 -0.36667856085E+02  0.92766499844E+03  0.15046299514E+04  0.96109649689E+02 0.  0.
         23    2    4    4    0    0 -0.16682743699E+03  0.68806075830E+01 -0.65616873040E+02  0.20368691705E+03  0.96457501801E+02 0.  0.
          3    1    3    3  502    0  0.52157646941E+03 -0.24487387790E+02 -0.83694442556E+02  0.52881604109E+03  0.00000000000E+00 0. -1.
         -3    1    3    3    0  502  0.82540661190E+03  0.54274636292E+02 -0.66616770328E+02  0.82986722143E+03  0.00000000000E+00 0.  1.
         11    1    5    5    0    0 -0.29931829362E+03 -0.49607609756E+02  0.22306378038E+03  0.37657642777E+03  0.00000000000E+00 0.  1.
        -11    1    5    5    0    0 -0.88083735070E+03  0.12939753671E+02  0.70460121806E+03  0.11280535236E+04  0.00000000000E+00 0. -1.
          3    1    6    6  503    0 -0.11143272697E+03  0.25355904733E+02  0.20600540116E+01  0.11429968665E+03  0.00000000000E+00 0. -1.
         -3    1    6    6    0  503 -0.55394710023E+02 -0.18475297150E+02 -0.67676927052E+02  0.89387230399E+02  0.00000000000E+00 0.  1.
<mgrwt>
<rscale>  0 0.13531747E+04</rscale>
<asrwt>0</asrwt>
<pdfrwt beam="1">  1        2 0.29067208E+00 0.13531747E+04</pdfrwt>
<pdfrwt beam="2">  1       -2 0.18117409E+00 0.13531747E+04</pdfrwt>
<totfact> 0.13081770E+00</totfact>
</mgrwt>
</event>
<event>
12    1  0.1338445E-007  0.7031797E+03  0.7818608E-02  0.9711810E-01
          2   -1    0    0  501    0  0.00000000000E+00  0.00000000000E+00  0.13175881067E+04  0.13175881067E+04  0.00000000000E+00 0. -1.
         -2   -1    0    0    0  501 -0.00000000000E+00 -0.00000000000E+00 -0.70612248259E+03  0.70612248259E+03  0.00000000000E+00 0.  1.
         23    2    1    2    0    0 -0.57799249012E+03 -0.11220301954E+03  0.94692670818E+03  0.11186666538E+04  0.89889128518E+02 0.  0.
    5000000    2    1    2    0    0  0.57799249012E+03  0.11220301954E+03 -0.33546108403E+03  0.90504393554E+03  0.59992128661E+03 0.  0.
         23    2    4    4    0    0 -0.10373044942E+03  0.46551817833E+02 -0.25405270086E+02  0.14778372124E+03  0.90925918396E+02 0.  0.
         23    2    4    4    0    0  0.68172293954E+03  0.65651201711E+02 -0.31005581394E+03  0.75726021430E+03  0.90841498376E+02 0.  0.
          3    1    3    3  502    0 -0.20445206666E+03  0.87755833807E+00  0.29726047614E+03  0.36078415756E+03  0.00000000000E+00 0. -1.
         -3    1    3    3    0  502 -0.37354042345E+03 -0.11308057788E+03  0.64966623205E+03  0.75788249624E+03  0.00000000000E+00 0.  1.
         13    1    5    5    0    0 -0.24373887662E+02  0.40282693274E+02 -0.45720168303E+02  0.65628618504E+02  0.00000000000E+00 0.  1.
        -13    1    5    5    0    0 -0.79356561754E+02  0.62691245590E+01  0.20314898217E+02  0.82155102737E+02  0.00000000000E+00 0. -1.
          1    1    6    6  503    0  0.43431639154E+03  0.37421738423E+02 -0.24429641617E+03  0.49971177035E+03  0.00000000000E+00 0. -1.
         -1    1    6    6    0  503  0.24740654799E+03  0.28229463289E+02 -0.65759397771E+02  0.25754844395E+03  0.00000000000E+00 0.  1.
<mgrwt>
<rscale>  0 0.70317971E+03</rscale>
<asrwt>0</asrwt>
<pdfrwt beam="1">  1        2 0.20270586E+00 0.70317971E+03</pdfrwt>
<pdfrwt beam="2">  1       -2 0.10863423E+00 0.70317971E+03</pdfrwt>
<totfact> 0.11237569E+01</totfact>
</mgrwt>
</event>
<event>
12    1  0.1338445E-007  0.3010716E+03  0.7818608E-02  0.1084706E+00
         -2   -1    0    0    0  501 -0.00000000000E+00  0.00000000000E+00  0.84156608791E+02  0.84156608791E+02  0.00000000000E+00 0. -1.
          2   -1    0    0  501    0  0.00000000000E+00 -0.00000000000E+00 -0.27813945944E+04  0.27813945944E+04  0.00000000000E+00 0.  1.
         23    2    1    2    0    0  0.91995262300E+02  0.45950437442E+02 -0.48749218287E+02  0.14801480563E+03  0.94643147746E+02 0.  0.
    5000000    2    1    2    0    0 -0.91995262300E+02 -0.45950437442E+02 -0.26484887673E+04  0.27175363976E+04  0.59994728973E+03 0.  0.
         23    2    4    4    0    0 -0.26841031974E+03  0.15963118470E+02 -0.65180246917E+03  0.71033881893E+03  0.86231421029E+02 0.  0.
         23    2    4    4    0    0  0.17641505744E+03 -0.61913555912E+02 -0.19966862982E+04  0.20071975786E+04  0.84441610178E+02 0.  0.
          3    1    3    3  502    0  0.68499771443E+02 -0.67387756599E+01  0.52035822456E+01  0.69026857478E+02  0.00000000000E+00 0. -1.
         -3    1    3    3    0  502  0.23495490858E+02  0.52689213102E+02 -0.53952800533E+02  0.78987948152E+02  0.00000000000E+00 0.  1.
         11    1    5    5    0    0 -0.13126469983E+03 -0.18733924334E+02 -0.40146171660E+03  0.42279178237E+03  0.00000000000E+00 0. -1.
        -11    1    5    5    0    0 -0.13714561991E+03  0.34697042804E+02 -0.25034075256E+03  0.28754703656E+03  0.00000000000E+00 0.  1.
          1    1    6    6  503    0  0.42240707619E+02 -0.52037122128E+02 -0.49907243995E+03  0.50355281727E+03  0.00000000000E+00 0. -1.
         -1    1    6    6    0  503  0.13417434982E+03 -0.98764337841E+01 -0.14976138582E+04  0.15036447614E+04  0.00000000000E+00 0.  1.
<mgrwt>
<rscale>  0 0.30107156E+03</rscale>
<asrwt>0</asrwt>
<pdfrwt beam="1">  1        2 0.42790684E+00 0.30107156E+03</pdfrwt>
<pdfrwt beam="2">  1       -2 0.12947171E-01 0.30107156E+03</pdfrwt>
<totfact> 0.12120502E+02</totfact>
</mgrwt>
</event>
<event>
12    1  0.1338445E-007  0.1344628E+04  0.7818608E-02  0.8994905E-01
         -2   -1    0    0    0  501 -0.00000000000E+00  0.00000000000E+00  0.64251533316E+03  0.64251533316E+03  0.00000000000E+00 0. -1.
          2   -1    0    0  501    0  0.00000000000E+00 -0.00000000000E+00 -0.31268715656E+04  0.31268715656E+04  0.00000000000E+00 0.  1.
         23    2    1    2    0    0  0.32920981265E+03 -0.12380901053E+04 -0.17632773976E+04  0.21815106983E+04  0.92712116677E+02 0.  0.
    5000000    2    1    2    0    0 -0.32920981265E+03  0.12380901053E+04 -0.72107883484E+03  0.15878762004E+04  0.60012493054E+03 0.  0.
         23    2    4    4    0    0  0.14404862190E+03  0.18305630272E+03 -0.79247043262E+02  0.26211375220E+03  0.90354356774E+02 0.  0.
         23    2    4    4    0    0 -0.47325843455E+03  0.10550338026E+04 -0.64183179158E+03  0.13257624482E+04  0.92887835626E+02 0.  0.
          3    1    3    3  502    0  0.15204473975E+03 -0.72114511687E+03 -0.10549071873E+04  0.12868554916E+04  0.00000000000E+00 0. -1.
         -3    1    3    3    0  502  0.17716507290E+03 -0.51694498840E+03 -0.70837021023E+03  0.89465520668E+03  0.00000000000E+00 0.  1.
         13    1    5    5    0    0  0.38580757115E+02  0.11717294536E+03 -0.22386232495E+02  0.12537590418E+03  0.00000000000E+00 0. -1.
        -13    1    5    5    0    0  0.10546786479E+03  0.65883357364E+02 -0.56860810767E+02  0.13673784802E+03  0.00000000000E+00 0.  1.
          1    1    6    6  503    0 -0.35802144824E+03  0.72660813942E+03 -0.41314672914E+03  0.90930136119E+03  0.00000000000E+00 0. -1.
         -1    1    6    6    0  503 -0.11523698632E+03  0.32842566314E+03 -0.22868506244E+03  0.41646108703E+03  0.00000000000E+00 0.  1.
<mgrwt>
<rscale>  0 0.13446280E+04</rscale>
<asrwt>0</asrwt>
<pdfrwt beam="1">  1        2 0.48105716E+00 0.13446280E+04</pdfrwt>
<pdfrwt beam="2">  1       -2 0.98848513E-01 0.13446280E+04</pdfrwt>
<totfact> 0.11970492E+00</totfact>
</mgrwt>
</event>
<event>
12    1  0.1338445E-007  0.6280078E+03  0.7818608E-02  0.9848944E-01
          2   -1    0    0  501    0  0.00000000000E+00  0.00000000000E+00  0.65101161082E+03  0.65101161082E+03  0.00000000000E+00 0.  1.
         -2   -1    0    0    0  501 -0.00000000000E+00 -0.00000000000E+00 -0.82151489076E+03  0.82151489076E+03  0.00000000000E+00 0. -1.
         23    2    1    2    0    0  0.37082497503E+03 -0.47658397751E+03 -0.51905021783E+02  0.61298356654E+03  0.91712986178E+02 0.  0.
    5000000    2    1    2    0    0 -0.37082497503E+03  0.47658397751E+03 -0.11859825816E+03  0.85954293504E+03  0.60008754412E+03 0.  0.
         23    2    4    4    0    0 -0.18245194576E+02  0.13883675797E+03  0.20785695521E+03  0.26547709329E+03  0.87550218410E+02 0.  0.
         23    2    4    4    0    0 -0.35257978045E+03  0.33774721955E+03 -0.32645521337E+03  0.59406584175E+03  0.89193789574E+02 0.  0.
          2    1    3    3  502    0  0.27366782374E+03 -0.33548471338E+03  0.34070254617E+01  0.43296152079E+03  0.00000000000E+00 0. -1.
         -2    1    3    3    0  502  0.97157151290E+02 -0.14109926414E+03 -0.55312047245E+02  0.18002204575E+03  0.00000000000E+00 0.  1.
         13    1    5    5    0    0  0.12420269857E+02  0.12107984008E+03  0.12080353826E+03  0.17148785856E+03  0.00000000000E+00 0. -1.
        -13    1    5    5    0    0 -0.30665464433E+02  0.17756917884E+02  0.87053416955E+02  0.93989234730E+02  0.00000000000E+00 0.  1.
          1    1    6    6  503    0 -0.13132813264E+03  0.18025300099E+03 -0.12268728446E+03  0.25453956973E+03  0.00000000000E+00 0. -1.
         -1    1    6    6    0  503 -0.22125164782E+03  0.15749421855E+03 -0.20376792891E+03  0.33952627202E+03  0.00000000000E+00 0.  1.
<mgrwt>
<rscale>  0 0.62800776E+03</rscale>
<asrwt>0</asrwt>
<pdfrwt beam="1">  1        2 0.10015563E+00 0.62800776E+03</pdfrwt>
<pdfrwt beam="2">  1       -2 0.12638691E+00 0.62800776E+03</pdfrwt>
<totfact> 0.21469758E+01</totfact>
</mgrwt>
</event>
<event>
12    1  0.1338445E-007  0.8493767E+03  0.7818608E-02  0.9491174E-01
          2   -1    0    0  501    0  0.00000000000E+00  0.00000000000E+00  0.13423791871E+04  0.13423791871E+04  0.00000000000E+00 0. -1.
         -2   -1    0    0    0  501 -0.00000000000E+00 -0.00000000000E+00 -0.67072450484E+03  0.67072450484E+03  0.00000000000E+00 0.  1.
         23    2    1    2    0    0 -0.83317286017E+03 -0.13098671934E+03  0.18049066703E+03  0.86740949540E+03  0.92129345274E+02 0.  0.
    5000000    2    1    2    0    0  0.83317286017E+03  0.13098671934E+03  0.49116401521E+03  0.11456941965E+04  0.60003213795E+03 0.  0.
         23    2    4    4    0    0  0.61586628662E+03  0.53260286946E+02  0.33586124443E+02  0.62598166562E+03  0.92720422686E+02 0.  0.
         23    2    4    4    0    0  0.21730657355E+03  0.77726432389E+02  0.45757789077E+03  0.51971253091E+03  0.86371543149E+02 0.  0.
          3    1    3    3  502    0 -0.48621474744E+03 -0.38510834521E+02  0.77464660693E+02  0.49385082633E+03  0.00000000000E+00 0. -1.
         -3    1    3    3    0  502 -0.34695811272E+03 -0.92475884814E+02  0.10302600634E+03  0.37355866907E+03  0.00000000000E+00 0.  1.
         11    1    5    5    0    0  0.73753642657E+02 -0.13089714676E+02 -0.19057555077E+02  0.77292501842E+02  0.00000000000E+00 0. -1.
        -11    1    5    5    0    0  0.54211264396E+03  0.66350001622E+02  0.52643679520E+02  0.54868916378E+03  0.00000000000E+00 0.  1.
          2    1    6    6  503    0  0.18482650195E+03  0.63613728150E+02  0.43707412826E+03  0.47879153692E+03  0.00000000000E+00 0. -1.
         -2    1    6    6    0  503  0.32480071600E+02  0.14112704238E+02  0.20503762504E+02  0.40920993987E+02  0.00000000000E+00 0.  1.
<mgrwt>
<rscale>  0 0.84937667E+03</rscale>
<asrwt>0</asrwt>
<pdfrwt beam="1">  1        2 0.20651987E+00 0.84937667E+03</pdfrwt>
<pdfrwt beam="2">  1       -2 0.10318839E+00 0.84937667E+03</pdfrwt>
<totfact> 0.12088188E+01</totfact>
</mgrwt>
</event>
<event>
12    1  0.1338445E-007  0.7455155E+03  0.7818608E-02  0.9642412E-01
          1   -1    0    0  501    0  0.00000000000E+00  0.00000000000E+00  0.12776423199E+04  0.12776423199E+04  0.00000000000E+00 0. -1.
         -1   -1    0    0    0  501 -0.00000000000E+00 -0.00000000000E+00 -0.51866443697E+03  0.51866443697E+03  0.00000000000E+00 0.  1.
         23    2    1    2    0    0  0.23840884580E+03  0.65799957254E+03  0.35091618392E+03  0.78818561608E+03  0.91061419049E+02 0.  0.
    5000000    2    1    2    0    0 -0.23840884580E+03 -0.65799957254E+03  0.40806169898E+03  0.10081211408E+04  0.59999305750E+03 0.  0.
         23    2    4    4    0    0 -0.21430464369E+03 -0.66942116021E+03  0.50786314932E+03  0.87176357114E+03  0.89417981938E+02 0.  0.
         23    2    4    4    0    0 -0.24104202111E+02  0.11421587667E+02 -0.99801450332E+02  0.13635756962E+03  0.89003326228E+02 0.  0.
          4    1    3    3  502    0  0.12710450775E+03  0.26461344393E+03  0.10897821945E+03  0.31313269218E+03  0.00000000000E+00 0. -1.
         -4    1    3    3    0  502  0.11130433805E+03  0.39338612862E+03  0.24193796447E+03  0.47505292390E+03  0.00000000000E+00 0.  1.
         11    1    5    5    0    0 -0.11324327098E+03 -0.41039612805E+03  0.35592396997E+03  0.55491521221E+03  0.00000000000E+00 0. -1.
        -11    1    5    5    0    0 -0.10106137271E+03 -0.25902503216E+03  0.15193917935E+03  0.31684835894E+03  0.00000000000E+00 0.  1.
          2    1    6    6  503    0  0.15932806540E+02  0.34964089393E+02 -0.73612771277E+02  0.83037232411E+02  0.00000000000E+00 0. -1.
         -2    1    6    6    0  503 -0.40037008652E+02 -0.23542501727E+02 -0.26188679055E+02  0.53320337208E+02  0.00000000000E+00 0.  1.
<mgrwt>
<rscale>  0 0.74551545E+03</rscale>
<asrwt>0</asrwt>
<pdfrwt beam="1">  1        1 0.19656036E+00 0.74551545E+03</pdfrwt>
<pdfrwt beam="2">  1       -1 0.79794529E-01 0.74551545E+03</pdfrwt>
<totfact> 0.15222976E+01</totfact>
</mgrwt>
</event>
<event>
12    1  0.1338445E-007  0.1697360E+04  0.7818608E-02  0.8762872E-01
          1   -1    0    0  501    0  0.00000000000E+00  0.00000000000E+00  0.25796164660E+04  0.25796164660E+04  0.00000000000E+00 0. -1.
         -1   -1    0    0    0  501 -0.00000000000E+00 -0.00000000000E+00 -0.17856282932E+04  0.17856282932E+04  0.00000000000E+00 0.  1.
         23    2    1    2    0    0  0.14478002527E+04 -0.82156273716E+03 -0.91786943207E+03  0.19032134323E+04  0.92984792047E+02 0.  0.
    5000000    2    1    2    0    0 -0.14478002527E+04  0.82156273716E+03  0.17118576048E+04  0.24620313269E+04  0.60004240883E+03 0.  0.
         23    2    4    4    0    0 -0.34419152046E+03  0.44241701943E+03  0.78451262992E+03  0.96864490734E+03  0.92802306894E+02 0.  0.
         23    2    4    4    0    0 -0.11036087323E+04  0.37914571774E+03  0.92734497493E+03  0.14933864196E+04  0.92361173426E+02 0.  0.
          4    1    3    3  502    0  0.41991213026E+03 -0.24179469188E+03 -0.21965970900E+03  0.53201621960E+03  0.00000000000E+00 0. -1.
         -4    1    3    3    0  502  0.10278881225E+04 -0.57976804529E+03 -0.69820972307E+03  0.13711972127E+04  0.00000000000E+00 0.  1.
         13    1    5    5    0    0 -0.13266983073E+03  0.19870283500E+03  0.40754839749E+03  0.47241909034E+03  0.00000000000E+00 0.  1.
        -13    1    5    5    0    0 -0.21152168973E+03  0.24371418443E+03  0.37696423243E+03  0.49622581699E+03  0.00000000000E+00 0. -1.
          4    1    6    6  503    0 -0.65666744265E+03  0.25619851783E+03  0.60336319782E+03  0.92784533153E+03  0.00000000000E+00 0. -1.
         -4    1    6    6    0  503 -0.44694128964E+03  0.12294719991E+03  0.32398177711E+03  0.56554108803E+03  0.00000000000E+00 0.  1.
<mgrwt>
<rscale>  0 0.16973596E+04</rscale>
<asrwt>0</asrwt>
<pdfrwt beam="1">  1        1 0.39686407E+00 0.16973596E+04</pdfrwt>
<pdfrwt beam="2">  1       -1 0.27471205E+00 0.16973596E+04</pdfrwt>
<totfact> 0.52807755E-02</totfact>
</mgrwt>
</event>
<event>
12    1  0.1338445E-007  0.6288835E+03  0.7818608E-02  0.9847230E-01
          2   -1    0    0  501    0  0.00000000000E+00  0.00000000000E+00  0.12178288366E+04  0.12178288366E+04  0.00000000000E+00 0. -1.
         -2   -1    0    0    0  501 -0.00000000000E+00 -0.00000000000E+00 -0.60870653996E+03  0.60870653996E+03  0.00000000000E+00 0.  1.
         23    2    1    2    0    0 -0.60953246209E+03  0.10540704160E+03 -0.18812921195E+03  0.65253906610E+03  0.88171229067E+02 0.  0.
    5000000    2    1    2    0    0  0.60953246209E+03 -0.10540704160E+03  0.79725150858E+03  0.11739963104E+04  0.60001408504E+03 0.  0.
         23    2    4    4    0    0  0.27075225845E+03 -0.10144979214E+03  0.76200201315E+03  0.82005573520E+03  0.90804708063E+02 0.  0.
         23    2    4    4    0    0  0.33878020365E+03 -0.39572494663E+01  0.35249495427E+02  0.35394057525E+03  0.96144254506E+02 0.  0.
          3    1    3    3  502    0 -0.31432109995E+03  0.97947399988E+02 -0.10922167616E+03  0.34687291849E+03  0.00000000000E+00 0. -1.
         -3    1    3    3    0  502 -0.29521136215E+03  0.74596416156E+01 -0.78907535781E+02  0.30566614761E+03  0.00000000000E+00 0.  1.
         11    1    5    5    0    0  0.17122426426E+03 -0.42772141483E+02  0.56223345747E+03  0.58928233086E+03  0.00000000000E+00 0. -1.
        -11    1    5    5    0    0  0.99527994190E+02 -0.58677650655E+02  0.19976855568E+03  0.23077340434E+03  0.00000000000E+00 0.  1.
          4    1    6    6  503    0  0.23568027432E+03  0.15895926366E+02  0.64659042116E+02  0.24490541828E+03  0.00000000000E+00 0. -1.
         -4    1    6    6    0  503  0.10309992933E+03 -0.19853175832E+02 -0.29409546689E+02  0.10903515697E+03  0.00000000000E+00 0.  1.
<mgrwt>
<rscale>  0 0.62888350E+03</rscale>
<asrwt>0</asrwt>
<pdfrwt beam="1">  1        2 0.18735828E+00 0.62888350E+03</pdfrwt>
<pdfrwt beam="2">  1       -2 0.93647160E-01 0.62888350E+03</pdfrwt>
<totfact> 0.18436011E+01</totfact>
</mgrwt>
</event>
<event>
12    1  0.1338445E-007  0.9275552E+03  0.7818608E-02  0.9391777E-01
         -1   -1    0    0    0  501 -0.00000000000E+00  0.00000000000E+00  0.24024887438E+04  0.24024887438E+04  0.00000000000E+00 0.  1.
          1   -1    0    0  501    0  0.00000000000E+00 -0.00000000000E+00 -0.50907739784E+03  0.50907739784E+03  0.00000000000E+00 0. -1.
         23    2    1    2    0    0  0.81324864832E+03  0.27153698989E+03  0.16104663046E+04  0.18274592081E+04  0.10440181164E+03 0.  0.
    5000000    2    1    2    0    0 -0.81324864832E+03 -0.27153698989E+03  0.28294504139E+03  0.10841069335E+04  0.60010352940E+03 0.  0.
         23    2    4    4    0    0 -0.81060856820E+03 -0.37340514769E+03  0.18416660854E+03  0.91574779406E+03  0.90327335093E+02 0.  0.
         23    2    4    4    0    0 -0.26400801262E+01  0.10186815780E+03  0.98778432850E+02  0.16835913947E+03  0.90573337411E+02 0.  0.
          1    1    3    3  502    0  0.52603658102E+03  0.14912153955E+03  0.93070732247E+03  0.10794294040E+04  0.00000000000E+00 0. -1.
         -1    1    3    3    0  502  0.28721206730E+03  0.12241545034E+03  0.67975898209E+03  0.74802980409E+03  0.00000000000E+00 0.  1.
         11    1    5    5    0    0 -0.72641459235E+03 -0.31963029707E+03  0.18867262121E+03  0.81574447272E+03  0.00000000000E+00 0. -1.
        -11    1    5    5    0    0 -0.84193975849E+02 -0.53774850621E+02 -0.45060126635E+01  0.10000332134E+03  0.00000000000E+00 0.  1.
          1    1    6    6  503    0  0.39148029261E+01  0.15389980249E+02  0.77433152499E+02  0.79044735941E+02  0.00000000000E+00 0. -1.
         -1    1    6    6    0  503 -0.65548830523E+01  0.86478177550E+02  0.21345280351E+02  0.89314403527E+02  0.00000000000E+00 0.  1.
<mgrwt>
<rscale>  0 0.92755524E+03</rscale>
<asrwt>0</asrwt>
<pdfrwt beam="1">  1        1 0.78319601E-01 0.92755524E+03</pdfrwt>
<pdfrwt beam="2">  1       -1 0.36961365E+00 0.92755524E+03</pdfrwt>
<totfact> 0.51421167E-01</totfact>
</mgrwt>
</event>
<event>
12    1  0.1338445E-007  0.9107096E+03  0.7818608E-02  0.9412292E-01
         -4   -1    0    0    0  501 -0.00000000000E+00  0.00000000000E+00  0.30620482615E+04  0.30620482615E+04  0.00000000000E+00 0.  1.
          4   -1    0    0  501    0  0.00000000000E+00 -0.00000000000E+00 -0.35013374849E+03  0.35013374849E+03  0.00000000000E+00 0. -1.
         23    2    1    2    0    0  0.15603848422E+02 -0.82853768537E+03  0.19972269714E+04  0.21642047593E+04  0.90268978706E+02 0.  0.
    5000000    2    1    2    0    0 -0.15603848422E+02  0.82853768537E+03  0.71468754157E+03  0.12479772507E+04  0.59995896528E+03 0.  0.
         23    2    4    4    0    0  0.23766927869E+03  0.57330966948E+03  0.58438487140E+03  0.85749781302E+03  0.92877113735E+02 0.  0.
         23    2    4    4    0    0 -0.25327312711E+03  0.25522801589E+03  0.13030267016E+03  0.39047943768E+03  0.78783173261E+02 0.  0.
          3    1    3    3  502    0 -0.23166696671E+02 -0.64746259057E+03  0.15204529023E+04  0.16527315361E+04  0.00000000000E+00 0. -1.
         -3    1    3    3    0  502  0.38770545093E+02 -0.18107509480E+03  0.47677406909E+03  0.51147322323E+03  0.00000000000E+00 0.  1.
         11    1    5    5    0    0  0.63603695284E+02  0.24486042726E+03  0.27704643164E+03  0.37517567109E+03  0.00000000000E+00 0. -1.
        -11    1    5    5    0    0  0.17406558340E+03  0.32844924222E+03  0.30733843976E+03  0.48232214193E+03  0.00000000000E+00 0.  1.
          1    1    6    6  503    0 -0.13905185255E+03  0.10158894757E+03  0.31586161955E+02  0.17508117430E+03  0.00000000000E+00 0. -1.
         -1    1    6    6    0  503 -0.11422127456E+03  0.15363906832E+03  0.98716508209E+02  0.21539826338E+03  0.00000000000E+00 0.  1.
<mgrwt>
<rscale>  0 0.91070960E+03</rscale>
<asrwt>0</asrwt>
<pdfrwt beam="1">  1        4 0.53866732E-01 0.91070960E+03</pdfrwt>
<pdfrwt beam="2">  1       -4 0.47108433E+00 0.91070960E+03</pdfrwt>
<totfact> 0.13841986E-02</totfact>
</mgrwt>
</event>
<event>
12    1  0.1338445E-007  0.8985613E+03  0.7818608E-02  0.9427382E-01
         -1   -1    0    0    0  501 -0.00000000000E+00  0.00000000000E+00  0.59671574503E+03  0.59671574503E+03  0.00000000000E+00 0.  1.
          1   -1    0    0  501    0  0.00000000000E+00 -0.00000000000E+00 -0.14292815712E+04  0.14292815712E+04  0.00000000000E+00 0. -1.
         23    2    1    2    0    0  0.73389806023E+03  0.33387197086E+03 -0.18890452778E+03  0.83317120810E+03  0.91719603479E+02 0.  0.
    5000000    2    1    2    0    0 -0.73389806023E+03 -0.33387197086E+03 -0.64366129840E+03  0.11928261081E+04  0.59871312119E+03 0.  0.
         23    2    4    4    0    0 -0.63082442129E+03 -0.48260291907E+03 -0.48351071557E+03  0.93472250278E+03  0.95281252862E+02 0.  0.
         23    2    4    4    0    0 -0.10307363894E+03  0.14873094821E+03 -0.16015058283E+03  0.25810360537E+03  0.90687330562E+02 0.  0.
          4    1    3    3  502    0  0.39531698278E+02  0.24969609442E+02 -0.33364347460E+02  0.57440545314E+02  0.00000000000E+00 0. -1.
         -4    1    3    3    0  502  0.69436636195E+03  0.30890236142E+03 -0.15554018032E+03  0.77573066279E+03  0.00000000000E+00 0.  1.
         11    1    5    5    0    0 -0.25571772626E+03 -0.14732168435E+03 -0.14941877111E+03  0.33078875942E+03  0.00000000000E+00 0. -1.
        -11    1    5    5    0    0 -0.37510669503E+03 -0.33528123472E+03 -0.33409194445E+03  0.60393374335E+03  0.00000000000E+00 0.  1.
          2    1    6    6  503    0 -0.54132598661E+02  0.12806319412E+03 -0.14905149446E+03  0.20383048822E+03  0.00000000000E+00 0.  1.
         -2    1    6    6    0  503 -0.48941040280E+02  0.20667754081E+02 -0.11099088373E+02  0.54273117150E+02  0.00000000000E+00 0. -1.
<mgrwt>
<rscale>  0 0.89856130E+03</rscale>
<asrwt>0</asrwt>
<pdfrwt beam="1">  1        1 0.21988947E+00 0.89856130E+03</pdfrwt>
<pdfrwt beam="2">  1       -1 0.91802423E-01 0.89856130E+03</pdfrwt>
<totfact> 0.86166018E+00</totfact>
</mgrwt>
</event>
<event>
12    1  0.1338445E-007  0.7903789E+03  0.7818608E-02  0.9574049E-01
          2   -1    0    0  501    0  0.00000000000E+00  0.00000000000E+00  0.38448619371E+04  0.38448619371E+04  0.00000000000E+00 0. -1.
         -2   -1    0    0    0  501 -0.00000000000E+00 -0.00000000000E+00 -0.20072346077E+03  0.20072346077E+03  0.00000000000E+00 0.  1.
         23    2    1    2    0    0  0.57982405936E+03  0.51030683137E+03  0.15138640253E+04  0.17015509988E+04  0.82960908280E+02 0.  0.
    5000000    2    1    2    0    0 -0.57982405936E+03 -0.51030683137E+03  0.21302744510E+04  0.23440343991E+04  0.59984916903E+03 0.  0.
         23    2    4    4    0    0 -0.32742249702E+03 -0.17368744553E+03  0.37484290328E+03  0.53669480929E+03  0.10080325339E+03 0.  0.
         23    2    4    4    0    0 -0.25240156233E+03 -0.33661938584E+03  0.17554315477E+04  0.18073395898E+04  0.88979292661E+02 0.  0.
          1    1    3    3  502    0  0.36903514881E+03  0.29353795433E+03  0.84889415917E+03  0.97106784787E+03  0.00000000000E+00 0. -1.
         -1    1    3    3    0  502  0.21078891054E+03  0.21676887704E+03  0.66496986617E+03  0.73048315092E+03  0.00000000000E+00 0.  1.
         11    1    5    5    0    0 -0.18545098691E+03 -0.15342570882E+03  0.23405852424E+03  0.33573041185E+03  0.00000000000E+00 0. -1.
        -11    1    5    5    0    0 -0.14197151011E+03 -0.20261736711E+02  0.14078437904E+03  0.20096439744E+03  0.00000000000E+00 0.  1.
          3    1    6    6  503    0 -0.11226187466E+03 -0.18412828079E+03  0.72927297983E+03  0.76048999427E+03  0.00000000000E+00 0. -1.
         -3    1    6    6    0  503 -0.14013968768E+03 -0.15249110505E+03  0.10261585679E+04  0.10468495955E+04  0.00000000000E+00 0.  1.
<mgrwt>
<rscale>  0 0.79037887E+03</rscale>
<asrwt>0</asrwt>
<pdfrwt beam="1">  1        2 0.59151717E+00 0.79037887E+03</pdfrwt>
<pdfrwt beam="2">  1       -2 0.30880535E-01 0.79037887E+03</pdfrwt>
<totfact> 0.47964115E+00</totfact>
</mgrwt>
</event>
<event>
12    1  0.1338445E-007  0.4635956E+03  0.7818608E-02  0.1023744E+00
          1   -1    0    0  501    0  0.00000000000E+00  0.00000000000E+00  0.54649145896E+03  0.54649145896E+03  0.00000000000E+00 0. -1.
         -1   -1    0    0    0  501 -0.00000000000E+00 -0.00000000000E+00 -0.57579113638E+03  0.57579113638E+03  0.00000000000E+00 0.  1.
         23    2    1    2    0    0 -0.13653451850E+03 -0.33274409690E+03 -0.17050211235E+03  0.40856723233E+03  0.92173229606E+02 0.  0.
    5000000    2    1    2    0    0  0.13653451850E+03  0.33274409690E+03  0.14120243493E+03  0.71371536301E+03  0.60007598103E+03 0.  0.
         23    2    4    4    0    0  0.47235659926E+02 -0.85861084498E+02 -0.14086723949E+03  0.19306960221E+03  0.88481403345E+02 0.  0.
         23    2    4    4    0    0  0.89298858570E+02  0.41860518140E+03  0.28206967442E+03  0.52064576080E+03  0.91126960733E+02 0.  0.
          1    1    3    3  502    0 -0.89589197793E+02 -0.29874156979E+03 -0.13022097449E+03  0.33797966223E+03  0.00000000000E+00 0. -1.
         -1    1    3    3    0  502 -0.46945320703E+02 -0.34002527108E+02 -0.40281137860E+02  0.70587570102E+02  0.00000000000E+00 0.  1.
         11    1    5    5    0    0 -0.52906521607E+01 -0.67655912591E+02 -0.42475939118E+02  0.80059471100E+02  0.00000000000E+00 0.  1.
        -11    1    5    5    0    0  0.52526312087E+02 -0.18205171906E+02 -0.98391300372E+02  0.11301013111E+03  0.00000000000E+00 0. -1.
          2    1    6    6  503    0  0.88063339663E+02  0.24620115598E+03  0.13628094617E+03  0.29486040305E+03  0.00000000000E+00 0. -1.
         -2    1    6    6    0  503  0.12355189069E+01  0.17240402542E+03  0.14578872825E+03  0.22578535774E+03  0.00000000000E+00 0.  1.
<mgrwt>
<rscale>  0 0.46359557E+03</rscale>
<asrwt>0</asrwt>
<pdfrwt beam="1">  1        1 0.84075609E-01 0.46359557E+03</pdfrwt>
<pdfrwt beam="2">  1       -1 0.88583252E-01 0.46359557E+03</pdfrwt>
<totfact> 0.51587852E+01</totfact>
</mgrwt>
</event>
<event>
12    1  0.1338445E-007  0.5314592E+03  0.7818608E-02  0.1005879E+00
         -2   -1    0    0    0  501 -0.00000000000E+00  0.00000000000E+00  0.16142604282E+03  0.16142604282E+03  0.00000000000E+00 0.  1.
          2   -1    0    0  501    0  0.00000000000E+00 -0.00000000000E+00 -0.25899833029E+04  0.25899833029E+04  0.00000000000E+00 0. -1.
         23    2    1    2    0    0 -0.13955289798E+03 -0.47253261541E+03 -0.75096271077E+03  0.90286181366E+03  0.91936813336E+02 0.  0.
    5000000    2    1    2    0    0  0.13955289798E+03  0.47253261541E+03 -0.16775945493E+04  0.18485475320E+04  0.60003535098E+03 0.  0.
         23    2    4    4    0    0  0.18965951519E+03  0.42234090462E+03 -0.16647713560E+04  0.17302369738E+04  0.88959241541E+02 0.  0.
         23    2    4    4    0    0 -0.50106617216E+02  0.50191710788E+02 -0.12823193354E+02  0.11831055820E+03  0.93824692767E+02 0.  0.
          2    1    3    3  502    0 -0.76652775959E+01 -0.15385971572E+03 -0.27290083629E+03  0.31337905969E+03  0.00000000000E+00 0. -1.
         -2    1    3    3    0  502 -0.13188762038E+03 -0.31867289969E+03 -0.47806187448E+03  0.58948275398E+03  0.00000000000E+00 0.  1.
         11    1    5    5    0    0  0.74683478748E+02  0.15475198408E+03 -0.78224778811E+03  0.80089787151E+03  0.00000000000E+00 0.  1.
        -11    1    5    5    0    0  0.11497603644E+03  0.26758892054E+03 -0.88252356784E+03  0.92933910234E+03  0.00000000000E+00 0. -1.
          2    1    6    6  503    0 -0.10133781297E+02  0.59091870458E+02  0.22690697211E+02  0.64104683273E+02  0.00000000000E+00 0. -1.
         -2    1    6    6    0  503 -0.39972835919E+02 -0.89001596696E+01 -0.35513890564E+02  0.54205874926E+02  0.00000000000E+00 0.  1.
<mgrwt>
<rscale>  0 0.53145924E+03</rscale>
<asrwt>0</asrwt>
<pdfrwt beam="1">  1        2 0.39845896E+00 0.53145924E+03</pdfrwt>
<pdfrwt beam="2">  1       -2 0.24834776E-01 0.53145924E+03</pdfrwt>
<totfact> 0.48385002E+01</totfact>
</mgrwt>
</event>
<event>
12    1  0.1338445E-007  0.1063300E+04  0.7818608E-02  0.9241719E-01
         -2   -1    0    0    0  501 -0.00000000000E+00  0.00000000000E+00  0.34758007589E+03  0.34758007589E+03  0.00000000000E+00 0.  1.
          2   -1    0    0  501    0  0.00000000000E+00 -0.00000000000E+00 -0.37053635885E+04  0.37053635885E+04  0.00000000000E+00 0. -1.
         23    2    1    2    0    0  0.85741582140E+03  0.60613778061E+03 -0.17170854174E+04  0.20147561406E+04  0.91077305960E+02 0.  0.
    5000000    2    1    2    0    0 -0.85741582140E+03 -0.60613778061E+03 -0.16406980952E+04  0.20381875238E+04  0.59979433358E+03 0.  0.
         23    2    4    4    0    0 -0.71752656742E+03 -0.43864269837E+03 -0.79841637866E+03  0.11629133396E+04  0.87446725512E+02 0.  0.
         23    2    4    4    0    0 -0.13988925397E+03 -0.16749508224E+03 -0.84228171658E+03  0.87527418425E+03  0.95093646354E+02 0.  0.
          1    1    3    3  502    0  0.30299162931E+03  0.19128710830E+03 -0.51278830439E+03  0.62557695798E+03  0.00000000000E+00 0. -1.
         -1    1    3    3    0  502  0.55442419209E+03  0.41485067231E+03 -0.12042971130E+04  0.13891791826E+04  0.00000000000E+00 0.  1.
         11    1    5    5    0    0 -0.26385230506E+03 -0.16831111021E+03 -0.35573370635E+03  0.47380706890E+03  0.00000000000E+00 0. -1.
        -11    1    5    5    0    0 -0.45367426236E+03 -0.27033158816E+03 -0.44268267231E+03  0.68910627065E+03  0.00000000000E+00 0.  1.
          2    1    6    6  503    0 -0.14887752076E+03 -0.13476771798E+03 -0.76401415174E+03  0.78996485874E+03  0.00000000000E+00 0. -1.
         -2    1    6    6    0  503  0.89882667921E+01 -0.32727364264E+02 -0.78267564843E+02  0.85309325504E+02  0.00000000000E+00 0.  1.
<mgrwt>
<rscale>  0 0.10633003E+04</rscale>
<asrwt>0</asrwt>
<pdfrwt beam="1">  1        2 0.57005591E+00 0.10633003E+04</pdfrwt>
<pdfrwt beam="2">  1       -2 0.53473860E-01 0.10633003E+04</pdfrwt>
<totfact> 0.19693560E+00</totfact>
</mgrwt>
</event>
<event>
12    1  0.1338445E-007  0.2329199E+03  0.7818608E-02  0.1124601E+00
          2   -1    0    0  501    0  0.00000000000E+00  0.00000000000E+00  0.51559852876E+03  0.51559852876E+03  0.00000000000E+00 0. -1.
         -2   -1    0    0    0  501 -0.00000000000E+00 -0.00000000000E+00 -0.83492342660E+03  0.83492342660E+03  0.00000000000E+00 0.  1.
         23    2    1    2    0    0 -0.50318259909E+02 -0.18248182567E+03  0.36596684865E+03  0.42023426742E+03  0.82665356871E+02 0.  0.
    5000000    2    1    2    0    0  0.50318259909E+02  0.18248182567E+03 -0.68529174648E+03  0.93028768794E+03  0.59998238354E+03 0.  0.
         23    2    4    4    0    0 -0.82765339165E+01  0.18340060599E+03 -0.76788551148E+03  0.79461123292E+03  0.89747253129E+02 0.  0.
         23    2    4    4    0    0  0.58594793826E+02 -0.91878032333E+00  0.82593764998E+02  0.13567645502E+03  0.90289403642E+02 0.  0.
          1    1    3    3  502    0 -0.26211830865E+02 -0.71189064641E+02  0.70417818538E+02  0.10350658032E+03  0.00000000000E+00 0. -1.
         -1    1    3    3    0  502 -0.24106429044E+02 -0.11129276103E+03  0.29554903011E+03  0.31672768710E+03  0.00000000000E+00 0.  1.
         11    1    5    5    0    0 -0.43655505845E+02  0.52718821563E+02 -0.23183096859E+03  0.24172437886E+03  0.00000000000E+00 0. -1.
        -11    1    5    5    0    0  0.35378971928E+02  0.13068178443E+03 -0.53605454289E+03  0.55288685406E+03  0.00000000000E+00 0.  1.
          3    1    6    6  503    0  0.10409085593E+02 -0.18294317070E+02  0.81782078386E+02  0.84447258364E+02  0.00000000000E+00 0. -1.
         -3    1    6    6    0  503  0.48185708232E+02  0.17375536747E+02  0.81168661196E+00  0.51229196658E+02  0.00000000000E+00 0.  1.
<mgrwt>
<rscale>  0 0.23291988E+03</rscale>
<asrwt>0</asrwt>
<pdfrwt beam="1">  1        2 0.79322851E-01 0.23291988E+03</pdfrwt>
<pdfrwt beam="2">  1       -2 0.12844976E+00 0.23291988E+03</pdfrwt>
<totfact> 0.28865522E+01</totfact>
</mgrwt>
</event>
<event>
12    1  0.1338445E-007  0.5804398E+03  0.7818608E-02  0.9946839E-01
         -1   -1    0    0    0  501 -0.00000000000E+00  0.00000000000E+00  0.71332570460E+03  0.71332570460E+03  0.00000000000E+00 0.  1.
          1   -1    0    0  501    0  0.00000000000E+00 -0.00000000000E+00 -0.51404890147E+03  0.51404890147E+03  0.00000000000E+00 0. -1.
         23    2    1    2    0    0  0.42797412326E+03 -0.12833495849E+03  0.10771679128E+02  0.45591770096E+03  0.90073354695E+02 0.  0.
    5000000    2    1    2    0    0 -0.42797412326E+03  0.12833495849E+03  0.18850512400E+03  0.77145690512E+03  0.59998321887E+03 0.  0.
         23    2    4    4    0    0  0.11928895384E+03  0.28161889048E+02 -0.47736348371E+02  0.16018722874E+03  0.91423425839E+02 0.  0.
         23    2    4    4    0    0 -0.54726307710E+03  0.10017306944E+03  0.23624147237E+03  0.61126967638E+03  0.91154070627E+02 0.  0.
          2    1    3    3  502    0  0.31410104900E+03 -0.51568289444E+02  0.21221641206E+01  0.31831314934E+03  0.00000000000E+00 0. -1.
         -2    1    3    3    0  502  0.11387307425E+03 -0.76766669043E+02  0.86495150072E+01  0.13760455162E+03  0.00000000000E+00 0.  1.
         11    1    5    5    0    0  0.33429708364E+02  0.49883884235E+02 -0.38061624226E+02  0.71095953095E+02  0.00000000000E+00 0.  1.
        -11    1    5    5    0    0  0.85859245478E+02 -0.21721995187E+02 -0.96747241451E+01  0.89091275646E+02  0.00000000000E+00 0. -1.
          1    1    6    6  503    0 -0.24396167812E+03  0.53446461422E+02  0.58042435551E+02  0.25640348857E+03  0.00000000000E+00 0. -1.
         -1    1    6    6    0  503 -0.30330139898E+03  0.46726608017E+02  0.17819903682E+03  0.35486618780E+03  0.00000000000E+00 0.  1.
<mgrwt>
<rscale>  0 0.58043981E+03</rscale>
<asrwt>0</asrwt>
<pdfrwt beam="1">  1        1 0.79084446E-01 0.58043981E+03</pdfrwt>
<pdfrwt beam="2">  1       -1 0.10974242E+00 0.58043981E+03</pdfrwt>
<totfact> 0.34110855E+01</totfact>
</mgrwt>
</event>
<event>
12    1  0.1338445E-007  0.7037927E+03  0.7818608E-02  0.9710768E-01
         -1   -1    0    0    0  501 -0.00000000000E+00  0.00000000000E+00  0.80863519741E+03  0.80863519741E+03  0.00000000000E+00 0.  1.
          1   -1    0    0  501    0  0.00000000000E+00 -0.00000000000E+00 -0.14483205566E+04  0.14483205566E+04  0.00000000000E+00 0. -1.
         23    2    1    2    0    0  0.45066830814E+02 -0.58376490114E+03  0.54583010981E+03  0.80493297814E+03  0.84700126843E+02 0.  0.
    5000000    2    1    2    0    0 -0.45066830814E+02  0.58376490114E+03 -0.11855154690E+04  0.14520227759E+04  0.60009227239E+03 0.  0.
         23    2    4    4    0    0 -0.21520172843E+03  0.60078841026E+03 -0.90943339177E+03  0.11147771367E+04  0.91654091756E+02 0.  0.
         23    2    4    4    0    0  0.17013489762E+03 -0.17023509124E+02 -0.27608207723E+03  0.33724563921E+03  0.90981451674E+02 0.  0.
          1    1    3    3  502    0 -0.22350859403E+02 -0.20143849556E+03  0.16887275143E+03  0.26380870832E+03  0.00000000000E+00 0. -1.
         -1    1    3    3    0  502  0.67417690217E+02 -0.38232640558E+03  0.37695735838E+03  0.54112426982E+03  0.00000000000E+00 0.  1.
         11    1    5    5    0    0 -0.59934202610E+02  0.30301211180E+03 -0.43851776185E+03  0.53638258361E+03  0.00000000000E+00 0.  1.
        -11    1    5    5    0    0 -0.15526752582E+03  0.29777629846E+03 -0.47091562992E+03  0.57839455305E+03  0.00000000000E+00 0. -1.
          1    1    6    6  503    0  0.14193488285E+03 -0.72059195092E+01 -0.27228830196E+03  0.30714549587E+03  0.00000000000E+00 0. -1.
         -1    1    6    6    0  503  0.28200014767E+02 -0.98175896145E+01 -0.37937752714E+01  0.30100143347E+02  0.00000000000E+00 0.  1.
<mgrwt>
<rscale>  0 0.70379273E+03</rscale>
<asrwt>0</asrwt>
<pdfrwt beam="1">  1        1 0.22281855E+00 0.70379273E+03</pdfrwt>
<pdfrwt beam="2">  1       -1 0.12440542E+00 0.70379273E+03</pdfrwt>
<totfact> 0.42282785E+00</totfact>
</mgrwt>
</event>
<event>
12    1  0.1338445E-007  0.6472948E+03  0.7818608E-02  0.9811869E-01
         -2   -1    0    0    0  501 -0.00000000000E+00  0.00000000000E+00  0.88967228639E+03  0.88967228639E+03  0.00000000000E+00 0.  1.
          2   -1    0    0  501    0  0.00000000000E+00 -0.00000000000E+00 -0.62569237789E+03  0.62569237789E+03  0.00000000000E+00 0. -1.
         23    2    1    2    0    0  0.50917575259E+03  0.11301934227E+03  0.45466504387E+03  0.69787686575E+03  0.90986256563E+02 0.  0.
    5000000    2    1    2    0    0 -0.50917575259E+03 -0.11301934227E+03 -0.19068513537E+03  0.81748779853E+03  0.59991012755E+03 0.  0.
         23    2    4    4    0    0 -0.34420382550E+03  0.21139160498E+03 -0.50850193038E+02  0.41678270018E+03  0.89215429674E+02 0.  0.
         23    2    4    4    0    0 -0.16497192708E+03 -0.32441094725E+03 -0.13983494233E+03  0.40070509834E+03  0.92480080668E+02 0.  0.
          3    1    3    3  502    0  0.29708286590E+03  0.36012530729E+02  0.21348034559E+03  0.36759895203E+03  0.00000000000E+00 0. -1.
         -3    1    3    3    0  502  0.21209288668E+03  0.77006811541E+02  0.24118469828E+03  0.33027791371E+03  0.00000000000E+00 0.  1.
         13    1    5    5    0    0 -0.23167135282E+03  0.15868991501E+03 -0.73968756134E+02  0.29038850137E+03  0.00000000000E+00 0.  1.
        -13    1    5    5    0    0 -0.11253247269E+03  0.52701689971E+02  0.23118563097E+02  0.12639419882E+03  0.00000000000E+00 0. -1.
          4    1    6    6  503    0 -0.12621107665E+03 -0.22604506129E+03 -0.14135034409E+03  0.29496699032E+03  0.00000000000E+00 0. -1.
         -4    1    6    6    0  503 -0.38760850432E+02 -0.98365885961E+02  0.15154017511E+01  0.10573810803E+03  0.00000000000E+00 0.  1.
<mgrwt>
<rscale>  0 0.64729482E+03</rscale>
<asrwt>0</asrwt>
<pdfrwt beam="1">  1        2 0.96260365E-01 0.64729482E+03</pdfrwt>
<pdfrwt beam="2">  1       -2 0.13687266E+00 0.64729482E+03</pdfrwt>
<totfact> 0.18382622E+01</totfact>
</mgrwt>
</event>
<event>
12    1  0.1338445E-007  0.1277760E+04  0.7818608E-02  0.9047390E-01
         -1   -1    0    0    0  501 -0.00000000000E+00  0.00000000000E+00  0.18866703135E+04  0.18866703135E+04  0.00000000000E+00 0.  1.
          1   -1    0    0  501    0  0.00000000000E+00 -0.00000000000E+00 -0.95834599056E+03  0.95834599056E+03  0.00000000000E+00 0. -1.
         23    2    1    2    0    0  0.53281821492E+03 -0.11507185358E+04  0.29056521630E+03  0.13039941718E+04  0.89018291644E+02 0.  0.
    5000000    2    1    2    0    0 -0.53281821492E+03  0.11507185358E+04  0.63775910663E+03  0.15410221323E+04  0.59997011194E+03 0.  0.
         23    2    4    4    0    0 -0.14629960186E+03  0.21767328791E+03  0.41845355120E+03  0.50346934788E+03  0.97942717827E+02 0.  0.
         23    2    4    4    0    0 -0.38651861306E+03  0.93304524792E+03  0.21930555543E+03  0.10375527844E+04  0.91928128723E+02 0.  0.
          4    1    3    3  502    0  0.48088945493E+03 -0.10654706919E+04  0.24546859823E+03  0.11944610902E+04  0.00000000000E+00 0.  1.
         -4    1    3    3    0  502  0.51928759991E+02 -0.85247843908E+02  0.45096618071E+02  0.10953308161E+03  0.00000000000E+00 0. -1.
         11    1    5    5    0    0 -0.92982228456E+02  0.19369867464E+03  0.27813249373E+03  0.35145775768E+03  0.00000000000E+00 0. -1.
        -11    1    5    5    0    0 -0.53317373400E+02  0.23974613278E+02  0.14032105747E+03  0.15201159021E+03  0.00000000000E+00 0.  1.
          2    1    6    6  503    0 -0.15234320079E+03  0.47736182729E+03  0.89222928337E+02  0.50896315773E+03  0.00000000000E+00 0. -1.
         -2    1    6    6    0  503 -0.23417541227E+03  0.45568342062E+03  0.13008262709E+03  0.52858962666E+03  0.00000000000E+00 0.  1.
<mgrwt>
<rscale>  0 0.12777600E+04</rscale>
<asrwt>0</asrwt>
<pdfrwt beam="1">  1        1 0.14743784E+00 0.12777600E+04</pdfrwt>
<pdfrwt beam="2">  1       -1 0.29025697E+00 0.12777600E+04</pdfrwt>
<totfact> 0.60811317E-01</totfact>
</mgrwt>
</event>
<event>
12    1  0.1338445E-007  0.9381327E+03  0.7818608E-02  0.9379130E-01
          3   -1    0    0  501    0  0.00000000000E+00  0.00000000000E+00  0.21608353450E+04  0.21608353450E+04  0.00000000000E+00 0.  1.
         -3   -1    0    0    0  501 -0.00000000000E+00 -0.00000000000E+00 -0.67871086767E+03  0.67871086767E+03  0.00000000000E+00 0. -1.
         23    2    1    2    0    0  0.88444017025E+03 -0.58887050305E+02  0.15269233756E+04  0.17678597703E+04  0.90172462255E+02 0.  0.
    5000000    2    1    2    0    0 -0.88444017025E+03  0.58887050305E+02 -0.44798898210E+02  0.10716864425E+04  0.60066861931E+03 0.  0.
         23    2    4    4    0    0 -0.83620913060E+03 -0.47356300323E+02 -0.19133826648E+03  0.86324884895E+03  0.84260985744E+02 0.  0.
         23    2    4    4    0    0 -0.48231039653E+02  0.10624335063E+03  0.14653936827E+03  0.20843759351E+03  0.91425167189E+02 0.  0.
          1    1    3    3  502    0  0.61890127154E+03 -0.66420457053E+00  0.10424978658E+04  0.12123700035E+04  0.00000000000E+00 0. -1.
         -1    1    3    3    0  502  0.26553889871E+03 -0.58222845734E+02  0.48442550977E+03  0.55548976679E+03  0.00000000000E+00 0.  1.
         13    1    5    5    0    0 -0.48384798201E+02  0.85846461832E+01  0.50253492342E+01  0.49396750722E+02  0.00000000000E+00 0. -1.
        -13    1    5    5    0    0 -0.78782433240E+03 -0.55940946506E+02 -0.19636361572E+03  0.81385209823E+03  0.00000000000E+00 0.  1.
          2    1    6    6  503    0 -0.65627692024E+02  0.11062628833E+03  0.11701463206E+03  0.17388960218E+03  0.00000000000E+00 0. -1.
         -2    1    6    6    0  503  0.17396652371E+02 -0.43829376992E+01  0.29524736214E+02  0.34547991332E+02  0.00000000000E+00 0.  1.
<mgrwt>
<rscale>  0 0.93813268E+03</rscale>
<asrwt>0</asrwt>
<pdfrwt beam="1">  1        3 0.33243620E+00 0.93813268E+03</pdfrwt>
<pdfrwt beam="2">  1       -3 0.10441706E+00 0.93813268E+03</pdfrwt>
<totfact> 0.52405529E-02</totfact>
</mgrwt>
</event>
<event>
12    1  0.1338445E-007  0.1047292E+04  0.7818608E-02  0.9258144E-01
          1   -1    0    0  501    0  0.00000000000E+00  0.00000000000E+00  0.76348657507E+03  0.76348657507E+03  0.00000000000E+00 0. -1.
         -1   -1    0    0    0  501 -0.00000000000E+00 -0.00000000000E+00 -0.17706432852E+04  0.17706432852E+04  0.00000000000E+00 0.  1.
         23    2    1    2    0    0 -0.72733948009E+03  0.68987131418E+03 -0.91802417455E+03  0.13624038752E+04  0.91819304005E+02 0.  0.
    5000000    2    1    2    0    0  0.72733948009E+03 -0.68987131418E+03 -0.89132535608E+02  0.11717259851E+04  0.60004335334E+03 0.  0.
         23    2    4    4    0    0  0.14409148760E+03  0.30412802551E+02 -0.16224745420E+03  0.23754017571E+03  0.91726786313E+02 0.  0.
         23    2    4    4    0    0  0.58324799249E+03 -0.72028411674E+03  0.73114918590E+02  0.93418580941E+03  0.91487188301E+02 0.  0.
          3    1    3    3  502    0 -0.31782819348E+03  0.36412872836E+03 -0.44899139740E+03  0.65969520714E+03  0.00000000000E+00 0. -1.
         -3    1    3    3    0  502 -0.40951128661E+03  0.32574258583E+03 -0.46903277715E+03  0.70270866803E+03  0.00000000000E+00 0.  1.
         13    1    5    5    0    0  0.57026116236E+02 -0.19669868371E+02 -0.10718853653E+03  0.12299700817E+03  0.00000000000E+00 0.  1.
        -13    1    5    5    0    0  0.87065371361E+02  0.50082670922E+02 -0.55058917670E+02  0.11454316755E+03  0.00000000000E+00 0. -1.
          1    1    6    6  503    0  0.17625342305E+03 -0.19787912303E+03  0.60605957393E+02  0.27183542547E+03  0.00000000000E+00 0. -1.
         -1    1    6    6    0  503  0.40699456945E+03 -0.52240499370E+03  0.12508961197E+02  0.66235038395E+03  0.00000000000E+00 0.  1.
<mgrwt>
<rscale>  0 0.10472919E+04</rscale>
<asrwt>0</asrwt>
<pdfrwt beam="1">  1        1 0.11745947E+00 0.10472919E+04</pdfrwt>
<pdfrwt beam="2">  1       -1 0.27240666E+00 0.10472919E+04</pdfrwt>
<totfact> 0.11918511E+00</totfact>
</mgrwt>
</event>
<event>
12    1  0.1338445E-007  0.7335855E+03  0.7818608E-02  0.9661460E-01
          1   -1    0    0  501    0  0.00000000000E+00  0.00000000000E+00  0.92568729246E+03  0.92568729246E+03  0.00000000000E+00 0. -1.
         -1   -1    0    0    0  501 -0.00000000000E+00 -0.00000000000E+00 -0.59131356029E+03  0.59131356029E+03  0.00000000000E+00 0.  1.
         23    2    1    2    0    0  0.49603865064E+03 -0.35314928586E+03  0.56971194578E+02  0.61830475694E+03  0.91029085536E+02 0.  0.
    5000000    2    1    2    0    0 -0.49603865064E+03  0.35314928586E+03  0.27740253760E+03  0.89869609581E+03  0.59994478390E+03 0.  0.
         23    2    4    4    0    0 -0.18985374689E+03 -0.14823253483E+03  0.60450890517E+02  0.26455713151E+03  0.91207653620E+02 0.  0.
         23    2    4    4    0    0 -0.30618490375E+03  0.50138182069E+03  0.21695164708E+03  0.63413896430E+03  0.99655825040E+02 0.  0.
          2    1    3    3  502    0  0.23084797652E+03 -0.11123625260E+03  0.11829423857E+02  0.25652334675E+03  0.00000000000E+00 0. -1.
         -2    1    3    3    0  502  0.26519067411E+03 -0.24191303326E+03  0.45141770721E+02  0.36178141019E+03  0.00000000000E+00 0.  1.
         13    1    5    5    0    0 -0.83192266679E+02 -0.12142292480E+03  0.41788500074E+02  0.15300574708E+03  0.00000000000E+00 0. -1.
        -13    1    5    5    0    0 -0.10666148021E+03 -0.26809610030E+02  0.18662390443E+02  0.11155138443E+03  0.00000000000E+00 0.  1.
          3    1    6    6  503    0 -0.21031109506E+03  0.41720180295E+03  0.15455700308E+03  0.49211377576E+03  0.00000000000E+00 0. -1.
         -3    1    6    6    0  503 -0.95873808682E+02  0.84180017739E+02  0.62394644004E+02  0.14202518853E+03  0.00000000000E+00 0.  1.
<mgrwt>
<rscale>  0 0.73358546E+03</rscale>
<asrwt>0</asrwt>
<pdfrwt beam="1">  1        1 0.14241343E+00 0.73358546E+03</pdfrwt>
<pdfrwt beam="2">  1       -1 0.90971317E-01 0.73358546E+03</pdfrwt>
<totfact> 0.21071463E+01</totfact>
</mgrwt>
</event>
<event>
12    1  0.1471862E-007  0.1472631E+04  0.7818608E-02  0.8902860E-01
          1   -1    0    0  501    0  0.00000000000E+00  0.00000000000E+00  0.18364989660E+04  0.18364989660E+04  0.00000000000E+00 0. -1.
         -1   -1    0    0    0  501 -0.00000000000E+00 -0.00000000000E+00 -0.12276916279E+04  0.12276916279E+04  0.00000000000E+00 0.  1.
         23    2    1    2    0    0 -0.12573592389E+04  0.70221046462E+03  0.29907856310E+03  0.14736286781E+04  0.89898285706E+02 0.  0.
    5000000    2    1    2    0    0  0.12573592389E+04 -0.70221046462E+03  0.30972877496E+03  0.15905619158E+04  0.59991957920E+03 0.  0.
         23    2    4    4    0    0  0.19998523307E+03 -0.31446085569E+03 -0.86349246344E+02  0.39315568053E+03  0.90749510129E+02 0.  0.
         23    2    4    4    0    0  0.10573740059E+04 -0.38774960893E+03  0.39607802131E+03  0.11974062352E+04  0.92273212327E+02 0.  0.
          1    1    3    3  502    0 -0.66460196036E+03  0.36778109446E+03  0.20344528129E+03  0.78635150005E+03  0.00000000000E+00 0. -1.
         -1    1    3    3    0  502 -0.59275727857E+03  0.33442937016E+03  0.95633281810E+02  0.68727717808E+03  0.00000000000E+00 0.  1.
         13    1    5    5    0    0  0.39139584508E+02 -0.97503624155E+02 -0.61970375120E+02  0.12198029018E+03  0.00000000000E+00 0.  1.
        -13    1    5    5    0    0  0.16084564856E+03 -0.21695723153E+03 -0.24378871224E+02  0.27117539036E+03  0.00000000000E+00 0. -1.
          4    1    6    6  503    0  0.62091167579E+03 -0.17940406613E+03  0.23221727455E+03  0.68676196071E+03  0.00000000000E+00 0. -1.
         -4    1    6    6    0  503  0.43646233007E+03 -0.20834554280E+03  0.16386074675E+03  0.51064427452E+03  0.00000000000E+00 0.  1.
<mgrwt>
<rscale>  0 0.14726312E+04</rscale>
<asrwt>0</asrwt>
<pdfrwt beam="1">  1        1 0.28253830E+00 0.14726312E+04</pdfrwt>
<pdfrwt beam="2">  1       -1 0.18887564E+00 0.14726312E+04</pdfrwt>
<totfact> 0.65740277E-01</totfact>
</mgrwt>
</event>
<event>
12    1  0.1338445E-007  0.7640087E+03  0.7818608E-02  0.9613626E-01
          1   -1    0    0  501    0  0.00000000000E+00  0.00000000000E+00  0.14255021325E+04  0.14255021325E+04  0.00000000000E+00 0. -1.
         -1   -1    0    0    0  501 -0.00000000000E+00 -0.00000000000E+00 -0.60715454401E+03  0.60715454401E+03  0.00000000000E+00 0.  1.
         23    2    1    2    0    0  0.70485527909E+03  0.23080109597E+03  0.77650554306E+03  0.10777334244E+04  0.91969372087E+02 0.  0.
    5000000    2    1    2    0    0 -0.70485527909E+03 -0.23080109597E+03  0.41842045431E+02  0.95492325207E+03  0.60003129103E+03 0.  0.
         23    2    4    4    0    0 -0.10850943287E+03 -0.12348672668E+03 -0.21916453047E+03  0.28879136036E+03  0.91345989049E+02 0.  0.
         23    2    4    4    0    0 -0.59634584622E+03 -0.10731436930E+03  0.26100657590E+03  0.66613189171E+03  0.91991968850E+02 0.  0.
          1    1    3    3  502    0  0.44805433181E+03  0.10217979595E+03  0.45684667929E+03  0.64799867541E+03  0.00000000000E+00 0. -1.
         -1    1    3    3    0  502  0.25680094728E+03  0.12862130002E+03  0.31965886376E+03  0.42973474903E+03  0.00000000000E+00 0.  1.
         11    1    5    5    0    0 -0.65600366403E+02 -0.11097702061E+03 -0.10525510180E+03  0.16642699190E+03  0.00000000000E+00 0. -1.
        -11    1    5    5    0    0 -0.42909066466E+02 -0.12509706067E+02 -0.11390942866E+03  0.12236436846E+03  0.00000000000E+00 0.  1.
          1    1    6    6  503    0 -0.22735397564E+03 -0.18487644929E+02  0.14060991530E+03  0.26796039173E+03  0.00000000000E+00 0. -1.
         -1    1    6    6    0  503 -0.36899187058E+03 -0.88826724367E+02  0.12039666059E+03  0.39817149998E+03  0.00000000000E+00 0.  1.
<mgrwt>
<rscale>  0 0.76400871E+03</rscale>
<asrwt>0</asrwt>
<pdfrwt beam="1">  1        1 0.21930802E+00 0.76400871E+03</pdfrwt>
<pdfrwt beam="2">  1       -1 0.93408391E-01 0.76400871E+03</pdfrwt>
<totfact> 0.84949894E+00</totfact>
</mgrwt>
</event>
<event>
12    1  0.1338445E-007  0.1009192E+04  0.7818608E-02  0.9298520E-01
         -2   -1    0    0    0  501 -0.00000000000E+00  0.00000000000E+00  0.14577658219E+04  0.14577658219E+04  0.00000000000E+00 0.  1.
          2   -1    0    0  501    0  0.00000000000E+00 -0.00000000000E+00 -0.83853100144E+03  0.83853100144E+03  0.00000000000E+00 0. -1.
         23    2    1    2    0    0 -0.79440940827E+03  0.49145790880E+03  0.71871727907E+03  0.11816777496E+04  0.84797361425E+02 0.  0.
    5000000    2    1    2    0    0  0.79440940827E+03 -0.49145790880E+03 -0.99482458558E+02  0.11146190738E+04  0.59988476901E+03 0.  0.
         23    2    4    4    0    0  0.57835203103E+03 -0.46888734058E+02  0.54993454665E+02  0.58988997221E+03  0.90864041708E+02 0.  0.
         23    2    4    4    0    0  0.21605737724E+03 -0.44456917475E+03 -0.15447591322E+03  0.52472910161E+03  0.84588893572E+02 0.  0.
          4    1    3    3  502    0 -0.58076736249E+02  0.63671121279E+02  0.58761738523E+02  0.10430657167E+03  0.00000000000E+00 0. -1.
         -4    1    3    3    0  502 -0.73633267202E+03  0.42778678753E+03  0.65995554054E+03  0.10773711779E+04  0.00000000000E+00 0.  1.
         11    1    5    5    0    0  0.30331857458E+03 -0.62184342610E+02  0.54754604691E+02  0.31443141841E+03  0.00000000000E+00 0. -1.
        -11    1    5    5    0    0  0.27503345646E+03  0.15295608552E+02  0.23884997391E+00  0.27545855380E+03  0.00000000000E+00 0.  1.
          3    1    6    6  503    0  0.41779002190E+02 -0.57803926558E+02  0.50698137072E+01  0.71501622083E+02  0.00000000000E+00 0. -1.
         -3    1    6    6    0  503  0.17427837505E+03 -0.38676524819E+03 -0.15954572693E+03  0.45322747953E+03  0.00000000000E+00 0.  1.
<mgrwt>
<rscale>  0 0.10091918E+04</rscale>
<asrwt>0</asrwt>
<pdfrwt beam="1">  1        2 0.12900477E+00 0.10091918E+04</pdfrwt>
<pdfrwt beam="2">  1       -2 0.22427166E+00 0.10091918E+04</pdfrwt>
<totfact> 0.29835272E+00</totfact>
</mgrwt>
</event>
<event>
12    1  0.1338445E-007  0.1142371E+04  0.7818608E-02  0.9164850E-01
          1   -1    0    0  501    0  0.00000000000E+00  0.00000000000E+00  0.28545914775E+04  0.28545914775E+04  0.00000000000E+00 0.  1.
         -1   -1    0    0    0  501 -0.00000000000E+00 -0.00000000000E+00 -0.49075722373E+03  0.49075722373E+03  0.00000000000E+00 0. -1.
         23    2    1    2    0    0 -0.90196932450E+03  0.61975126423E+03  0.88590674850E+03  0.14109638166E+04  0.91366476232E+02 0.  0.
    5000000    2    1    2    0    0  0.90196932450E+03 -0.61975126423E+03  0.14779275053E+04  0.19343848846E+04  0.59994573007E+03 0.  0.
         23    2    4    4    0    0  0.10304355155E+02 -0.15504268181E+03  0.48852526559E+03  0.52108261578E+03  0.93411693197E+02 0.  0.
         23    2    4    4    0    0  0.89166496935E+03 -0.46470858242E+03  0.98940223968E+03  0.14133022688E+04  0.86521829635E+02 0.  0.
          3    1    3    3  502    0 -0.74171558190E+03  0.49368490674E+03  0.67672560317E+03  0.11188495581E+04  0.00000000000E+00 0. -1.
         -3    1    3    3    0  502 -0.16025374261E+03  0.12606635750E+03  0.20918114532E+03  0.29211425859E+03  0.00000000000E+00 0.  1.
         11    1    5    5    0    0  0.40919977820E+02 -0.14140390531E+03  0.41315741015E+03  0.43859839783E+03  0.00000000000E+00 0. -1.
        -11    1    5    5    0    0 -0.30615622666E+02 -0.13638776499E+02  0.75367855441E+02  0.82484217941E+02  0.00000000000E+00 0.  1.
          3    1    6    6  503    0  0.39300676969E+03 -0.15719547204E+03  0.42372978190E+03  0.59892542568E+03  0.00000000000E+00 0. -1.
         -3    1    6    6    0  503  0.49865819965E+03 -0.30751311039E+03  0.56567245778E+03  0.81437684313E+03  0.00000000000E+00 0.  1.
<mgrwt>
<rscale>  0 0.11423715E+04</rscale>
<asrwt>0</asrwt>
<pdfrwt beam="1">  1        1 0.43916791E+00 0.11423715E+04</pdfrwt>
<pdfrwt beam="2">  1       -1 0.75501113E-01 0.11423715E+04</pdfrwt>
<totfact> 0.13485017E+00</totfact>
</mgrwt>
</event>
<event>
12    1  0.1338445E-007  0.6729435E+03  0.7818608E-02  0.9764655E-01
         -1   -1    0    0    0  501 -0.00000000000E+00  0.00000000000E+00  0.47912989710E+03  0.47912989710E+03  0.00000000000E+00 0.  1.
          1   -1    0    0  501    0  0.00000000000E+00 -0.00000000000E+00 -0.11966074206E+04  0.11966074206E+04  0.00000000000E+00 0. -1.
         23    2    1    2    0    0 -0.76186261256E+02 -0.59794371865E+03 -0.84450451336E+02  0.61555901091E+03  0.91869364345E+02 0.  0.
    5000000    2    1    2    0    0  0.76186261256E+02  0.59794371865E+03 -0.63302707214E+03  0.10601783068E+04  0.59992810487E+03 0.  0.
         23    2    4    4    0    0 -0.42798450082E+02  0.59181734851E+03 -0.25299546358E+03  0.65156250461E+03  0.91910344922E+02 0.  0.
         23    2    4    4    0    0  0.11898471134E+03  0.61263701398E+01 -0.38003160857E+03  0.40861580216E+03  0.91367151215E+02 0.  0.
          2    1    3    3  502    0 -0.92315181408E+02 -0.40677725007E+03 -0.72193001321E+02  0.42332216258E+03  0.00000000000E+00 0.  1.
         -2    1    3    3    0  502  0.16128920152E+02 -0.19116646858E+03 -0.12257450015E+02  0.19223684833E+03  0.00000000000E+00 0. -1.
         11    1    5    5    0    0 -0.36481177322E+01  0.76048976397E+02 -0.88540120969E+00  0.76141575433E+02  0.00000000000E+00 0. -1.
        -11    1    5    5    0    0 -0.39150332349E+02  0.51576837211E+03 -0.25211006237E+03  0.57542092918E+03  0.00000000000E+00 0.  1.
          1    1    6    6  503    0  0.86541837913E+02 -0.33074968349E+02 -0.18294965778E+03  0.20507076955E+03  0.00000000000E+00 0. -1.
         -1    1    6    6    0  503  0.32442873425E+02  0.39201338489E+02 -0.19708195079E+03  0.20354503261E+03  0.00000000000E+00 0.  1.
<mgrwt>
<rscale>  0 0.67294349E+03</rscale>
<asrwt>0</asrwt>
<pdfrwt beam="1">  1        1 0.18409345E+00 0.67294349E+03</pdfrwt>
<pdfrwt beam="2">  1       -1 0.73712293E-01 0.67294349E+03</pdfrwt>
<totfact> 0.20749813E+01</totfact>
</mgrwt>
</event>
<event>
12    1  0.1338445E-007  0.1021598E+04  0.7818608E-02  0.9285168E-01
         -2   -1    0    0    0  501 -0.00000000000E+00  0.00000000000E+00  0.83603189996E+03  0.83603189996E+03  0.00000000000E+00 0.  1.
          2   -1    0    0  501    0  0.00000000000E+00 -0.00000000000E+00 -0.18168024326E+04  0.18168024326E+04  0.00000000000E+00 0. -1.
         23    2    1    2    0    0 -0.98115637938E+02  0.96998782328E+03 -0.11333410277E+04  0.14979224631E+04  0.93844364202E+02 0.  0.
    5000000    2    1    2    0    0  0.98115637938E+02 -0.96998782328E+03  0.15257049508E+03  0.11549118694E+04  0.60003384444E+03 0.  0.
         23    2    4    4    0    0  0.17100828663E+03 -0.13155941111E+03 -0.12313520502E+03  0.26468431980E+03  0.91344390560E+02 0.  0.
         23    2    4    4    0    0 -0.72892648692E+02 -0.83842841217E+03  0.27570570010E+03  0.89022754963E+03  0.90641692849E+02 0.  0.
          4    1    3    3  502    0 -0.46980592464E+02  0.46662774930E+03 -0.61709195037E+03  0.77508135553E+03  0.00000000000E+00 0.  1.
         -4    1    3    3    0  502 -0.51135045474E+02  0.50336007398E+03 -0.51624907733E+03  0.72284110757E+03  0.00000000000E+00 0. -1.
         11    1    5    5    0    0  0.66809842650E+02 -0.20856108536E+02 -0.15334383797E+01  0.70006312369E+02  0.00000000000E+00 0.  1.
        -11    1    5    5    0    0  0.10419844398E+03 -0.11070330257E+03 -0.12160176665E+03  0.19467800744E+03  0.00000000000E+00 0. -1.
          2    1    6    6  503    0 -0.72311168988E+02 -0.33073285555E+03  0.10044445689E+03  0.35313200906E+03  0.00000000000E+00 0. -1.
         -2    1    6    6    0  503 -0.58147970452E+00 -0.50769555662E+03  0.17526124321E+03  0.53709554057E+03  0.00000000000E+00 0.  1.
<mgrwt>
<rscale>  0 0.10215983E+04</rscale>
<asrwt>0</asrwt>
<pdfrwt beam="1">  1        2 0.27950807E+00 0.10215983E+04</pdfrwt>
<pdfrwt beam="2">  1       -2 0.12862029E+00 0.10215983E+04</pdfrwt>
<totfact> 0.37446076E+00</totfact>
</mgrwt>
</event>
<event>
12    1  0.1338445E-007  0.7477776E+03  0.7818608E-02  0.9638843E-01
          1   -1    0    0  501    0  0.00000000000E+00  0.00000000000E+00  0.98169095742E+03  0.98169095742E+03  0.00000000000E+00 0. -1.
         -1   -1    0    0    0  501 -0.00000000000E+00 -0.00000000000E+00 -0.75156099826E+03  0.75156099826E+03  0.00000000000E+00 0.  1.
         23    2    1    2    0    0  0.68122008578E+03  0.27282490805E+03  0.26146793968E+03  0.78473369343E+03  0.94589906462E+02 0.  0.
    5000000    2    1    2    0    0 -0.68122008578E+03 -0.27282490805E+03 -0.31337980515E+02  0.94851826225E+03  0.60017546524E+03 0.  0.
         23    2    4    4    0    0 -0.49597406480E+03 -0.97979340566E+02  0.23876121135E+03  0.56662155202E+03  0.91993711924E+02 0.  0.
         23    2    4    4    0    0 -0.18524602098E+03 -0.17484556748E+03 -0.27009919187E+03  0.38189671023E+03  0.89467665010E+02 0.  0.
          1    1    3    3  502    0  0.19328891686E+03  0.84119208572E+02  0.12097535435E+03  0.24304666835E+03  0.00000000000E+00 0. -1.
         -1    1    3    3    0  502  0.48793116891E+03  0.18870569947E+03  0.14049258533E+03  0.54168702508E+03  0.00000000000E+00 0.  1.
         13    1    5    5    0    0 -0.22101100417E+03 -0.58205260677E+02  0.15606982676E+03  0.27675170669E+03  0.00000000000E+00 0. -1.
        -13    1    5    5    0    0 -0.27496306063E+03 -0.39774079888E+02  0.82691384598E+02  0.28986984532E+03  0.00000000000E+00 0.  1.
          1    1    6    6  503    0 -0.14962085809E+03 -0.14950720858E+03 -0.26316852534E+03  0.33763364661E+03  0.00000000000E+00 0. -1.
         -1    1    6    6    0  503 -0.35625162890E+02 -0.25338358900E+02 -0.69306665258E+01  0.44263063622E+02  0.00000000000E+00 0.  1.
<mgrwt>
<rscale>  0 0.74777758E+03</rscale>
<asrwt>0</asrwt>
<pdfrwt beam="1">  1        1 0.15102938E+00 0.74777758E+03</pdfrwt>
<pdfrwt beam="2">  1       -1 0.11562477E+00 0.74777758E+03</pdfrwt>
<totfact> 0.10939010E+01</totfact>
</mgrwt>
</event>
<event>
12    1  0.1338445E-007  0.5339572E+03  0.7818608E-02  0.1005277E+00
          1   -1    0    0  501    0  0.00000000000E+00  0.00000000000E+00  0.27332015950E+03  0.27332015950E+03  0.00000000000E+00 0. -1.
         -1   -1    0    0    0  501 -0.00000000000E+00 -0.00000000000E+00 -0.12633352341E+04  0.12633352341E+04  0.00000000000E+00 0.  1.
         23    2    1    2    0    0 -0.38555754451E+03  0.76545546003E+02 -0.14600109328E+03  0.42905868795E+03  0.90891131182E+02 0.  0.
    5000000    2    1    2    0    0  0.38555754451E+03 -0.76545546003E+02 -0.84401398136E+03  0.11075967057E+04  0.59991417803E+03 0.  0.
         23    2    4    4    0    0  0.26777416817E+03 -0.30439546723E+03 -0.34907357367E+03  0.54289424243E+03  0.92315724691E+02 0.  0.
         23    2    4    4    0    0  0.11778337634E+03  0.22784992122E+03 -0.49494040769E+03  0.56470246327E+03  0.90190656451E+02 0.  0.
          3    1    3    3  502    0 -0.95826607738E+02  0.15955791103E+02  0.39877766658E+01  0.97227714069E+02  0.00000000000E+00 0. -1.
         -3    1    3    3    0  502 -0.28973093677E+03  0.60589754900E+02 -0.14998886994E+03  0.33183097388E+03  0.00000000000E+00 0.  1.
         11    1    5    5    0    0  0.25671692551E+03 -0.26712660564E+03 -0.34027143692E+03  0.50303563897E+03  0.00000000000E+00 0.  1.
        -11    1    5    5    0    0  0.11057242656E+02 -0.37268861581E+02 -0.88021367478E+01  0.39858603463E+02  0.00000000000E+00 0. -1.
          4    1    6    6  503    0 -0.24368046699E+01  0.53917872081E+02 -0.15751170431E+03  0.16650228809E+03  0.00000000000E+00 0.  1.
         -4    1    6    6    0  503  0.12022018101E+03  0.17393204914E+03 -0.33742870338E+03  0.39820017517E+03  0.00000000000E+00 0. -1.
<mgrwt>
<rscale>  0 0.53395725E+03</rscale>
<asrwt>0</asrwt>
<pdfrwt beam="1">  1        1 0.42049255E-01 0.53395725E+03</pdfrwt>
<pdfrwt beam="2">  1       -1 0.19435927E+00 0.53395725E+03</pdfrwt>
<totfact> 0.17213359E+01</totfact>
</mgrwt>
</event>
<event>
12    1  0.1338445E-007  0.1152673E+04  0.7818608E-02  0.9155321E-01
         -1   -1    0    0    0  501 -0.00000000000E+00  0.00000000000E+00  0.12859223105E+04  0.12859223105E+04  0.00000000000E+00 0.  1.
          1   -1    0    0  501    0  0.00000000000E+00 -0.00000000000E+00 -0.11066875601E+04  0.11066875601E+04  0.00000000000E+00 0. -1.
         23    2    1    2    0    0  0.75256454236E+03  0.77142454969E+03 -0.20515019548E+03  0.11006169171E+04  0.88440766730E+02 0.  0.
    5000000    2    1    2    0    0 -0.75256454236E+03 -0.77142454969E+03  0.38438494588E+03  0.12919929536E+04  0.60003731481E+03 0.  0.
         23    2    4    4    0    0  0.81688934988E+02 -0.96218047893E+02  0.63073484501E+02  0.16785517244E+03  0.90918092954E+02 0.  0.
         23    2    4    4    0    0 -0.83425347735E+03 -0.67520650179E+03  0.32131146138E+03  0.11241377811E+04  0.92531136477E+02 0.  0.
          1    1    3    3  502    0  0.59022090606E+03  0.64558680686E+03 -0.18635585914E+03  0.89435538204E+03  0.00000000000E+00 0. -1.
         -1    1    3    3    0  502  0.16234363631E+03  0.12583774282E+03 -0.18794336338E+02  0.20626153506E+03  0.00000000000E+00 0.  1.
         11    1    5    5    0    0  0.68766520282E+01 -0.68105958580E+02  0.54458366178E+02  0.87472416132E+02  0.00000000000E+00 0. -1.
        -11    1    5    5    0    0  0.74812282960E+02 -0.28112089313E+02  0.86151183229E+01  0.80382756303E+02  0.00000000000E+00 0.  1.
          3    1    6    6  503    0 -0.50961277196E+03 -0.46662282394E+03  0.22071076899E+03  0.72536561865E+03  0.00000000000E+00 0. -1.
         -3    1    6    6    0  503 -0.32464070539E+03 -0.20858367785E+03  0.10060069238E+03  0.39877216248E+03  0.00000000000E+00 0.  1.
<mgrwt>
<rscale>  0 0.11526729E+04</rscale>
<asrwt>0</asrwt>
<pdfrwt beam="1">  1        1 0.17025963E+00 0.11526729E+04</pdfrwt>
<pdfrwt beam="2">  1       -1 0.19783420E+00 0.11526729E+04</pdfrwt>
<totfact> 0.19246022E+00</totfact>
</mgrwt>
</event>
<event>
12    1  0.1338445E-007  0.9082729E+03  0.7818608E-02  0.9415299E-01
         -2   -1    0    0    0  501 -0.00000000000E+00  0.00000000000E+00  0.85269785603E+03  0.85269785603E+03  0.00000000000E+00 0.  1.
          2   -1    0    0  501    0  0.00000000000E+00 -0.00000000000E+00 -0.11446991595E+04  0.11446991595E+04  0.00000000000E+00 0. -1.
         23    2    1    2    0    0  0.81576428937E+03 -0.82931140085E+02  0.22818483838E+03  0.85590480209E+03  0.90309246212E+02 0.  0.
    5000000    2    1    2    0    0 -0.81576428937E+03  0.82931140085E+02 -0.52018614184E+03  0.11414922134E+04  0.60005158226E+03 0.  0.
         23    2    4    4    0    0 -0.11456319662E+03 -0.18905823754E+03 -0.22318860333E+03  0.32777829165E+03  0.93582651275E+02 0.  0.
         23    2    4    4    0    0 -0.70120109276E+03  0.27198937763E+03 -0.29699753851E+03  0.81371392179E+03  0.90893424423E+02 0.  0.
          1    1    3    3  502    0  0.63614331086E+03 -0.10039959792E+03  0.16659210970E+03  0.66521524503E+03  0.00000000000E+00 0. -1.
         -1    1    3    3    0  502  0.17962097852E+03  0.17468457831E+02  0.61592728680E+02  0.19068955705E+03  0.00000000000E+00 0.  1.
         13    1    5    5    0    0 -0.97676837647E+02 -0.71368059326E+02 -0.11900594250E+03  0.16969554754E+03  0.00000000000E+00 0.  1.
        -13    1    5    5    0    0 -0.16886358970E+02 -0.11769017822E+03 -0.10418266083E+03  0.15808274411E+03  0.00000000000E+00 0. -1.
          1    1    6    6  503    0 -0.61861667844E+02  0.27532734795E+02 -0.34354968271E+00  0.67712889911E+02  0.00000000000E+00 0. -1.
         -1    1    6    6    0  503 -0.63933942491E+03  0.24445664283E+03 -0.29665398882E+03  0.74600103188E+03  0.00000000000E+00 0.  1.
<mgrwt>
<rscale>  0 0.90827289E+03</rscale>
<asrwt>0</asrwt>
<pdfrwt beam="1">  1        2 0.17610756E+00 0.90827289E+03</pdfrwt>
<pdfrwt beam="2">  1       -2 0.13118429E+00 0.90827289E+03</pdfrwt>
<totfact> 0.86898790E+00</totfact>
</mgrwt>
</event>
<event>
12    1  0.1338445E-007  0.4792433E+03  0.7818608E-02  0.1019343E+00
          1   -1    0    0  501    0  0.00000000000E+00  0.00000000000E+00  0.23205395409E+04  0.23205395409E+04  0.00000000000E+00 0. -1.
         -1   -1    0    0    0  501 -0.00000000000E+00 -0.00000000000E+00 -0.19807226203E+03  0.19807226203E+03  0.00000000000E+00 0.  1.
         23    2    1    2    0    0  0.12936772952E+03 -0.30047357743E+03  0.58893462017E+02  0.34479130452E+03  0.91609080496E+02 0.  0.
    5000000    2    1    2    0    0 -0.12936772952E+03  0.30047357743E+03  0.20635738168E+04  0.21738204984E+04  0.60011522358E+03 0.  0.
         23    2    4    4    0    0 -0.32856082862E+02 -0.14648555627E+03  0.95982600413E+03  0.97561799007E+03  0.89593325436E+02 0.  0.
         23    2    4    4    0    0 -0.96511646653E+02  0.44695913370E+03  0.11037478127E+04  0.11982025083E+04  0.91340307601E+02 0.  0.
          2    1    3    3  502    0  0.59503196419E+02 -0.22239959952E+03  0.13519680549E+02  0.23061872000E+03  0.00000000000E+00 0. -1.
         -2    1    3    3    0  502  0.69864533096E+02 -0.78073977908E+02  0.45373781468E+02  0.11417258452E+03  0.00000000000E+00 0.  1.
         11    1    5    5    0    0  0.11517158831E+01 -0.10012350522E+03  0.79005061148E+03  0.79637052397E+03  0.00000000000E+00 0. -1.
        -11    1    5    5    0    0 -0.34007798745E+02 -0.46362051055E+02  0.16977539265E+03  0.17924746610E+03  0.00000000000E+00 0.  1.
          2    1    6    6  503    0  0.17306624589E+02  0.69422250884E+02  0.15172400359E+03  0.16774725464E+03  0.00000000000E+00 0. -1.
         -2    1    6    6    0  503 -0.11381827124E+03  0.37753688281E+03  0.95202380913E+03  0.10304552537E+04  0.00000000000E+00 0.  1.
<mgrwt>
<rscale>  0 0.47924329E+03</rscale>
<asrwt>0</asrwt>
<pdfrwt beam="1">  1        1 0.35700606E+00 0.47924329E+03</pdfrwt>
<pdfrwt beam="2">  1       -1 0.30472657E-01 0.47924329E+03</pdfrwt>
<totfact> 0.19651591E+01</totfact>
</mgrwt>
</event>
<event>
12    1  0.1338445E-007  0.1500038E+04  0.7818608E-02  0.8884428E-01
          1   -1    0    0  501    0  0.00000000000E+00  0.00000000000E+00  0.14516120992E+04  0.14516120992E+04  0.00000000000E+00 0. -1.
         -1   -1    0    0    0  501 -0.00000000000E+00 -0.00000000000E+00 -0.17297829528E+04  0.17297829528E+04  0.00000000000E+00 0.  1.
         23    2    1    2    0    0 -0.44875562571E+03 -0.14151137860E+04  0.22207041524E+03  0.15038568502E+04  0.91331908570E+02 0.  0.
    5000000    2    1    2    0    0  0.44875562571E+03  0.14151137860E+04 -0.50024126881E+03  0.16775382019E+04  0.59997037649E+03 0.  0.
         23    2    4    4    0    0  0.26939052025E+03  0.43415028000E+03  0.72481523542E+02  0.52387789159E+03  0.90203968975E+02 0.  0.
         23    2    4    4    0    0  0.17936510545E+03  0.98096350602E+03 -0.57272279236E+03  0.11536603103E+04  0.91975395559E+02 0.  0.
          2    1    3    3  502    0 -0.14178539323E+03 -0.59556332596E+03  0.88891460730E+02  0.61862788876E+03  0.00000000000E+00 0. -1.
         -2    1    3    3    0  502 -0.30697023248E+03 -0.81955046006E+03  0.13317895451E+03  0.88522896142E+03  0.00000000000E+00 0.  1.
         13    1    5    5    0    0  0.12752836489E+03  0.18786734618E+03  0.76582139575E+02  0.23962981391E+03  0.00000000000E+00 0. -1.
        -13    1    5    5    0    0  0.14186215536E+03  0.24628293382E+03 -0.41006160326E+01  0.28424807768E+03  0.00000000000E+00 0.  1.
          1    1    6    6  503    0  0.12690398490E+03  0.86364768427E+03 -0.49641230872E+03  0.10041997432E+04  0.00000000000E+00 0. -1.
         -1    1    6    6    0  503  0.52461120559E+02  0.11731582175E+03 -0.76310483636E+02  0.14946056709E+03  0.00000000000E+00 0.  1.
<mgrwt>
<rscale>  0 0.15000380E+04</rscale>
<asrwt>0</asrwt>
<pdfrwt beam="1">  1        1 0.22332494E+00 0.15000380E+04</pdfrwt>
<pdfrwt beam="2">  1       -1 0.26612046E+00 0.15000380E+04</pdfrwt>
<totfact> 0.36614230E-01</totfact>
</mgrwt>
</event>
<event>
12    1  0.1338445E-007  0.8705937E+03  0.7818608E-02  0.9463106E-01
         -2   -1    0    0    0  501 -0.00000000000E+00  0.00000000000E+00  0.62441831415E+03  0.62441831415E+03  0.00000000000E+00 0.  1.
          2   -1    0    0  501    0  0.00000000000E+00 -0.00000000000E+00 -0.14586583226E+04  0.14586583226E+04  0.00000000000E+00 0. -1.
         23    2    1    2    0    0  0.83937945410E+03  0.12129154724E+03 -0.51484594342E+03  0.99626815058E+03  0.90633189299E+02 0.  0.
    5000000    2    1    2    0    0 -0.83937945410E+03 -0.12129154724E+03 -0.31939406503E+03  0.10868084862E+04  0.59989216481E+03 0.  0.
         23    2    4    4    0    0 -0.41668099153E+02 -0.20590005275E+02  0.12728694768E+03  0.16234927282E+03  0.89415549719E+02 0.  0.
         23    2    4    4    0    0 -0.79771135495E+03 -0.10070154197E+03 -0.44668101270E+03  0.92445921334E+03  0.92826201300E+02 0.  0.
          3    1    3    3  502    0  0.22947093946E+03 -0.67511877847E+01 -0.14699276976E+03  0.27259744121E+03  0.00000000000E+00 0. -1.
         -3    1    3    3    0  502  0.60990851465E+03  0.12804273503E+03 -0.36785317366E+03  0.72367070937E+03  0.00000000000E+00 0.  1.
         11    1    5    5    0    0 -0.51946178394E+02 -0.37800221289E+02  0.47007772704E+02  0.79605231448E+02  0.00000000000E+00 0.  1.
        -11    1    5    5    0    0  0.10278079241E+02  0.17210216013E+02  0.80279174972E+02  0.82744041370E+02  0.00000000000E+00 0. -1.
          2    1    6    6  503    0 -0.36919490970E+03 -0.40866211222E+02 -0.25901452145E+03  0.45283932127E+03  0.00000000000E+00 0. -1.
         -2    1    6    6    0  503 -0.42851644525E+03 -0.59835330745E+02 -0.18766649126E+03  0.47161989207E+03  0.00000000000E+00 0.  1.
<mgrwt>
<rscale>  0 0.87059368E+03</rscale>
<asrwt>0</asrwt>
<pdfrwt beam="1">  1        2 0.22440897E+00 0.87059368E+03</pdfrwt>
<pdfrwt beam="2">  1       -2 0.96064357E-01 0.87059368E+03</pdfrwt>
<totfact> 0.12273674E+01</totfact>
</mgrwt>
</event>
<event>
12    1  0.1677157E-007  0.6987538E+03  0.7818608E-02  0.9719366E-01
          2   -1    0    0  501    0  0.00000000000E+00  0.00000000000E+00  0.17057466426E+04  0.17057466426E+04  0.00000000000E+00 0. -1.
         -2   -1    0    0    0  501 -0.00000000000E+00 -0.00000000000E+00 -0.40050476899E+03  0.40050476899E+03  0.00000000000E+00 0.  1.
         23    2    1    2    0    0  0.46332161861E+03  0.47593175911E+03  0.23446390394E+03  0.71066690557E+03  0.94319493325E+02 0.  0.
    5000000    2    1    2    0    0 -0.46332161861E+03 -0.47593175911E+03  0.10707779697E+04  0.13955845061E+04  0.59992723856E+03 0.  0.
         23    2    4    4    0    0 -0.37488420084E+03 -0.49083485308E+03  0.47043532102E+03  0.78163353687E+03  0.90468655677E+02 0.  0.
         23    2    4    4    0    0 -0.88437417770E+02  0.14903093969E+02  0.60034264869E+03  0.61395096920E+03  0.92093526787E+02 0.  0.
          1    1    3    3  502    0  0.21889286091E+03  0.22710317800E+03  0.16132423389E+03  0.35428159204E+03  0.00000000000E+00 0. -1.
         -1    1    3    3    0  502  0.24442875769E+03  0.24882858111E+03  0.73139670050E+02  0.35638531353E+03  0.00000000000E+00 0.  1.
         11    1    5    5    0    0 -0.13112685543E+03 -0.11169892326E+03  0.10857680097E+03  0.20361685436E+03  0.00000000000E+00 0. -1.
        -11    1    5    5    0    0 -0.24375734541E+03 -0.37913592982E+03  0.36185852005E+03  0.57801668250E+03  0.00000000000E+00 0.  1.
          3    1    6    6  503    0 -0.87799373894E+02 -0.72872786342E+01  0.29685789380E+03  0.30965536262E+03  0.00000000000E+00 0. -1.
         -3    1    6    6    0  503 -0.63804387576E+00  0.22190372603E+02  0.30348475489E+03  0.30429560658E+03  0.00000000000E+00 0.  1.
<mgrwt>
<rscale>  0 0.69875381E+03</rscale>
<asrwt>0</asrwt>
<pdfrwt beam="1">  1        2 0.26242256E+00 0.69875381E+03</pdfrwt>
<pdfrwt beam="2">  1       -2 0.61616119E-01 0.69875381E+03</pdfrwt>
<totfact> 0.24646591E+01</totfact>
</mgrwt>
</event>
<event>
12    1  0.1338445E-007  0.1898538E+04  0.7818608E-02  0.8655585E-01
          1   -1    0    0  501    0  0.00000000000E+00  0.00000000000E+00  0.23451909484E+04  0.23451909484E+04  0.00000000000E+00 0. -1.
         -1   -1    0    0    0  501 -0.00000000000E+00 -0.00000000000E+00 -0.16516060443E+04  0.16516060443E+04  0.00000000000E+00 0.  1.
         23    2    1    2    0    0  0.18848437662E+04  0.11016706074E+03  0.69963871272E+03  0.20156629635E+04  0.92898061330E+02 0.  0.
    5000000    2    1    2    0    0 -0.18848437662E+04 -0.11016706074E+03 -0.60538085826E+01  0.19811340292E+04  0.60006881993E+03 0.  0.
         23    2    4    4    0    0 -0.31415589807E+03 -0.10646277661E+03  0.19493942938E+03  0.39511613542E+03  0.89928461865E+02 0.  0.
         23    2    4    4    0    0 -0.15706878682E+04 -0.37042841347E+01 -0.20099323796E+03  0.15860178938E+04  0.89332954342E+02 0.  0.
          2    1    3    3  502    0  0.13581633780E+04  0.11701549321E+03  0.48541866954E+03  0.14470423877E+04  0.00000000000E+00 0. -1.
         -2    1    3    3    0  502  0.52668038825E+03 -0.68484324685E+01  0.21422004318E+03  0.56862057587E+03  0.00000000000E+00 0.  1.
         13    1    5    5    0    0 -0.25301867830E+03 -0.67310151434E+02  0.18771432417E+03  0.32215799781E+03  0.00000000000E+00 0. -1.
        -13    1    5    5    0    0 -0.61137219764E+02 -0.39152625171E+02  0.72251052059E+01  0.72958137610E+02  0.00000000000E+00 0.  1.
          3    1    6    6  503    0 -0.10865495931E+04  0.34468442996E+02 -0.12055119387E+03  0.10937598833E+04  0.00000000000E+00 0. -1.
         -3    1    6    6    0  503 -0.48413827504E+03 -0.38172727131E+02 -0.80442044086E+02  0.49225801051E+03  0.00000000000E+00 0.  1.
<mgrwt>
<rscale>  0 0.18985376E+04</rscale>
<asrwt>0</asrwt>
<pdfrwt beam="1">  1        1 0.36079861E+00 0.18985376E+04</pdfrwt>
<pdfrwt beam="2">  1       -1 0.25409324E+00 0.18985376E+04</pdfrwt>
<totfact> 0.10238541E-01</totfact>
</mgrwt>
</event>
<event>
12    1  0.1338445E-007  0.7484612E+03  0.7818608E-02  0.9637768E-01
         -1   -1    0    0    0  501 -0.00000000000E+00  0.00000000000E+00  0.14082396629E+04  0.14082396629E+04  0.00000000000E+00 0.  1.
          1   -1    0    0  501    0  0.00000000000E+00 -0.00000000000E+00 -0.59227095036E+03  0.59227095036E+03  0.00000000000E+00 0. -1.
         23    2    1    2    0    0  0.66676205807E+03 -0.74959450281E+02  0.86740412574E+03  0.10988346494E+04  0.69692956580E+02 0.  0.
    5000000    2    1    2    0    0 -0.66676205807E+03  0.74959450281E+02 -0.51435413212E+02  0.90167596380E+03  0.60015279779E+03 0.  0.
         23    2    4    4    0    0 -0.22592819722E+03 -0.18607829000E+03 -0.19304871820E+03  0.36195826759E+03  0.89873798028E+02 0.  0.
         23    2    4    4    0    0 -0.44083386085E+03  0.26103774028E+03  0.14161330499E+03  0.53971769621E+03  0.93625150053E+02 0.  0.
          4    1    3    3  502    0  0.27152629352E+03 -0.35702691018E+01  0.38484579932E+03  0.47100484515E+03  0.00000000000E+00 0. -1.
         -4    1    3    3    0  502  0.39523576455E+03 -0.71389181180E+02  0.48255832641E+03  0.62782980430E+03  0.00000000000E+00 0.  1.
         11    1    5    5    0    0 -0.62500126231E+02 -0.10822843719E+03 -0.72800546473E+02  0.14463602581E+03  0.00000000000E+00 0. -1.
        -11    1    5    5    0    0 -0.16342807099E+03 -0.77849852811E+02 -0.12024817173E+03  0.21732224178E+03  0.00000000000E+00 0.  1.
          4    1    6    6  503    0 -0.10357726799E+03  0.26394129767E+02  0.53475291847E+02  0.11951781193E+03  0.00000000000E+00 0. -1.
         -4    1    6    6    0  503 -0.33725659286E+03  0.23464361052E+03  0.88138013144E+02  0.42019988428E+03  0.00000000000E+00 0.  1.
<mgrwt>
<rscale>  0 0.74846120E+03</rscale>
<asrwt>0</asrwt>
<pdfrwt beam="1">  1        1 0.91118609E-01 0.74846120E+03</pdfrwt>
<pdfrwt beam="2">  1       -1 0.21665225E+00 0.74846120E+03</pdfrwt>
<totfact> 0.42002055E+00</totfact>
</mgrwt>
</event>
<event>
12    1  0.1338445E-007  0.1380535E+04  0.7818608E-02  0.8968030E-01
          2   -1    0    0  501    0  0.00000000000E+00  0.00000000000E+00  0.11431710679E+04  0.11431710679E+04  0.00000000000E+00 0. -1.
         -2   -1    0    0    0  501 -0.00000000000E+00 -0.00000000000E+00 -0.16954535381E+04  0.16954535381E+04  0.00000000000E+00 0.  1.
         23    2    1    2    0    0  0.29372141549E+03 -0.12867104539E+04 -0.13390745418E+03  0.13296720039E+04  0.90555891254E+02 0.  0.
    5000000    2    1    2    0    0 -0.29372141549E+03  0.12867104539E+04 -0.41837501601E+03  0.15089526021E+04  0.60000353257E+03 0.  0.
         23    2    4    4    0    0 -0.44075019306E+03  0.65080719884E+03 -0.21683501087E+03  0.81999097689E+03  0.86931222839E+02 0.  0.
         23    2    4    4    0    0  0.14702877757E+03  0.63590325511E+03 -0.20154000515E+03  0.68896162519E+03  0.89773804782E+02 0.  0.
          4    1    3    3  502    0  0.11736337221E+03 -0.64803133513E+03 -0.32486840899E+02  0.65937407234E+03  0.00000000000E+00 0. -1.
         -4    1    3    3    0  502  0.17635804329E+03 -0.63867911882E+03 -0.10142061328E+03  0.67029793155E+03  0.00000000000E+00 0.  1.
         13    1    5    5    0    0 -0.51779025441E+02  0.10370350014E+03 -0.47778402217E+01  0.11600996153E+03  0.00000000000E+00 0.  1.
        -13    1    5    5    0    0 -0.38897116762E+03  0.54710369870E+03 -0.21205717064E+03  0.70398101536E+03  0.00000000000E+00 0. -1.
          1    1    6    6  503    0  0.61397856954E+02  0.28198469883E+03 -0.13579256104E+03  0.31894307776E+03  0.00000000000E+00 0. -1.
         -1    1    6    6    0  503  0.85630920613E+02  0.35391855628E+03 -0.65747444104E+02  0.37001854744E+03  0.00000000000E+00 0.  1.
<mgrwt>
<rscale>  0 0.13805353E+04</rscale>
<asrwt>0</asrwt>
<pdfrwt beam="1">  1        2 0.17587247E+00 0.13805353E+04</pdfrwt>
<pdfrwt beam="2">  1       -2 0.26083900E+00 0.13805353E+04</pdfrwt>
<totfact> 0.10799311E+00</totfact>
</mgrwt>
</event>
<event>
12    1  0.1338445E-007  0.7662043E+03  0.7818608E-02  0.9610266E-01
         -2   -1    0    0    0  501 -0.00000000000E+00  0.00000000000E+00  0.61267702050E+03  0.61267702050E+03  0.00000000000E+00 0.  1.
          2   -1    0    0  501    0  0.00000000000E+00 -0.00000000000E+00 -0.10709135278E+04  0.10709135278E+04  0.00000000000E+00 0. -1.
         23    2    1    2    0    0 -0.58888600485E+03  0.30750210635E+03 -0.41280285170E+03  0.78618924424E+03  0.79643337902E+02 0.  0.
    5000000    2    1    2    0    0  0.58888600485E+03 -0.30750210635E+03 -0.45433655635E+02  0.89740130409E+03  0.60159838049E+03 0.  0.
         23    2    4    4    0    0  0.59856545823E+03 -0.56419057477E+02  0.58315211244E+02  0.61049250504E+03  0.88525233770E+02 0.  0.
         23    2    4    4    0    0 -0.96794533734E+01 -0.25108304887E+03 -0.10374886688E+03  0.28690879906E+03  0.91741170425E+02 0.  0.
          1    1    3    3  502    0 -0.36675893089E+03  0.19177552048E+03 -0.21107740446E+03  0.46458974840E+03  0.00000000000E+00 0. -1.
         -1    1    3    3    0  502 -0.22212707396E+03  0.11572658587E+03 -0.20172544724E+03  0.32159949585E+03  0.00000000000E+00 0.  1.
         13    1    5    5    0    0  0.37366258002E+03 -0.56956863813E+02  0.73571334343E+02  0.38507213516E+03  0.00000000000E+00 0.  1.
        -13    1    5    5    0    0  0.22490287821E+03  0.53780633577E+00 -0.15256123099E+02  0.22542036988E+03  0.00000000000E+00 0. -1.
          1    1    6    6  503    0 -0.42145091631E+02 -0.74049011784E+02 -0.51223498379E+02  0.99414846381E+02  0.00000000000E+00 0. -1.
         -1    1    6    6    0  503  0.32465638258E+02 -0.17703403708E+03 -0.52525368499E+02  0.18749395268E+03  0.00000000000E+00 0.  1.
<mgrwt>
<rscale>  0 0.76620427E+03</rscale>
<asrwt>0</asrwt>
<pdfrwt beam="1">  1        2 0.16475592E+00 0.76620427E+03</pdfrwt>
<pdfrwt beam="2">  1       -2 0.94258005E-01 0.76620427E+03</pdfrwt>
<totfact> 0.21894814E+01</totfact>
</mgrwt>
</event>
<event>
12    1  0.1338445E-007  0.4266533E+03  0.7818608E-02  0.1034922E+00
         -1   -1    0    0    0  501 -0.00000000000E+00  0.00000000000E+00  0.15014322127E+03  0.15014322127E+03  0.00000000000E+00 0.  1.
          1   -1    0    0  501    0  0.00000000000E+00 -0.00000000000E+00 -0.22651429947E+04  0.22651429947E+04  0.00000000000E+00 0. -1.
         23    2    1    2    0    0  0.32204989126E+03  0.18853699689E+03 -0.11950510389E+04  0.12551894045E+04  0.89950674025E+02 0.  0.
    5000000    2    1    2    0    0 -0.32204989126E+03 -0.18853699689E+03 -0.91994873452E+03  0.11600968115E+04  0.60021380051E+03 0.  0.
         23    2    4    4    0    0  0.15735300389E+02 -0.98846159217E+02 -0.74889473427E+03  0.76063680334E+03  0.87788727664E+02 0.  0.
         23    2    4    4    0    0 -0.33778519165E+03 -0.89690837677E+02 -0.17105400025E+03  0.39946000819E+03  0.90363405655E+02 0.  0.
          3    1    3    3  502    0  0.20238993183E+03  0.16147938715E+03 -0.74462036027E+03  0.78835065669E+03  0.00000000000E+00 0. -1.
         -3    1    3    3    0  502  0.11965995943E+03  0.27057609741E+02 -0.45043067866E+03  0.46683874776E+03  0.00000000000E+00 0.  1.
         13    1    5    5    0    0  0.35286986352E+01 -0.10397714423E+03 -0.46774429554E+03  0.47917473248E+03  0.00000000000E+00 0. -1.
        -13    1    5    5    0    0  0.12206601753E+02  0.51309850174E+01 -0.28115043873E+03  0.28146207086E+03  0.00000000000E+00 0.  1.
          3    1    6    6  503    0 -0.14660424202E+03 -0.69326037365E+02 -0.40779441451E+02  0.16721801961E+03  0.00000000000E+00 0. -1.
         -3    1    6    6    0  503 -0.19118094963E+03 -0.20364800312E+02 -0.13027455880E+03  0.23224198858E+03  0.00000000000E+00 0.  1.
<mgrwt>
<rscale>  0 0.42665330E+03</rscale>
<asrwt>0</asrwt>
<pdfrwt beam="1">  1        1 0.34848349E+00 0.42665330E+03</pdfrwt>
<pdfrwt beam="2">  1       -1 0.23098961E-01 0.42665330E+03</pdfrwt>
<totfact> 0.34695055E+01</totfact>
</mgrwt>
</event>
<event>
12    1  0.1338445E-007  0.1125082E+04  0.7818608E-02  0.9181084E-01
          2   -1    0    0  501    0  0.00000000000E+00  0.00000000000E+00  0.19774208862E+04  0.19774208862E+04  0.00000000000E+00 0. -1.
         -2   -1    0    0    0  501 -0.00000000000E+00 -0.00000000000E+00 -0.99893982261E+03  0.99893982261E+03  0.00000000000E+00 0.  1.
         23    2    1    2    0    0 -0.96536073060E+03 -0.48185781334E+03  0.13085166550E+04  0.16983866049E+04  0.90514809145E+02 0.  0.
    5000000    2    1    2    0    0  0.96536073060E+03  0.48185781334E+03 -0.33003559137E+03  0.12779741040E+04  0.60015500206E+03 0.  0.
         23    2    4    4    0    0  0.91674937899E+02  0.22098130709E+03  0.88170900279E+02  0.27082733452E+03  0.91303368745E+02 0.  0.
         23    2    4    4    0    0  0.87368579270E+03  0.26087650625E+03 -0.41820649165E+03  0.10071467695E+04  0.89802726928E+02 0.  0.
          2    1    3    3  502    0 -0.78398350841E+03 -0.35364246084E+03  0.10175699374E+04  0.13323444409E+04  0.00000000000E+00 0. -1.
         -2    1    3    3    0  502 -0.18137722219E+03 -0.12821535249E+03  0.29094671758E+03  0.36604216398E+03  0.00000000000E+00 0.  1.
         13    1    5    5    0    0  0.20154270334E+02  0.14959288886E+03  0.28933561378E+02  0.15369247862E+03  0.00000000000E+00 0. -1.
        -13    1    5    5    0    0  0.71520667565E+02  0.71388418229E+02  0.59237338900E+02  0.11713485590E+03  0.00000000000E+00 0.  1.
          1    1    6    6  503    0  0.53995326931E+03  0.20530418519E+03 -0.25308622591E+03  0.63067581152E+03  0.00000000000E+00 0. -1.
         -1    1    6    6    0  503  0.33373252339E+03  0.55572321054E+02 -0.16512026574E+03  0.37647095797E+03  0.00000000000E+00 0.  1.
<mgrwt>
<rscale>  0 0.11250823E+04</rscale>
<asrwt>0</asrwt>
<pdfrwt beam="1">  1        2 0.30421860E+00 0.11250823E+04</pdfrwt>
<pdfrwt beam="2">  1       -2 0.15368305E+00 0.11250823E+04</pdfrwt>
<totfact> 0.18958684E+00</totfact>
</mgrwt>
</event>
<event>
12    1  0.1734220E-007  0.8107707E+03  0.7818608E-02  0.9544556E-01
          1   -1    0    0  501    0  0.00000000000E+00  0.00000000000E+00  0.17428917458E+04  0.17428917458E+04  0.00000000000E+00 0. -1.
         -1   -1    0    0    0  501 -0.00000000000E+00 -0.00000000000E+00 -0.12492366134E+04  0.12492366134E+04  0.00000000000E+00 0.  1.
         23    2    1    2    0    0  0.71131471721E+03 -0.20723172458E+03 -0.98320637263E+03  0.12340783702E+04  0.85679857530E+02 0.  0.
    5000000    2    1    2    0    0 -0.71131471721E+03  0.20723172458E+03  0.14768615050E+04  0.17580499890E+04  0.60058824871E+03 0.  0.
         23    2    4    4    0    0 -0.59012534074E+03  0.34020497247E+03  0.13625120947E+04  0.15260842528E+04  0.92231216620E+02 0.  0.
         23    2    4    4    0    0 -0.12118937647E+03 -0.13297324788E+03  0.11434941029E+03  0.23196573626E+03  0.91452531652E+02 0.  0.
          1    1    3    3  502    0  0.47454485154E+03 -0.11697031902E+03 -0.58783540905E+03  0.76447716760E+03  0.00000000000E+00 0. -1.
         -1    1    3    3    0  502  0.23676986567E+03 -0.90261405564E+02 -0.39537096358E+03  0.46960120258E+03  0.00000000000E+00 0.  1.
         11    1    5    5    0    0 -0.46888649973E+03  0.23446828834E+03  0.98760670439E+03  0.11181220552E+04  0.00000000000E+00 0. -1.
        -11    1    5    5    0    0 -0.12123884101E+03  0.10573668412E+03  0.37490539030E+03  0.40796219753E+03  0.00000000000E+00 0.  1.
          3    1    6    6  503    0 -0.12779993001E+03 -0.10457525796E+03  0.11745474544E+03  0.20264358839E+03  0.00000000000E+00 0. -1.
         -3    1    6    6    0  503  0.66105535402E+01 -0.28397989921E+02 -0.31053351524E+01  0.29322147877E+02  0.00000000000E+00 0.  1.
<mgrwt>
<rscale>  0 0.81077073E+03</rscale>
<asrwt>0</asrwt>
<pdfrwt beam="1">  1        1 0.26813719E+00 0.81077073E+03</pdfrwt>
<pdfrwt beam="2">  1       -1 0.19219025E+00 0.81077073E+03</pdfrwt>
<totfact> 0.79327698E-01</totfact>
</mgrwt>
</event>
<event>
12    1  0.1338445E-007  0.1027110E+04  0.7818608E-02  0.9279301E-01
         -1   -1    0    0    0  501 -0.00000000000E+00  0.00000000000E+00  0.72134575526E+03  0.72134575526E+03  0.00000000000E+00 0.  1.
          1   -1    0    0  501    0  0.00000000000E+00 -0.00000000000E+00 -0.21903177243E+04  0.21903177243E+04  0.00000000000E+00 0. -1.
         23    2    1    2    0    0 -0.12483082832E+02 -0.95704593282E+03  0.11267748169E+03  0.96802710046E+03  0.91035748275E+02 0.  0.
    5000000    2    1    2    0    0  0.12483082832E+02  0.95704593282E+03 -0.15816494507E+04  0.19436363791E+04  0.60001220345E+03 0.  0.
         23    2    4    4    0    0  0.25945406638E+03  0.57233097732E+03 -0.69458280503E+03  0.94155482766E+03  0.95922157437E+02 0.  0.
         23    2    4    4    0    0 -0.24697098355E+03  0.38471495550E+03 -0.88706664571E+03  0.10020815514E+04  0.90994165329E+02 0.  0.
          3    1    3    3  502    0 -0.43299079139E+02 -0.45966630348E+03  0.80403011874E+02  0.46864972542E+03  0.00000000000E+00 0. -1.
         -3    1    3    3    0  502  0.30815996308E+02 -0.49737962934E+03  0.32274469816E+02  0.49937737505E+03  0.00000000000E+00 0.  1.
         11    1    5    5    0    0  0.11500916826E+03  0.36605922465E+03 -0.42946032411E+03  0.57590158424E+03  0.00000000000E+00 0. -1.
        -11    1    5    5    0    0  0.14444489811E+03  0.20627175267E+03 -0.26512248091E+03  0.36565324342E+03  0.00000000000E+00 0.  1.
          3    1    6    6  503    0 -0.18000615768E+03  0.24809566797E+03 -0.50378868181E+03  0.58970900722E+03  0.00000000000E+00 0. -1.
         -3    1    6    6    0  503 -0.66964825866E+02  0.13661928753E+03 -0.38327796389E+03  0.41237254423E+03  0.00000000000E+00 0.  1.
<mgrwt>
<rscale>  0 0.10271103E+04</rscale>
<asrwt>0</asrwt>
<pdfrwt beam="1">  1        1 0.33697196E+00 0.10271103E+04</pdfrwt>
<pdfrwt beam="2">  1       -1 0.11097627E+00 0.10271103E+04</pdfrwt>
<totfact> 0.16689627E+00</totfact>
</mgrwt>
</event>
<event>
12    1  0.1338445E-007  0.4936454E+03  0.7818608E-02  0.1015451E+00
          2   -1    0    0  501    0  0.00000000000E+00  0.00000000000E+00  0.12573316299E+04  0.12573316299E+04  0.00000000000E+00 0. -1.
         -2   -1    0    0    0  501 -0.00000000000E+00 -0.00000000000E+00 -0.50050193933E+03  0.50050193933E+03  0.00000000000E+00 0.  1.
         23    2    1    2    0    0 -0.34123129986E+03  0.21828238583E+03  0.92554928701E+03  0.10145469533E+04  0.92617696755E+02 0.  0.
    5000000    2    1    2    0    0  0.34123129986E+03 -0.21828238583E+03 -0.16871959643E+03  0.74328661596E+03  0.59993557261E+03 0.  0.
         23    2    4    4    0    0  0.35752996556E+03 -0.29291467520E+03  0.71866772720E+02  0.47436179904E+03  0.78915145264E+02 0.  0.
         23    2    4    4    0    0 -0.16298665697E+02  0.74632289371E+02 -0.24058636915E+03  0.26892481692E+03  0.92753064723E+02 0.  0.
          4    1    3    3  502    0 -0.10391845840E+03  0.73836543508E+02  0.19516128924E+03  0.23310686384E+03  0.00000000000E+00 0. -1.
         -4    1    3    3    0  502 -0.23731284146E+03  0.14444584232E+03  0.73038799778E+03  0.78144008944E+03  0.00000000000E+00 0.  1.
         11    1    5    5    0    0  0.30901341046E+03 -0.22118586691E+03  0.40113880286E+02  0.38212772597E+03  0.00000000000E+00 0. -1.
        -11    1    5    5    0    0  0.48516555093E+02 -0.71728808292E+02  0.31752892435E+02  0.92234073070E+02  0.00000000000E+00 0.  1.
          1    1    6    6  503    0  0.26393925835E+02  0.67002651093E+02 -0.11136919589E+03  0.13262387556E+03  0.00000000000E+00 0. -1.
         -1    1    6    6    0  503 -0.42692591532E+02  0.76296382775E+01 -0.12921717325E+03  0.13630094136E+03  0.00000000000E+00 0.  1.
<mgrwt>
<rscale>  0 0.49364536E+03</rscale>
<asrwt>0</asrwt>
<pdfrwt beam="1">  1        2 0.19343563E+00 0.49364536E+03</pdfrwt>
<pdfrwt beam="2">  1       -2 0.77000299E-01 0.49364536E+03</pdfrwt>
<totfact> 0.27822060E+01</totfact>
</mgrwt>
</event>
<event>
12    1  0.1338445E-007  0.5108759E+03  0.7818608E-02  0.1010979E+00
          2   -1    0    0  501    0  0.00000000000E+00  0.00000000000E+00  0.42829412411E+03  0.42829412411E+03  0.00000000000E+00 0. -1.
         -2   -1    0    0    0  501 -0.00000000000E+00 -0.00000000000E+00 -0.71580159049E+03  0.71580159049E+03  0.00000000000E+00 0.  1.
         23    2    1    2    0    0 -0.26462871526E+03 -0.27315976688E+03 -0.15719020406E+03  0.42145185709E+03  0.90930151289E+02 0.  0.
    5000000    2    1    2    0    0  0.26462871526E+03  0.27315976688E+03 -0.13031726232E+03  0.72264385750E+03  0.60048891809E+03 0.  0.
         23    2    4    4    0    0  0.10878607811E+03  0.40577553005E+03  0.54900087414E+02  0.43221367524E+03  0.85477774246E+02 0.  0.
         23    2    4    4    0    0  0.15584263716E+03 -0.13261576317E+03 -0.18521734973E+03  0.29043018227E+03  0.90390021198E+02 0.  0.
          3    1    3    3  502    0 -0.15688172395E+03 -0.10189105887E+03 -0.56316394985E+02  0.19535915523E+03  0.00000000000E+00 0. -1.
         -3    1    3    3    0  502 -0.10774699131E+03 -0.17126870801E+03 -0.10087380907E+03  0.22609270187E+03  0.00000000000E+00 0.  1.
         11    1    5    5    0    0  0.68228370005E+02  0.31851545429E+03  0.96595201974E+01  0.32588419941E+03  0.00000000000E+00 0.  1.
        -11    1    5    5    0    0  0.40557708102E+02  0.87260075754E+02  0.45240567216E+02  0.10632947582E+03  0.00000000000E+00 0. -1.
          4    1    6    6  503    0  0.93014820329E+02 -0.10891523092E+03 -0.16865881404E+03  0.22126924748E+03  0.00000000000E+00 0. -1.
         -4    1    6    6    0  503  0.62827816829E+02 -0.23700532250E+02 -0.16558535695E+02  0.69160934789E+02  0.00000000000E+00 0.  1.
<mgrwt>
<rscale>  0 0.51087586E+03</rscale>
<asrwt>0</asrwt>
<pdfrwt beam="1">  1        2 0.65891404E-01 0.51087586E+03</pdfrwt>
<pdfrwt beam="2">  1       -2 0.11012332E+00 0.51087586E+03</pdfrwt>
<totfact> 0.49668947E+01</totfact>
</mgrwt>
</event>
<event>
12    1  0.1338445E-007  0.4716345E+03  0.7818608E-02  0.1021460E+00
          1   -1    0    0  501    0  0.00000000000E+00  0.00000000000E+00  0.10871384544E+04  0.10871384544E+04  0.00000000000E+00 0. -1.
         -1   -1    0    0    0  501 -0.00000000000E+00 -0.00000000000E+00 -0.10458980509E+04  0.10458980509E+04  0.00000000000E+00 0.  1.
         23    2    1    2    0    0  0.45122143006E+02  0.44684756818E+03 -0.85184070971E+03  0.96714325493E+03  0.89580823047E+02 0.  0.
    5000000    2    1    2    0    0 -0.45122143006E+02 -0.44684756818E+03  0.89308111318E+03  0.11658932504E+04  0.60000369958E+03 0.  0.
         23    2    4    4    0    0  0.54704044034E+02 -0.13651067868E+03 -0.36659719777E+02  0.17648574523E+03  0.90418943737E+02 0.  0.
         23    2    4    4    0    0 -0.99826187040E+02 -0.31033688950E+03  0.92974083296E+03  0.98940750513E+03  0.90746581847E+02 0.  0.
          1    1    3    3  502    0 -0.16022798752E+02  0.25797857351E+03 -0.51276416053E+03  0.57422709688E+03  0.00000000000E+00 0. -1.
         -1    1    3    3    0  502  0.61144941758E+02  0.18886899467E+03 -0.33907654918E+03  0.39291615804E+03  0.00000000000E+00 0.  1.
         11    1    5    5    0    0  0.10084646196E+02 -0.68360327115E+01 -0.37413539984E+02  0.39347228698E+02  0.00000000000E+00 0. -1.
        -11    1    5    5    0    0  0.44619397839E+02 -0.12967464597E+03  0.75382020642E+00  0.13713851653E+03  0.00000000000E+00 0.  1.
          1    1    6    6  503    0 -0.74867148331E+02 -0.98863556670E+02  0.38718707784E+03  0.40656232731E+03  0.00000000000E+00 0. -1.
         -1    1    6    6    0  503 -0.24959038709E+02 -0.21147333283E+03  0.54255375512E+03  0.58284517782E+03  0.00000000000E+00 0.  1.
<mgrwt>
<rscale>  0 0.47163449E+03</rscale>
<asrwt>0</asrwt>
<pdfrwt beam="1">  1        1 0.16725207E+00 0.47163449E+03</pdfrwt>
<pdfrwt beam="2">  1       -1 0.16090739E+00 0.47163449E+03</pdfrwt>
<totfact> 0.41057765E+00</totfact>
</mgrwt>
</event>
<event>
12    1  0.1338445E-007  0.1372106E+04  0.7818608E-02  0.8974261E-01
         -2   -1    0    0    0  501 -0.00000000000E+00  0.00000000000E+00  0.54432155266E+03  0.54432155266E+03  0.00000000000E+00 0.  1.
          2   -1    0    0  501    0  0.00000000000E+00 -0.00000000000E+00 -0.36070879549E+04  0.36070879549E+04  0.00000000000E+00 0. -1.
         23    2    1    2    0    0  0.97735326297E+03 -0.89587449166E+03 -0.12274866849E+04  0.18091631768E+04  0.92397690793E+02 0.  0.
    5000000    2    1    2    0    0 -0.97735326297E+03  0.89587449166E+03 -0.18352797173E+04  0.23422463307E+04  0.60004643785E+03 0.  0.
         23    2    4    4    0    0 -0.54849247899E+03  0.17711897863E+03 -0.52457918073E+03  0.78448223346E+03  0.89520532061E+02 0.  0.
         23    2    4    4    0    0 -0.42886078398E+03  0.71875551303E+03 -0.13107005366E+04  0.15577640973E+04  0.90343934974E+02 0.  0.
          4    1    3    3  502    0  0.49511662802E+03 -0.46174568782E+03 -0.68908591843E+03  0.96601705913E+03  0.00000000000E+00 0. -1.
         -4    1    3    3    0  502  0.48223663495E+03 -0.43412880385E+03 -0.53840076650E+03  0.84314611769E+03  0.00000000000E+00 0.  1.
         11    1    5    5    0    0 -0.18436347258E+03  0.87719335289E+02 -0.14122391902E+03  0.24825141914E+03  0.00000000000E+00 0.  1.
        -11    1    5    5    0    0 -0.36412900641E+03  0.89399643344E+02 -0.38335526171E+03  0.53623081432E+03  0.00000000000E+00 0. -1.
          4    1    6    6  503    0 -0.16761163089E+03  0.34053120087E+03 -0.65421789485E+03  0.75634397698E+03  0.00000000000E+00 0.  1.
         -4    1    6    6    0  503 -0.26124915309E+03  0.37822431216E+03 -0.65648264173E+03  0.80142012029E+03  0.00000000000E+00 0. -1.
<mgrwt>
<rscale>  0 0.13721058E+04</rscale>
<asrwt>0</asrwt>
<pdfrwt beam="1">  1        2 0.55493663E+00 0.13721058E+04</pdfrwt>
<pdfrwt beam="2">  1       -2 0.83741774E-01 0.13721058E+04</pdfrwt>
<totfact> 0.83536244E-01</totfact>
</mgrwt>
</event>
<event>
12    1  0.1338445E-007  0.5418454E+03  0.7818608E-02  0.1003399E+00
         -1   -1    0    0    0  501 -0.00000000000E+00  0.00000000000E+00  0.89416199291E+03  0.89416199291E+03  0.00000000000E+00 0.  1.
          1   -1    0    0  501    0  0.00000000000E+00 -0.00000000000E+00 -0.40734365163E+03  0.40734365163E+03  0.00000000000E+00 0. -1.
         23    2    1    2    0    0  0.30797914066E+03  0.30479583266E+03  0.31492930391E+03  0.54299296019E+03  0.88933894876E+02 0.  0.
    5000000    2    1    2    0    0 -0.30797914066E+03 -0.30479583266E+03  0.17188903736E+03  0.75851268435E+03  0.59836778027E+03 0.  0.
         23    2    4    4    0    0  0.21462533252E+02 -0.30544459369E+03  0.25287988634E+03  0.40838877683E+03  0.95268651617E+02 0.  0.
         23    2    4    4    0    0 -0.32944167391E+03  0.64876102353E+00 -0.80990848981E+02  0.35012390752E+03  0.86573642637E+02 0.  0.
          4    1    3    3  502    0  0.17091023470E+03  0.17362616686E+03  0.23030418607E+03  0.33525568193E+03  0.00000000000E+00 0. -1.
         -4    1    3    3    0  502  0.13706890596E+03  0.13116966580E+03  0.84625117843E+02  0.20773727826E+03  0.00000000000E+00 0.  1.
         11    1    5    5    0    0 -0.96978236721E+01 -0.18657988435E+03  0.20266555037E+03  0.27564365825E+03  0.00000000000E+00 0. -1.
        -11    1    5    5    0    0  0.31160356924E+02 -0.11886470934E+03  0.50214335968E+02  0.13274511858E+03  0.00000000000E+00 0.  1.
          2    1    6    6  503    0 -0.17819063526E+03  0.43499420966E+02 -0.43926396774E+02  0.18860973053E+03  0.00000000000E+00 0. -1.
         -2    1    6    6    0  503 -0.15125103866E+03 -0.42850659942E+02 -0.37064452208E+02  0.16151417699E+03  0.00000000000E+00 0.  1.
<mgrwt>
<rscale>  0 0.54184543E+03</rscale>
<asrwt>0</asrwt>
<pdfrwt beam="1">  1        1 0.62668254E-01 0.54184543E+03</pdfrwt>
<pdfrwt beam="2">  1       -1 0.13756338E+00 0.54184543E+03</pdfrwt>
<totfact> 0.26949252E+01</totfact>
</mgrwt>
</event>
<event>
12    1  0.1338445E-007  0.4135098E+03  0.7818608E-02  0.1039200E+00
         -3   -1    0    0    0  501 -0.00000000000E+00  0.00000000000E+00  0.90708974248E+03  0.90708974248E+03  0.00000000000E+00 0.  1.
          3   -1    0    0  501    0  0.00000000000E+00 -0.00000000000E+00 -0.30342773590E+03  0.30342773590E+03  0.00000000000E+00 0. -1.
         23    2    1    2    0    0 -0.33799069381E+03  0.52546102533E+02  0.25929821527E+03  0.43859897277E+03  0.90192530037E+02 0.  0.
    5000000    2    1    2    0    0  0.33799069381E+03 -0.52546102533E+02  0.34436379131E+03  0.77191850561E+03  0.60022742068E+03 0.  0.
         23    2    4    4    0    0  0.15837791793E+03 -0.17635605157E+03  0.44697606507E+03  0.51408017389E+03  0.91136165313E+02 0.  0.
         23    2    4    4    0    0  0.17961277588E+03  0.12380994904E+03 -0.10261227376E+03  0.25783833172E+03  0.91442188477E+02 0.  0.
          4    1    3    3  502    0 -0.20636706435E+03  0.39448785459E+02  0.21104753943E+03  0.29779965719E+03  0.00000000000E+00 0. -1.
         -4    1    3    3    0  502 -0.13162362946E+03  0.13097317074E+02  0.48250675832E+02  0.14079931557E+03  0.00000000000E+00 0.  1.
         13    1    5    5    0    0  0.67977631071E+02 -0.13909829713E+03  0.29924356891E+03  0.33692136787E+03  0.00000000000E+00 0. -1.
        -13    1    5    5    0    0  0.90400286860E+02 -0.37257754440E+02  0.14773249616E+03  0.17715880603E+03  0.00000000000E+00 0.  1.
          3    1    6    6  503    0  0.12827231024E+03  0.41099433621E+02 -0.83953242872E+02  0.15871703124E+03  0.00000000000E+00 0. -1.
         -3    1    6    6    0  503  0.51340465643E+02  0.82710515419E+02 -0.18659030891E+02  0.99121300471E+02  0.00000000000E+00 0.  1.
<mgrwt>
<rscale>  0 0.41350981E+03</rscale>
<asrwt>0</asrwt>
<pdfrwt beam="1">  1        3 0.46681191E-01 0.41350981E+03</pdfrwt>
<pdfrwt beam="2">  1       -3 0.13955227E+00 0.41350981E+03</pdfrwt>
<totfact> 0.46409190E+00</totfact>
</mgrwt>
</event>
<event>
12    1  0.1338445E-007  0.8097015E+03  0.7818608E-02  0.9546080E-01
         -2   -1    0    0    0  501 -0.00000000000E+00  0.00000000000E+00  0.41277714075E+03  0.41277714075E+03  0.00000000000E+00 0.  1.
          2   -1    0    0  501    0  0.00000000000E+00 -0.00000000000E+00 -0.27203265649E+04  0.27203265649E+04  0.00000000000E+00 0. -1.
         23    2    1    2    0    0  0.28614226163E+03  0.74908155221E+03 -0.18766774257E+04  0.20428318206E+04  0.90791635595E+02 0.  0.
    5000000    2    1    2    0    0 -0.28614226163E+03 -0.74908155221E+03 -0.43087199841E+03  0.10902718851E+04  0.60003461452E+03 0.  0.
         23    2    4    4    0    0 -0.99896868062E+02 -0.33571882695E+03 -0.50570719709E+03  0.62164787846E+03  0.89553339356E+02 0.  0.
         23    2    4    4    0    0 -0.18624539357E+03 -0.41336272527E+03  0.74835198682E+02  0.46862400662E+03  0.91935104019E+02 0.  0.
          1    1    3    3  502    0  0.28090385682E+03  0.65536849743E+03 -0.16687681198E+04  0.18147181274E+04  0.00000000000E+00 0. -1.
         -1    1    3    3    0  502  0.52384048123E+01  0.93713054783E+02 -0.20790930587E+03  0.22811369312E+03  0.00000000000E+00 0.  1.
         13    1    5    5    0    0 -0.11260932017E+03 -0.30948783537E+03 -0.48347259508E+03  0.58498660619E+03  0.00000000000E+00 0. -1.
        -13    1    5    5    0    0  0.12712452110E+02 -0.26230991575E+02 -0.22234602011E+02  0.36661272267E+02  0.00000000000E+00 0.  1.
          1    1    6    6  503    0 -0.18475344911E+03 -0.40032163212E+03  0.54268475843E+02  0.44422552107E+03  0.00000000000E+00 0. -1.
         -1    1    6    6    0  503 -0.14919444614E+01 -0.13041093152E+02  0.20566722839E+02  0.24398485551E+02  0.00000000000E+00 0.  1.
<mgrwt>
<rscale>  0 0.80970155E+03</rscale>
<asrwt>0</asrwt>
<pdfrwt beam="1">  1        2 0.41851176E+00 0.80970155E+03</pdfrwt>
<pdfrwt beam="2">  1       -2 0.63504179E-01 0.80970155E+03</pdfrwt>
<totfact> 0.61954971E+00</totfact>
</mgrwt>
</event>
<event>
12    1  0.1338445E-007  0.8633254E+03  0.7818608E-02  0.9472625E-01
          1   -1    0    0  501    0  0.00000000000E+00  0.00000000000E+00  0.27405580830E+04  0.27405580830E+04  0.00000000000E+00 0. -1.
         -1   -1    0    0    0  501 -0.00000000000E+00 -0.00000000000E+00 -0.35731889883E+03  0.35731889883E+03  0.00000000000E+00 0.  1.
         23    2    1    2    0    0 -0.55218436279E+03  0.60205294637E+03  0.50852991794E+03  0.96671451713E+03  0.92514644529E+02 0.  0.
    5000000    2    1    2    0    0  0.55218436279E+03 -0.60205294637E+03  0.18747092662E+04  0.21311624647E+04  0.59995274585E+03 0.  0.
         23    2    4    4    0    0  0.26005422894E+03 -0.28553514213E+02  0.22086746384E+03  0.35437790024E+03  0.91420754932E+02 0.  0.
         23    2    4    4    0    0  0.29213013385E+03 -0.57349943215E+03  0.16538418024E+04  0.17767845644E+04  0.86770198369E+02 0.  0.
          1    1    3    3  502    0 -0.37012272473E+03  0.41117533271E+03  0.29267338914E+03  0.62587035263E+03  0.00000000000E+00 0. -1.
         -1    1    3    3    0  502 -0.18206163806E+03  0.19087761366E+03  0.21585652880E+03  0.34084416450E+03  0.00000000000E+00 0.  1.
         11    1    5    5    0    0  0.17291530394E+03  0.95762738717E+00  0.19100998979E+03  0.25765371255E+03  0.00000000000E+00 0. -1.
        -11    1    5    5    0    0  0.87138925000E+02 -0.29511141601E+02  0.29857474041E+02  0.96724187693E+02  0.00000000000E+00 0.  1.
          3    1    6    6  503    0  0.10555753326E+03 -0.16872624609E+03  0.61391869015E+03  0.64537361045E+03  0.00000000000E+00 0. -1.
         -3    1    6    6    0  503  0.18657260059E+03 -0.40477318606E+03  0.10399231122E+04  0.11314109540E+04  0.00000000000E+00 0.  1.
<mgrwt>
<rscale>  0 0.86332536E+03</rscale>
<asrwt>0</asrwt>
<pdfrwt beam="1">  1        1 0.42162431E+00 0.86332536E+03</pdfrwt>
<pdfrwt beam="2">  1       -1 0.54972140E-01 0.86332536E+03</pdfrwt>
<totfact> 0.32090386E+00</totfact>
</mgrwt>
</event>
<event>
12    1  0.1338445E-007  0.3700990E+03  0.7818608E-02  0.1054655E+00
         -2   -1    0    0    0  501 -0.00000000000E+00  0.00000000000E+00  0.77774980331E+03  0.77774980331E+03  0.00000000000E+00 0.  1.
          2   -1    0    0  501    0  0.00000000000E+00 -0.00000000000E+00 -0.58399256439E+03  0.58399256439E+03  0.00000000000E+00 0. -1.
         23    2    1    2    0    0  0.24850280143E+03  0.15564966624E+03 -0.37474053798E+03  0.48466585702E+03  0.92141528297E+02 0.  0.
    5000000    2    1    2    0    0 -0.24850280143E+03 -0.15564966624E+03  0.56849777691E+03  0.87707651067E+03  0.60007751358E+03 0.  0.
         23    2    4    4    0    0  0.42562541683E+02  0.49491432064E+01 -0.88187062776E+02  0.13529481239E+03  0.93229095489E+02 0.  0.
         23    2    4    4    0    0 -0.29106534311E+03 -0.16059880945E+03  0.65668483968E+03  0.74178169828E+03  0.92163429177E+02 0.  0.
          3    1    3    3  502    0  0.19409473949E+03  0.13381235843E+03 -0.23383397013E+03  0.33204945528E+03  0.00000000000E+00 0. -1.
         -3    1    3    3    0  502  0.54408061939E+02  0.21837307817E+02 -0.14090656786E+03  0.15261640175E+03  0.00000000000E+00 0.  1.
         11    1    5    5    0    0 -0.27062928242E+02  0.16726317008E+02 -0.23786196413E+02  0.39723480531E+02  0.00000000000E+00 0. -1.
        -11    1    5    5    0    0  0.69625469925E+02 -0.11777173802E+02 -0.64400866362E+02  0.95571331859E+02  0.00000000000E+00 0.  1.
          3    1    6    6  503    0 -0.78399828464E+02 -0.25756749972E+01  0.18146824844E+03  0.19769646531E+03  0.00000000000E+00 0. -1.
         -3    1    6    6    0  503 -0.21266551465E+03 -0.15802313445E+03  0.47521659124E+03  0.54408523297E+03  0.00000000000E+00 0.  1.
<mgrwt>
<rscale>  0 0.37009899E+03</rscale>
<asrwt>0</asrwt>
<pdfrwt beam="1">  1        2 0.89845010E-01 0.37009899E+03</pdfrwt>
<pdfrwt beam="2">  1       -2 0.11965382E+00 0.37009899E+03</pdfrwt>
<totfact> 0.28985649E+01</totfact>
</mgrwt>
</event>
<event>
12    1  0.1338445E-007  0.3986661E+03  0.7818608E-02  0.1044243E+00
         -2   -1    0    0    0  501 -0.00000000000E+00  0.00000000000E+00  0.35216906906E+03  0.35216906906E+03  0.00000000000E+00 0.  1.
          2   -1    0    0  501    0  0.00000000000E+00 -0.00000000000E+00 -0.13146753142E+04  0.13146753142E+04  0.00000000000E+00 0. -1.
         23    2    1    2    0    0  0.14714476598E+03 -0.23303759335E+03 -0.96389151419E+03  0.10065658120E+04  0.90165295963E+02 0.  0.
    5000000    2    1    2    0    0 -0.14714476598E+03  0.23303759335E+03  0.13852690749E+01  0.66027857128E+03  0.60000647550E+03 0.  0.
         23    2    4    4    0    0  0.13656239960E+02 -0.11253336121E+03  0.18013332146E+03  0.23008252225E+03  0.87405396101E+02 0.  0.
         23    2    4    4    0    0 -0.16080100594E+03  0.34557095456E+03 -0.17874805239E+03  0.43019604903E+03  0.88552392524E+02 0.  0.
          2    1    3    3  502    0  0.68874738682E+02 -0.99689212968E+02 -0.27459957320E+03  0.30014428932E+03  0.00000000000E+00 0.  1.
         -2    1    3    3    0  502  0.78270027300E+02 -0.13334838038E+03 -0.68929194099E+03  0.70642152263E+03  0.00000000000E+00 0. -1.
         13    1    5    5    0    0 -0.30908672888E+02 -0.24421332461E+02  0.81485350532E+02  0.90507512894E+02  0.00000000000E+00 0.  1.
        -13    1    5    5    0    0  0.44564912849E+02 -0.88112028747E+02  0.98647970930E+02  0.13957500935E+03  0.00000000000E+00 0. -1.
          4    1    6    6  503    0 -0.51818797813E+02  0.16023309533E+03 -0.12162557870E+03  0.20773207273E+03  0.00000000000E+00 0. -1.
         -4    1    6    6    0  503 -0.10898220813E+03  0.18533785922E+03 -0.57122473690E+02  0.22246397630E+03  0.00000000000E+00 0.  1.
<mgrwt>
<rscale>  0 0.39866606E+03</rscale>
<asrwt>0</asrwt>
<pdfrwt beam="1">  1        2 0.20225774E+00 0.39866606E+03</pdfrwt>
<pdfrwt beam="2">  1       -2 0.54179856E-01 0.39866606E+03</pdfrwt>
<totfact> 0.55480320E+01</totfact>
</mgrwt>
</event>
<event>
12    1  0.1338445E-007  0.3651211E+03  0.7818608E-02  0.1056574E+00
          2   -1    0    0  501    0  0.00000000000E+00  0.00000000000E+00  0.93950291244E+03  0.93950291244E+03  0.00000000000E+00 0. -1.
         -2   -1    0    0    0  501 -0.00000000000E+00 -0.00000000000E+00 -0.53285116573E+03  0.53285116573E+03  0.00000000000E+00 0.  1.
         23    2    1    2    0    0  0.11333407654E+03 -0.26457055907E+03  0.68739928287E+03  0.75000918198E+03  0.84580170990E+02 0.  0.
    5000000    2    1    2    0    0 -0.11333407654E+03  0.26457055907E+03 -0.28074753616E+03  0.72234489619E+03  0.60010063853E+03 0.  0.
         23    2    4    4    0    0  0.70078106063E+01 -0.51294541221E+02  0.14147304100E+03  0.17434891792E+03  0.87764938787E+02 0.  0.
         23    2    4    4    0    0 -0.12034188714E+03  0.31586510029E+03 -0.42222057716E+03  0.54799597827E+03  0.88184154130E+02 0.  0.
          2    1    3    3  502    0  0.80070013503E+02 -0.17422961212E+03  0.54816260536E+03  0.58073178552E+03  0.00000000000E+00 0.  1.
         -2    1    3    3    0  502  0.33264063034E+02 -0.90340946951E+02  0.13923667751E+03  0.16927739645E+03  0.00000000000E+00 0. -1.
         11    1    5    5    0    0  0.39483552090E+02  0.80456422322E+00  0.67658173915E+02  0.78340453833E+02  0.00000000000E+00 0. -1.
        -11    1    5    5    0    0 -0.32475741483E+02 -0.52099105444E+02  0.73814867086E+02  0.96008464085E+02  0.00000000000E+00 0.  1.
          1    1    6    6  503    0 -0.30516968217E+02  0.14634064474E+03 -0.24391924412E+03  0.28608297276E+03  0.00000000000E+00 0. -1.
         -1    1    6    6    0  503 -0.89824918926E+02  0.16952445555E+03 -0.17830133304E+03  0.26191300551E+03  0.00000000000E+00 0.  1.
<mgrwt>
<rscale>  0 0.36512112E+03</rscale>
<asrwt>0</asrwt>
<pdfrwt beam="1">  1        2 0.14453891E+00 0.36512112E+03</pdfrwt>
<pdfrwt beam="2">  1       -2 0.81977103E-01 0.36512112E+03</pdfrwt>
<totfact> 0.38474742E+01</totfact>
</mgrwt>
</event>
<event>
12    1  0.1338445E-007  0.6740928E+03  0.7818608E-02  0.9762592E-01
         -1   -1    0    0    0  501 -0.00000000000E+00  0.00000000000E+00  0.74845819771E+03  0.74845819771E+03  0.00000000000E+00 0.  1.
          1   -1    0    0  501    0  0.00000000000E+00 -0.00000000000E+00 -0.78868404683E+03  0.78868404683E+03  0.00000000000E+00 0. -1.
         23    2    1    2    0    0  0.42983397824E+03 -0.48108978088E+03  0.38351803427E+02  0.65278473631E+03  0.91937070942E+02 0.  0.
    5000000    2    1    2    0    0 -0.42983397824E+03  0.48108978088E+03 -0.78577652543E+02  0.88435750824E+03  0.59975755834E+03 0.  0.
         23    2    4    4    0    0 -0.29235535841E+03  0.15820541451E+03  0.22537574563E+03  0.41155789050E+03  0.89916971405E+02 0.  0.
         23    2    4    4    0    0 -0.13747861983E+03  0.32288436637E+03 -0.30395339817E+03  0.47279961774E+03  0.89426647698E+02 0.  0.
          2    1    3    3  502    0  0.34816370089E+03 -0.43292404263E+03  0.47205666510E+02  0.55755678119E+03  0.00000000000E+00 0.  1.
         -2    1    3    3    0  502  0.81670277350E+02 -0.48165738248E+02 -0.88538630832E+01  0.95227955113E+02  0.00000000000E+00 0. -1.
         11    1    5    5    0    0 -0.17142795559E+03  0.13740587092E+03  0.12321193964E+03  0.25189104667E+03  0.00000000000E+00 0. -1.
        -11    1    5    5    0    0 -0.12092740281E+03  0.20799543585E+02  0.10216380599E+03  0.15966684383E+03  0.00000000000E+00 0.  1.
          3    1    6    6  503    0 -0.65204565323E+02  0.87118217760E+02 -0.53262413305E+02  0.12115322478E+03  0.00000000000E+00 0. -1.
         -3    1    6    6    0  503 -0.72274054510E+02  0.23576614861E+03 -0.25069098487E+03  0.35164639296E+03  0.00000000000E+00 0.  1.
<mgrwt>
<rscale>  0 0.67409283E+03</rscale>
<asrwt>0</asrwt>
<pdfrwt beam="1">  1        1 0.12133601E+00 0.67409283E+03</pdfrwt>
<pdfrwt beam="2">  1       -1 0.11514742E+00 0.67409283E+03</pdfrwt>
<totfact> 0.16076822E+01</totfact>
</mgrwt>
</event>
<event>
12    1  0.1338445E-007  0.1635166E+04  0.7818608E-02  0.8799230E-01
          2   -1    0    0  501    0  0.00000000000E+00  0.00000000000E+00  0.18364931494E+04  0.18364931494E+04  0.00000000000E+00 0. -1.
         -2   -1    0    0    0  501 -0.00000000000E+00 -0.00000000000E+00 -0.15554893711E+04  0.15554893711E+04  0.00000000000E+00 0.  1.
         23    2    1    2    0    0  0.79339775960E+03  0.14256776294E+04  0.25052305866E+03  0.16532792897E+04  0.92379104972E+02 0.  0.
    5000000    2    1    2    0    0 -0.79339775960E+03 -0.14256776294E+04  0.30480719693E+02  0.17387032308E+04  0.60010261012E+03 0.  0.
         23    2    4    4    0    0 -0.85404883648E+02 -0.10714747983E+03  0.16497171230E+03  0.23332422081E+03  0.91923607274E+02 0.  0.
         23    2    4    4    0    0 -0.70799287595E+03 -0.13185301495E+04 -0.13449099260E+03  0.15053790100E+04  0.91117884959E+02 0.  0.
          4    1    3    3  502    0  0.54287273506E+03  0.91447106738E+03  0.19600343648E+03  0.10813812864E+04  0.00000000000E+00 0. -1.
         -4    1    3    3    0  502  0.25052502454E+03  0.51120656199E+03  0.54519622182E+02  0.57189800326E+03  0.00000000000E+00 0.  1.
         11    1    5    5    0    0 -0.68751432890E+01 -0.30231542714E+02  0.10207416805E+03  0.10667872119E+03  0.00000000000E+00 0. -1.
        -11    1    5    5    0    0 -0.78529740359E+02 -0.76915937121E+02  0.62897544243E+02  0.12664549963E+03  0.00000000000E+00 0.  1.
          4    1    6    6  503    0 -0.22841959172E+03 -0.41272826207E+03 -0.39324671503E+00  0.47172055588E+03  0.00000000000E+00 0.  1.
         -4    1    6    6    0  503 -0.47957328422E+03 -0.90580188746E+03 -0.13409774589E+03  0.10336584541E+04  0.00000000000E+00 0. -1.
<mgrwt>
<rscale>  0 0.16351664E+04</rscale>
<asrwt>0</asrwt>
<pdfrwt beam="1">  1        2 0.28253741E+00 0.16351664E+04</pdfrwt>
<pdfrwt beam="2">  1       -2 0.23930606E+00 0.16351664E+04</pdfrwt>
<totfact> 0.57046432E-01</totfact>
</mgrwt>
</event>
<event>
12    1  0.1338445E-007  0.5869215E+03  0.7818608E-02  0.9932917E-01
          1   -1    0    0  501    0  0.00000000000E+00  0.00000000000E+00  0.17652868662E+04  0.17652868662E+04  0.00000000000E+00 0. -1.
         -1   -1    0    0    0  501 -0.00000000000E+00 -0.00000000000E+00 -0.23569202205E+03  0.23569202205E+03  0.00000000000E+00 0.  1.
         23    2    1    2    0    0 -0.29874263522E+03  0.38866399370E+03  0.44613095739E+03  0.66907078725E+03  0.91192242620E+02 0.  0.
    5000000    2    1    2    0    0  0.29874263522E+03 -0.38866399370E+03  0.10834638868E+04  0.13319081010E+04  0.59981524948E+03 0.  0.
         23    2    4    4    0    0  0.37823536317E+03 -0.12829836163E+03  0.90621647572E+03  0.99507986440E+03  0.97124539236E+02 0.  0.
         23    2    4    4    0    0 -0.79492727948E+02 -0.26036563207E+03  0.17724741109E+03  0.33682823664E+03  0.89035162165E+02 0.  0.
          3    1    3    3  502    0 -0.21550849230E+03  0.22064435122E+03  0.31051752879E+03  0.43766308464E+03  0.00000000000E+00 0. -1.
         -3    1    3    3    0  502 -0.83234142917E+02  0.16801964248E+03  0.13561342860E+03  0.23140770260E+03  0.00000000000E+00 0.  1.
         11    1    5    5    0    0  0.17269774985E+03 -0.70462742405E+02  0.31004050357E+03  0.36182126074E+03  0.00000000000E+00 0.  1.
        -11    1    5    5    0    0  0.20553761332E+03 -0.57835619221E+02  0.59617597215E+03  0.63325860366E+03  0.00000000000E+00 0. -1.
          4    1    6    6  503    0 -0.49849415194E+02 -0.74399025146E+02  0.20639445769E+02  0.91903024213E+02  0.00000000000E+00 0. -1.
         -4    1    6    6    0  503 -0.29643312755E+02 -0.18596660692E+03  0.15660796532E+03  0.24492521243E+03  0.00000000000E+00 0.  1.
<mgrwt>
<rscale>  0 0.58692154E+03</rscale>
<asrwt>0</asrwt>
<pdfrwt beam="1">  1        1 0.27158259E+00 0.58692154E+03</pdfrwt>
<pdfrwt beam="2">  1       -1 0.36260312E-01 0.58692154E+03</pdfrwt>
<totfact> 0.33144149E+01</totfact>
</mgrwt>
</event>
<event>
12    1  0.1338445E-007  0.8307543E+03  0.7818608E-02  0.9516538E-01
         -1   -1    0    0    0  501 -0.00000000000E+00  0.00000000000E+00  0.10407653836E+04  0.10407653836E+04  0.00000000000E+00 0.  1.
          1   -1    0    0  501    0  0.00000000000E+00 -0.00000000000E+00 -0.13558665067E+04  0.13558665067E+04  0.00000000000E+00 0. -1.
         23    2    1    2    0    0  0.78041034030E+03  0.22742393530E+03 -0.91040748448E+03  0.12239111829E+04  0.91404869904E+02 0.  0.
    5000000    2    1    2    0    0 -0.78041034030E+03 -0.22742393530E+03  0.59530636145E+03  0.11727207074E+04  0.60010186471E+03 0.  0.
         23    2    4    4    0    0 -0.28693514630E+03 -0.17771053558E+03 -0.51271373998E+02  0.35280126728E+03  0.89034643609E+02 0.  0.
         23    2    4    4    0    0 -0.49347519400E+03 -0.49713399722E+02  0.64657773544E+03  0.81991944014E+03  0.90641773708E+02 0.  0.
          3    1    3    3  502    0  0.30329490978E+03  0.46924255926E+02 -0.31331517592E+03  0.43858418525E+03  0.00000000000E+00 0. -1.
         -3    1    3    3    0  502  0.47711543052E+03  0.18049967938E+03 -0.59709230856E+03  0.78532699765E+03  0.00000000000E+00 0.  1.
         13    1    5    5    0    0 -0.24873919872E+03 -0.12735818900E+03 -0.67635494780E+02  0.28751670811E+03  0.00000000000E+00 0.  1.
        -13    1    5    5    0    0 -0.38195947582E+02 -0.50352346576E+02  0.16364120781E+02  0.65284559172E+02  0.00000000000E+00 0. -1.
          3    1    6    6  503    0 -0.17096421658E+03 -0.54033679823E+02  0.19398024904E+03  0.26415287037E+03  0.00000000000E+00 0. -1.
         -3    1    6    6    0  503 -0.32251097742E+03  0.43202801005E+01  0.45259748640E+03  0.55576656977E+03  0.00000000000E+00 0.  1.
<mgrwt>
<rscale>  0 0.83075428E+03</rscale>
<asrwt>0</asrwt>
<pdfrwt beam="1">  1        1 0.20859485E+00 0.83075428E+03</pdfrwt>
<pdfrwt beam="2">  1       -1 0.16011775E+00 0.83075428E+03</pdfrwt>
<totfact> 0.24790365E+00</totfact>
</mgrwt>
</event>
<event>
12    1  0.1338445E-007  0.1350703E+04  0.7818608E-02  0.8990296E-01
         -2   -1    0    0    0  501 -0.00000000000E+00  0.00000000000E+00  0.90050668835E+03  0.90050668835E+03  0.00000000000E+00 0. -1.
          2   -1    0    0  501    0  0.00000000000E+00 -0.00000000000E+00 -0.21984676051E+04  0.21984676051E+04  0.00000000000E+00 0.  1.
         23    2    1    2    0    0  0.87519578271E+03  0.95190574233E+03 -0.10133262568E+04  0.16453429200E+04  0.90724976585E+02 0.  0.
    5000000    2    1    2    0    0 -0.87519578271E+03 -0.95190574233E+03 -0.28463465993E+03  0.14536313734E+04  0.59994589738E+03 0.  0.
         23    2    4    4    0    0 -0.13116019292E+03 -0.54090072504E+03 -0.17803824683E+03  0.59183725321E+03  0.93792997572E+02 0.  0.
         23    2    4    4    0    0 -0.74403558979E+03 -0.41100501730E+03 -0.10659641310E+03  0.86179412021E+03  0.93873463921E+02 0.  0.
          3    1    3    3  502    0  0.61030728377E+03  0.66943110811E+03 -0.76143021525E+03  0.11833803116E+04  0.00000000000E+00 0. -1.
         -3    1    3    3    0  502  0.26488849894E+03  0.28247463422E+03 -0.25189604153E+03  0.46196260843E+03  0.00000000000E+00 0.  1.
         13    1    5    5    0    0 -0.64136145438E+02 -0.20344114721E+03 -0.23265663169E+02  0.21457641206E+03  0.00000000000E+00 0.  1.
        -13    1    5    5    0    0 -0.67024047484E+02 -0.33745957783E+03 -0.15477258366E+03  0.37726084115E+03  0.00000000000E+00 0. -1.
          1    1    6    6  503    0 -0.19101498787E+03 -0.86116003674E+02 -0.63565593212E+02  0.21895953124E+03  0.00000000000E+00 0. -1.
         -1    1    6    6    0  503 -0.55302060191E+03 -0.32488901362E+03 -0.43030819893E+02  0.64283458897E+03  0.00000000000E+00 0.  1.
<mgrwt>
<rscale>  0 0.13507029E+04</rscale>
<asrwt>0</asrwt>
<pdfrwt beam="1">  1        2 0.33822578E+00 0.13507029E+04</pdfrwt>
<pdfrwt beam="2">  1       -2 0.13853949E+00 0.13507029E+04</pdfrwt>
<totfact> 0.18329925E+00</totfact>
</mgrwt>
</event>
<event>
12    1  0.1338445E-007  0.5271901E+03  0.7818608E-02  0.1006916E+00
          2   -1    0    0  501    0  0.00000000000E+00  0.00000000000E+00  0.26015769760E+04  0.26015769760E+04  0.00000000000E+00 0. -1.
         -2   -1    0    0    0  501 -0.00000000000E+00 -0.00000000000E+00 -0.15229169351E+03  0.15229169351E+03  0.00000000000E+00 0.  1.
         23    2    1    2    0    0  0.36433955925E+03 -0.29113530938E+03  0.69283433544E+03  0.84007428927E+03  0.90566618169E+02 0.  0.
    5000000    2    1    2    0    0 -0.36433955925E+03  0.29113530938E+03  0.17564509470E+04  0.19137943802E+04  0.59998826455E+03 0.  0.
         23    2    4    4    0    0 -0.12906174449E+03  0.30730194877E+03  0.15478010088E+04  0.15858060681E+04  0.89451111168E+02 0.  0.
         23    2    4    4    0    0 -0.23527781475E+03 -0.16166639385E+02  0.20864993826E+03  0.32798831210E+03  0.91785215567E+02 0.  0.
          4    1    3    3  502    0  0.21508514855E+02 -0.11242729804E+02  0.97663180846E+01  0.26160966222E+02  0.00000000000E+00 0.  1.
         -4    1    3    3    0  502  0.34283104439E+03 -0.27989257958E+03  0.68306801735E+03  0.81391332305E+03  0.00000000000E+00 0. -1.
         13    1    5    5    0    0 -0.66872821165E+02  0.12260949558E+03  0.46174566085E+03  0.48240451690E+03  0.00000000000E+00 0.  1.
        -13    1    5    5    0    0 -0.62188923329E+02  0.18469245319E+03  0.10860553479E+04  0.11034015512E+04  0.00000000000E+00 0. -1.
          4    1    6    6  503    0 -0.73464166609E+02 -0.48434340871E+02  0.68884585817E+02  0.11174952042E+03  0.00000000000E+00 0. -1.
         -4    1    6    6    0  503 -0.16181364814E+03  0.32267701486E+02  0.13976535244E+03  0.21623879168E+03  0.00000000000E+00 0.  1.
<mgrwt>
<rscale>  0 0.52719006E+03</rscale>
<asrwt>0</asrwt>
<pdfrwt beam="1">  1        2 0.40024258E+00 0.52719006E+03</pdfrwt>
<pdfrwt beam="2">  1       -2 0.23429493E-01 0.52719006E+03</pdfrwt>
<totfact> 0.52921312E+01</totfact>
</mgrwt>
</event>
<event>
12    1  0.1338445E-007  0.5801579E+03  0.7818608E-02  0.9947449E-01
         -1   -1    0    0    0  501 -0.00000000000E+00  0.00000000000E+00  0.37270042587E+03  0.37270042587E+03  0.00000000000E+00 0.  1.
          1   -1    0    0  501    0  0.00000000000E+00 -0.00000000000E+00 -0.15403353563E+04  0.15403353563E+04  0.00000000000E+00 0. -1.
         23    2    1    2    0    0  0.42191314301E+03  0.88572197889E+02  0.94385502662E+02  0.45069416285E+03  0.91437797613E+02 0.  0.
    5000000    2    1    2    0    0 -0.42191314301E+03 -0.88572197889E+02 -0.12620204331E+04  0.14623416194E+04  0.59990974621E+03 0.  0.
         23    2    4    4    0    0 -0.25436932148E+03 -0.33236122976E+03 -0.76269148480E+03  0.87446192466E+03  0.88417294297E+02 0.  0.
         23    2    4    4    0    0 -0.16754382153E+03  0.24378903187E+03 -0.49932894832E+03  0.58787969470E+03  0.93643540164E+02 0.  0.
          3    1    3    3  502    0  0.39720846575E+03  0.94375340984E+02  0.67651037307E+02  0.41383321894E+03  0.00000000000E+00 0. -1.
         -3    1    3    3    0  502  0.24704677261E+02 -0.58031430945E+01  0.26734465355E+02  0.36860943913E+02  0.00000000000E+00 0.  1.
         11    1    5    5    0    0 -0.67154821949E+02 -0.11444493263E+03 -0.16861895494E+03  0.21456878776E+03  0.00000000000E+00 0.  1.
        -11    1    5    5    0    0 -0.18721449953E+03 -0.21791629713E+03 -0.59407252987E+03  0.65989313690E+03  0.00000000000E+00 0. -1.
          1    1    6    6  503    0 -0.67292246221E+02  0.16811035649E+03 -0.33765796428E+03  0.38314780334E+03  0.00000000000E+00 0. -1.
         -1    1    6    6    0  503 -0.10025157531E+03  0.75678675378E+02 -0.16167098404E+03  0.20473189136E+03  0.00000000000E+00 0.  1.
<mgrwt>
<rscale>  0 0.58015785E+03</rscale>
<asrwt>0</asrwt>
<pdfrwt beam="1">  1        1 0.23697467E+00 0.58015785E+03</pdfrwt>
<pdfrwt beam="2">  1       -1 0.57338528E-01 0.58015785E+03</pdfrwt>
<totfact> 0.20071399E+01</totfact>
</mgrwt>
</event>
<event>
12    1  0.1338445E-007  0.1786994E+04  0.7818608E-02  0.8713247E-01
          2   -1    0    0  501    0  0.00000000000E+00  0.00000000000E+00  0.29644856025E+04  0.29644856025E+04  0.00000000000E+00 0.  1.
         -2   -1    0    0    0  501 -0.00000000000E+00 -0.00000000000E+00 -0.11837031512E+04  0.11837031512E+04  0.00000000000E+00 0. -1.
         23    2    1    2    0    0  0.26958609519E+03  0.17258561463E+04  0.14497431542E+04  0.22718966228E+04  0.92211448391E+02 0.  0.
    5000000    2    1    2    0    0 -0.26958609519E+03 -0.17258561463E+04  0.33103929719E+03  0.18762921309E+04  0.59969079010E+03 0.  0.
         23    2    4    4    0    0 -0.41252430983E+03 -0.15016492609E+04  0.30920289178E+03  0.15905182737E+04  0.94948100122E+02 0.  0.
         23    2    4    4    0    0  0.14293821464E+03 -0.22420688540E+03  0.21836405410E+02  0.28577385720E+03  0.10241976466E+03 0.  0.
          2    1    3    3  502    0  0.71634662079E+02  0.69339780692E+03  0.54319672917E+03  0.88373906218E+03  0.00000000000E+00 0. -1.
         -2    1    3    3    0  502  0.19795143311E+03  0.10324583394E+04  0.90654642500E+03  0.13881575606E+04  0.00000000000E+00 0.  1.
         11    1    5    5    0    0 -0.26299644529E+02 -0.41014551455E+02  0.17571845319E+02  0.51794154895E+02  0.00000000000E+00 0. -1.
        -11    1    5    5    0    0 -0.38622466530E+03 -0.14606347094E+04  0.29163104646E+03  0.15387241188E+04  0.00000000000E+00 0.  1.
          3    1    6    6  503    0  0.60922305833E+02 -0.10472369552E+03 -0.40874046813E+02  0.12786425401E+03  0.00000000000E+00 0. -1.
         -3    1    6    6    0  503  0.82015908803E+02 -0.11948318988E+03  0.62710452224E+02  0.15790960319E+03  0.00000000000E+00 0.  1.
<mgrwt>
<rscale>  0 0.17869941E+04</rscale>
<asrwt>0</asrwt>
<pdfrwt beam="1">  1        2 0.45607471E+00 0.17869941E+04</pdfrwt>
<pdfrwt beam="2">  1       -2 0.18210818E+00 0.17869941E+04</pdfrwt>
<totfact> 0.29394975E-01</totfact>
</mgrwt>
</event>
<event>
12    1  0.1338445E-007  0.6208657E+03  0.7818608E-02  0.9863038E-01
         -2   -1    0    0    0  501 -0.00000000000E+00  0.00000000000E+00  0.68978347345E+03  0.68978347345E+03  0.00000000000E+00 0.  1.
          2   -1    0    0  501    0  0.00000000000E+00 -0.00000000000E+00 -0.60054460878E+03  0.60054460878E+03  0.00000000000E+00 0. -1.
         23    2    1    2    0    0 -0.77478818825E+02 -0.47481121445E+03 -0.98110060347E+02  0.49895243694E+03  0.88765385424E+02 0.  0.
    5000000    2    1    2    0    0  0.77478818825E+02  0.47481121445E+03  0.18734892502E+03  0.79137564529E+03  0.59977256983E+03 0.  0.
         23    2    4    4    0    0 -0.23724032908E+03  0.11871604081E+03  0.28576264423E+02  0.28211735970E+03  0.91635853620E+02 0.  0.
         23    2    4    4    0    0  0.31471914790E+03  0.35609517364E+03  0.15877266060E+03  0.50925828559E+03  0.91012795487E+02 0.  0.
          4    1    3    3  502    0 -0.36272023529E+01 -0.29210901117E+03 -0.60578517879E+02  0.29834642253E+03  0.00000000000E+00 0. -1.
         -4    1    3    3    0  502 -0.73851616472E+02 -0.18270220328E+03 -0.37531542468E+02  0.20060601441E+03  0.00000000000E+00 0.  1.
         11    1    5    5    0    0 -0.95209295461E+02  0.71226400427E+02  0.53347333786E+02  0.13032247727E+03  0.00000000000E+00 0. -1.
        -11    1    5    5    0    0 -0.14203103362E+03  0.47489640386E+02 -0.24771069363E+02  0.15179488243E+03  0.00000000000E+00 0.  1.
          4    1    6    6  503    0  0.44274322419E+02  0.10858498279E+03  0.37766718867E+02  0.12319593811E+03  0.00000000000E+00 0. -1.
         -4    1    6    6    0  503  0.27044482549E+03  0.24751019085E+03  0.12100594173E+03  0.38606234748E+03  0.00000000000E+00 0.  1.
<mgrwt>
<rscale>  0 0.62086574E+03</rscale>
<asrwt>0</asrwt>
<pdfrwt beam="1">  1        2 0.92391479E-01 0.62086574E+03</pdfrwt>
<pdfrwt beam="2">  1       -2 0.10612053E+00 0.62086574E+03</pdfrwt>
<totfact> 0.36343749E+01</totfact>
</mgrwt>
</event>
<event>
12    1  0.1338445E-007  0.1059782E+04  0.7818608E-02  0.9245303E-01
          2   -1    0    0  501    0  0.00000000000E+00  0.00000000000E+00  0.14500352698E+04  0.14500352698E+04  0.00000000000E+00 0. -1.
         -2   -1    0    0    0  501 -0.00000000000E+00 -0.00000000000E+00 -0.92162850759E+03  0.92162850759E+03  0.00000000000E+00 0.  1.
         23    2    1    2    0    0  0.89889918885E+03 -0.38213921729E+03  0.70907503099E+03  0.12111006087E+04  0.99635092955E+02 0.  0.
    5000000    2    1    2    0    0 -0.89889918885E+03  0.38213921729E+03 -0.18066826877E+03  0.11605631687E+04  0.60017973313E+03 0.  0.
         23    2    4    4    0    0 -0.71641645344E+03  0.17868549524E+02 -0.17348925386E+03  0.74281610536E+03  0.90030135844E+02 0.  0.
         23    2    4    4    0    0 -0.18248273542E+03  0.36427066776E+03 -0.71790149069E+01  0.41774706332E+03  0.92021750383E+02 0.  0.
          2    1    3    3  502    0  0.53276480666E+03 -0.27170839551E+03  0.40134824474E+03  0.72023899156E+03  0.00000000000E+00 0. -1.
         -2    1    3    3    0  502  0.36613438219E+03 -0.11043082178E+03  0.30772678624E+03  0.49086161715E+03  0.00000000000E+00 0.  1.
         13    1    5    5    0    0 -0.16314774883E+03 -0.33711893349E+02 -0.38368247321E+02  0.17095555593E+03  0.00000000000E+00 0.  1.
        -13    1    5    5    0    0 -0.55326870461E+03  0.51580442873E+02 -0.13512100654E+03  0.57186054943E+03  0.00000000000E+00 0. -1.
          2    1    6    6  503    0 -0.10220164417E+03  0.10985354385E+03  0.10268560606E+02  0.15039421699E+03  0.00000000000E+00 0. -1.
         -2    1    6    6    0  503 -0.80281091250E+02  0.25441712391E+03 -0.17447575512E+02  0.26735284634E+03  0.00000000000E+00 0.  1.
<mgrwt>
<rscale>  0 0.10597820E+04</rscale>
<asrwt>0</asrwt>
<pdfrwt beam="1">  1        2 0.22308235E+00 0.10597820E+04</pdfrwt>
<pdfrwt beam="2">  1       -2 0.14178900E+00 0.10597820E+04</pdfrwt>
<totfact> 0.46431835E+00</totfact>
</mgrwt>
</event>
<event>
12    1  0.1338445E-007  0.9900596E+03  0.7818608E-02  0.9319515E-01
         -1   -1    0    0    0  501 -0.00000000000E+00  0.00000000000E+00  0.10127280598E+04  0.10127280598E+04  0.00000000000E+00 0.  1.
          1   -1    0    0  501    0  0.00000000000E+00 -0.00000000000E+00 -0.13787813799E+04  0.13787813799E+04  0.00000000000E+00 0. -1.
         23    2    1    2    0    0  0.66199298414E+03 -0.67312984413E+03  0.40668258238E+03  0.10319434145E+04  0.90432238693E+02 0.  0.
    5000000    2    1    2    0    0 -0.66199298414E+03  0.67312984413E+03 -0.77273590247E+03  0.13595660252E+04  0.59996708549E+03 0.  0.
         23    2    4    4    0    0 -0.77419339698E+02 -0.56873399473E+02 -0.25402981815E+03  0.28632925666E+03  0.90691548587E+02 0.  0.
         23    2    4    4    0    0 -0.58457364444E+03  0.73000324361E+03 -0.51870608432E+03  0.10732367685E+04  0.90277781714E+02 0.  0.
          4    1    3    3  502    0  0.33248894370E+03 -0.29217215853E+03  0.15587599604E+03  0.46926622939E+03  0.00000000000E+00 0.  1.
         -4    1    3    3    0  502  0.32950404043E+03 -0.38095768561E+03  0.25080658635E+03  0.56267718511E+03  0.00000000000E+00 0. -1.
         13    1    5    5    0    0 -0.27503544145E+02 -0.18513614031E+02 -0.20187255896E+03  0.20457695106E+03  0.00000000000E+00 0. -1.
        -13    1    5    5    0    0 -0.49915795553E+02 -0.38359785443E+02 -0.52157259191E+02  0.81752305602E+02  0.00000000000E+00 0.  1.
          1    1    6    6  503    0 -0.19619709405E+03  0.19524265934E+03 -0.12272074956E+03  0.30277611880E+03  0.00000000000E+00 0. -1.
         -1    1    6    6    0  503 -0.38837655038E+03  0.53476058427E+03 -0.39598533476E+03  0.77046064969E+03  0.00000000000E+00 0.  1.
<mgrwt>
<rscale>  0 0.99005958E+03</rscale>
<asrwt>0</asrwt>
<pdfrwt beam="1">  1        1 0.21212021E+00 0.99005958E+03</pdfrwt>
<pdfrwt beam="2">  1       -1 0.15580432E+00 0.99005958E+03</pdfrwt>
<totfact> 0.25167235E+00</totfact>
</mgrwt>
</event>
<event>
12    1  0.1338445E-007  0.1567478E+04  0.7818608E-02  0.8840780E-01
         -2   -1    0    0    0  501 -0.00000000000E+00  0.00000000000E+00  0.22092567745E+04  0.22092567745E+04  0.00000000000E+00 0.  1.
          2   -1    0    0  501    0  0.00000000000E+00 -0.00000000000E+00 -0.14861792597E+04  0.14861792597E+04  0.00000000000E+00 0. -1.
         23    2    1    2    0    0 -0.79508917204E+03  0.13417544676E+04 -0.48218660518E+03  0.16350453852E+04  0.91638674710E+02 0.  0.
    5000000    2    1    2    0    0  0.79508917204E+03 -0.13417544676E+04  0.12052641200E+04  0.20603906490E+04  0.60006348401E+03 0.  0.
         23    2    4    4    0    0  0.33875507346E+03 -0.69111623176E+03  0.93756318526E+03  0.12167432801E+04  0.95093836308E+02 0.  0.
         23    2    4    4    0    0  0.45633409857E+03 -0.65063823582E+03  0.26770093476E+03  0.84364736893E+03  0.92228895736E+02 0.  0.
          4    1    3    3  502    0 -0.69227317221E+03  0.11903939434E+04 -0.45365289965E+03  0.14498554544E+04  0.00000000000E+00 0. -1.
         -4    1    3    3    0  502 -0.10281599983E+03  0.15136052423E+03 -0.28533705524E+02  0.18518993079E+03  0.00000000000E+00 0.  1.
         11    1    5    5    0    0  0.27150248009E+03 -0.62091611442E+03  0.80312376689E+03  0.10508369059E+04  0.00000000000E+00 0.  1.
        -11    1    5    5    0    0  0.67252593372E+02 -0.70200117345E+02  0.13443941837E+03  0.16590637421E+03  0.00000000000E+00 0. -1.
          1    1    6    6  503    0  0.37854900531E+03 -0.47098573987E+03  0.20486470661E+03  0.63804111513E+03  0.00000000000E+00 0. -1.
         -1    1    6    6    0  503  0.77785093256E+02 -0.17965249595E+03  0.62836228142E+02  0.20560625380E+03  0.00000000000E+00 0.  1.
<mgrwt>
<rscale>  0 0.15674780E+04</rscale>
<asrwt>0</asrwt>
<pdfrwt beam="1">  1        2 0.22864296E+00 0.15674780E+04</pdfrwt>
<pdfrwt beam="2">  1       -2 0.33988566E+00 0.15674780E+04</pdfrwt>
<totfact> 0.21764345E-01</totfact>
</mgrwt>
</event>
<event>
12    1  0.1338445E-007  0.5440093E+03  0.7818608E-02  0.1002890E+00
          2   -1    0    0  501    0  0.00000000000E+00  0.00000000000E+00  0.27269819841E+03  0.27269819841E+03  0.00000000000E+00 0. -1.
         -2   -1    0    0    0  501 -0.00000000000E+00 -0.00000000000E+00 -0.12112147078E+04  0.12112147078E+04  0.00000000000E+00 0.  1.
         23    2    1    2    0    0 -0.30848752437E+02 -0.39264509275E+03 -0.49916352480E+03  0.64234888177E+03  0.91247175530E+02 0.  0.
    5000000    2    1    2    0    0  0.30848752437E+02  0.39264509275E+03 -0.43935298462E+03  0.84156402446E+03  0.60006428637E+03 0.  0.
         23    2    4    4    0    0  0.46936580282E+02 -0.13001915348E+03 -0.28863252918E+02  0.17041772855E+03  0.95399643591E+02 0.  0.
         23    2    4    4    0    0 -0.16087827845E+02  0.52266424622E+03 -0.41048973170E+03  0.67114629590E+03  0.92188926599E+02 0.  0.
          3    1    3    3  502    0 -0.50460102639E+02 -0.27191213687E+03 -0.39195999334E+03  0.47970310455E+03  0.00000000000E+00 0. -1.
         -3    1    3    3    0  502  0.19611350201E+02 -0.12073295588E+03 -0.10720353146E+03  0.16264577722E+03  0.00000000000E+00 0.  1.
         11    1    5    5    0    0 -0.27378503827E+01  0.13708499577E+02  0.45869603221E+01  0.14712545340E+02  0.00000000000E+00 0. -1.
        -11    1    5    5    0    0  0.49674430665E+02 -0.14372765305E+03 -0.33450213240E+02  0.15570518321E+03  0.00000000000E+00 0.  1.
          3    1    6    6  503    0  0.17707652815E+01  0.14762498319E+03 -0.66471316146E+02  0.16190956470E+03  0.00000000000E+00 0. -1.
         -3    1    6    6    0  503 -0.17858593126E+02  0.37503926304E+03 -0.34401841555E+03  0.50923673120E+03  0.00000000000E+00 0.  1.
<mgrwt>
<rscale>  0 0.54400934E+03</rscale>
<asrwt>0</asrwt>
<pdfrwt beam="1">  1        2 0.41953569E-01 0.54400934E+03</pdfrwt>
<pdfrwt beam="2">  1       -2 0.18634072E+00 0.54400934E+03</pdfrwt>
<totfact> 0.20738302E+01</totfact>
</mgrwt>
</event>
<event>
12    1  0.1338445E-007  0.4438821E+03  0.7818608E-02  0.1029562E+00
         -2   -1    0    0    0  501 -0.00000000000E+00  0.00000000000E+00  0.10123108295E+04  0.10123108295E+04  0.00000000000E+00 0. -1.
          2   -1    0    0  501    0  0.00000000000E+00 -0.00000000000E+00 -0.22151536307E+03  0.22151536307E+03  0.00000000000E+00 0.  1.
         23    2    1    2    0    0 -0.16954369580E+03 -0.21387328642E+03  0.21799089672E+03  0.36101768034E+03  0.91251778254E+02 0.  0.
    5000000    2    1    2    0    0  0.16954369580E+03  0.21387328642E+03  0.57280456975E+03  0.87280851227E+03  0.59933527890E+03 0.  0.
         23    2    4    4    0    0  0.48819504137E+02 -0.17296071133E+03  0.61124168712E+02  0.21380683807E+03  0.98379105280E+02 0.  0.
         23    2    4    4    0    0  0.12072419166E+03  0.38683399775E+03  0.51168040104E+03  0.65900167420E+03  0.90837775863E+02 0.  0.
          1    1    3    3  502    0 -0.81059152626E+02 -0.35679802842E+02  0.60190858524E+02  0.10708209003E+03  0.00000000000E+00 0. -1.
         -1    1    3    3    0  502 -0.88484543171E+02 -0.17819348358E+03  0.15780003820E+03  0.25393559031E+03  0.00000000000E+00 0.  1.
         13    1    5    5    0    0  0.68441631982E+02 -0.13011835737E+03  0.14859440166E+02  0.14776957358E+03  0.00000000000E+00 0. -1.
        -13    1    5    5    0    0 -0.19622127845E+02 -0.42842353959E+02  0.46264728546E+02  0.66037264490E+02  0.00000000000E+00 0.  1.
          1    1    6    6  503    0  0.90887850099E+02  0.24877790226E+03  0.26451107457E+03  0.37432226025E+03  0.00000000000E+00 0. -1.
         -1    1    6    6    0  503  0.29836341561E+02  0.13805609549E+03  0.24716932647E+03  0.28467941395E+03  0.00000000000E+00 0.  1.
<mgrwt>
<rscale>  0 0.44388207E+03</rscale>
<asrwt>0</asrwt>
<pdfrwt beam="1">  1        2 0.34079287E-01 0.44388207E+03</pdfrwt>
<pdfrwt beam="2">  1       -2 0.15574013E+00 0.44388207E+03</pdfrwt>
<totfact> 0.43232348E+01</totfact>
</mgrwt>
</event>
<event>
12    1  0.1338445E-007  0.3373978E+03  0.7818608E-02  0.1067910E+00
          1   -1    0    0  501    0  0.00000000000E+00  0.00000000000E+00  0.20700728337E+04  0.20700728337E+04  0.00000000000E+00 0. -1.
         -1   -1    0    0    0  501 -0.00000000000E+00 -0.00000000000E+00 -0.67403320382E+02  0.67403320382E+02  0.00000000000E+00 0.  1.
         23    2    1    2    0    0 -0.47001564050E+02 -0.10325666694E+02  0.10379016327E+03  0.14571947477E+03  0.90255198845E+02 0.  0.
    5000000    2    1    2    0    0  0.47001564050E+02  0.10325666694E+02  0.18988793500E+04  0.19917566793E+04  0.59919622591E+03 0.  0.
         23    2    4    4    0    0  0.63422978418E+02  0.27957372209E+03  0.75598755273E+03  0.81385651622E+03  0.93066152966E+02 0.  0.
         23    2    4    4    0    0 -0.16421414368E+02 -0.26924805540E+03  0.11428917973E+04  0.11779001631E+04  0.92102962310E+02 0.  0.
          3    1    3    3  502    0 -0.59677696631E+02 -0.38557172850E+02  0.67175053964E+02  0.97778172045E+02  0.00000000000E+00 0. -1.
         -3    1    3    3    0  502  0.12676132581E+02  0.28231506157E+02  0.36615109307E+02  0.47941302722E+02  0.00000000000E+00 0.  1.
         11    1    5    5    0    0 -0.44558814511E+01  0.10531055849E+03  0.37362418167E+03  0.38820767347E+03  0.00000000000E+00 0. -1.
        -11    1    5    5    0    0  0.67878859869E+02  0.17426316361E+03  0.38236337106E+03  0.42564884275E+03  0.00000000000E+00 0.  1.
          3    1    6    6  503    0  0.28676424400E+02 -0.15347373157E+03  0.73972615047E+03  0.75602334705E+03  0.00000000000E+00 0. -1.
         -3    1    6    6    0  503 -0.45097838768E+02 -0.11577432383E+03  0.40316564685E+03  0.42187681605E+03  0.00000000000E+00 0.  1.
<mgrwt>
<rscale>  0 0.33739778E+03</rscale>
<asrwt>0</asrwt>
<pdfrwt beam="1">  1        1 0.31847269E+00 0.33739778E+03</pdfrwt>
<pdfrwt beam="2">  1       -1 0.10369743E-01 0.33739778E+03</pdfrwt>
<totfact> 0.17290300E+02</totfact>
</mgrwt>
</event>
<event>
12    1  0.1338445E-007  0.9999941E+03  0.7818608E-02  0.9308551E-01
         -1   -1    0    0    0  501 -0.00000000000E+00  0.00000000000E+00  0.12286416879E+04  0.12286416879E+04  0.00000000000E+00 0.  1.
          1   -1    0    0  501    0  0.00000000000E+00 -0.00000000000E+00 -0.92672492453E+03  0.92672492453E+03  0.00000000000E+00 0. -1.
         23    2    1    2    0    0  0.97715408621E+03  0.78567703774E+02  0.14088762903E+03  0.99474159608E+03  0.93051204662E+02 0.  0.
    5000000    2    1    2    0    0 -0.97715408621E+03 -0.78567703774E+02  0.16102913433E+03  0.11606250163E+04  0.60009753722E+03 0.  0.
         23    2    4    4    0    0 -0.77875712391E+03  0.48325939476E+02  0.33526636270E+03  0.85373197953E+03  0.87502596751E+02 0.  0.
         23    2    4    4    0    0 -0.19839696229E+03 -0.12689364325E+03 -0.17423722837E+03  0.30689303681E+03  0.91440543237E+02 0.  0.
          3    1    3    3  502    0  0.39151942880E+03  0.66297806630E+02  0.27001021559E+02  0.39800994643E+03  0.00000000000E+00 0. -1.
         -3    1    3    3    0  502  0.58563465740E+03  0.12269897143E+02  0.11388660747E+03  0.59673164965E+03  0.00000000000E+00 0.  1.
         11    1    5    5    0    0 -0.73848592970E+02 -0.61754256265E+00  0.57630771380E+01  0.74075698448E+02  0.00000000000E+00 0.  1.
        -11    1    5    5    0    0 -0.70490853094E+03  0.48943482038E+02  0.32950328556E+03  0.77965628108E+03  0.00000000000E+00 0. -1.
          1    1    6    6  503    0 -0.14500906332E+02 -0.17400663052E+02 -0.60335253804E+02  0.64446894500E+02  0.00000000000E+00 0. -1.
         -1    1    6    6    0  503 -0.18389605596E+03 -0.10949298020E+03 -0.11390197457E+03  0.24244614231E+03  0.00000000000E+00 0.  1.
<mgrwt>
<rscale>  0 0.99999413E+03</rscale>
<asrwt>0</asrwt>
<pdfrwt beam="1">  1        1 0.14257306E+00 0.99999413E+03</pdfrwt>
<pdfrwt beam="2">  1       -1 0.18902180E+00 0.99999413E+03</pdfrwt>
<totfact> 0.31178387E+00</totfact>
</mgrwt>
</event>
<event>
12    1  0.1338445E-007  0.8670078E+03  0.7818608E-02  0.9467790E-01
         -1   -1    0    0    0  501 -0.00000000000E+00  0.00000000000E+00  0.70769946122E+03  0.70769946122E+03  0.00000000000E+00 0.  1.
          1   -1    0    0  501    0  0.00000000000E+00 -0.00000000000E+00 -0.14687201974E+04  0.14687201974E+04  0.00000000000E+00 0. -1.
         23    2    1    2    0    0  0.50676058537E+03  0.59597344160E+03 -0.88280852350E+03  0.11830808294E+04  0.91316623533E+02 0.  0.
    5000000    2    1    2    0    0 -0.50676058537E+03 -0.59597344160E+03  0.12178778727E+03  0.99333882928E+03  0.59991593632E+03 0.  0.
         23    2    4    4    0    0 -0.43891184907E+03 -0.11762587117E+03 -0.62848245072E+02  0.46758891375E+03  0.90609235347E+02 0.  0.
         23    2    4    4    0    0 -0.67848736306E+02 -0.47834757043E+03  0.18463603234E+03  0.52574991553E+03  0.94353908723E+02 0.  0.
          1    1    3    3  502    0  0.24832370377E+03  0.30924974031E+03 -0.38080840377E+03  0.54983188714E+03  0.00000000000E+00 0. -1.
         -1    1    3    3    0  502  0.25843688161E+03  0.28672370129E+03 -0.50200011972E+03  0.63324894225E+03  0.00000000000E+00 0.  1.
         11    1    5    5    0    0 -0.39314631856E+03 -0.12553261264E+03 -0.75278328253E+02  0.41951077619E+03  0.00000000000E+00 0. -1.
        -11    1    5    5    0    0 -0.45765530508E+02  0.79067414686E+01  0.12430083181E+02  0.48078137560E+02  0.00000000000E+00 0.  1.
          2    1    6    6  503    0 -0.91974570685E+02 -0.38624337756E+03  0.15010158073E+03  0.42446878908E+03  0.00000000000E+00 0. -1.
         -2    1    6    6    0  503  0.24125834379E+02 -0.92104192867E+02  0.34534451611E+02  0.10128112646E+03  0.00000000000E+00 0.  1.
<mgrwt>
<rscale>  0 0.86700784E+03</rscale>
<asrwt>0</asrwt>
<pdfrwt beam="1">  1        1 0.22595695E+00 0.86700784E+03</pdfrwt>
<pdfrwt beam="2">  1       -1 0.10887684E+00 0.86700784E+03</pdfrwt>
<totfact> 0.54997530E+00</totfact>
</mgrwt>
</event>
<event>
12    1  0.1338445E-007  0.8960851E+03  0.7818608E-02  0.9430488E-01
          2   -1    0    0  501    0  0.00000000000E+00  0.00000000000E+00  0.65342341150E+03  0.65342341150E+03  0.00000000000E+00 0. -1.
         -2   -1    0    0    0  501 -0.00000000000E+00 -0.00000000000E+00 -0.13677665239E+04  0.13677665239E+04  0.00000000000E+00 0.  1.
         23    2    1    2    0    0 -0.83124655410E+03 -0.37412501104E+02 -0.14915609171E+03  0.84996573345E+03  0.88451565336E+02 0.  0.
    5000000    2    1    2    0    0  0.83124655410E+03  0.37412501104E+02 -0.56518702069E+03  0.11712242020E+04  0.59996602732E+03 0.  0.
         23    2    4    4    0    0  0.10876414624E+03 -0.15374617369E+03  0.28744452984E+02  0.21124382958E+03  0.91269855539E+02 0.  0.
         23    2    4    4    0    0  0.72248240786E+03  0.19115867479E+03 -0.59393147367E+03  0.95998037237E+03  0.10141622797E+03 0.  0.
          1    1    3    3  502    0 -0.56544189401E+03 -0.98586798134E+01 -0.62165917314E+02  0.56893438141E+03  0.00000000000E+00 0. -1.
         -1    1    3    3    0  502 -0.26580466009E+03 -0.27553821290E+02 -0.86990174393E+02  0.28103135205E+03  0.00000000000E+00 0.  1.
         11    1    5    5    0    0  0.35441719163E+02 -0.11988432020E+03  0.36165911876E+02  0.13013968983E+03  0.00000000000E+00 0. -1.
        -11    1    5    5    0    0  0.73322427072E+02 -0.33861853488E+02 -0.74214588923E+01  0.81104139756E+02  0.00000000000E+00 0.  1.
          1    1    6    6  503    0  0.26236853803E+03  0.11823567256E+03 -0.20897103766E+03  0.35564844804E+03  0.00000000000E+00 0. -1.
         -1    1    6    6    0  503  0.46011386984E+03  0.72923002233E+02 -0.38496043601E+03  0.60433192433E+03  0.00000000000E+00 0.  1.
<mgrwt>
<rscale>  0 0.89608511E+03</rscale>
<asrwt>0</asrwt>
<pdfrwt beam="1">  1        2 0.10052668E+00 0.89608511E+03</pdfrwt>
<pdfrwt beam="2">  1       -2 0.21042562E+00 0.89608511E+03</pdfrwt>
<totfact> 0.51085091E+00</totfact>
</mgrwt>
</event>
<event>
12    1  0.1338445E-007  0.7430930E+03  0.7818608E-02  0.9646249E-01
          2   -1    0    0  501    0  0.00000000000E+00  0.00000000000E+00  0.96655551935E+03  0.96655551935E+03  0.00000000000E+00 0. -1.
         -2   -1    0    0    0  501 -0.00000000000E+00 -0.00000000000E+00 -0.80995717475E+03  0.80995717475E+03  0.00000000000E+00 0.  1.
         23    2    1    2    0    0 -0.50024682901E+03  0.52070453940E+03  0.36563708615E+03  0.81470414729E+03  0.93124978208E+02 0.  0.
    5000000    2    1    2    0    0  0.50024682901E+03 -0.52070453940E+03 -0.20903874155E+03  0.96180854681E+03  0.59999864831E+03 0.  0.
         23    2    4    4    0    0  0.16752657686E+03 -0.30828027965E+03 -0.37715539899E+03  0.52279880897E+03  0.89277740187E+02 0.  0.
         23    2    4    4    0    0  0.33272025215E+03 -0.21242425975E+03  0.16811665745E+03  0.43900973785E+03  0.92948948869E+02 0.  0.
          4    1    3    3  502    0 -0.36054261707E+03  0.42395535832E+03  0.30241097724E+03  0.63338891980E+03  0.00000000000E+00 0.  1.
         -4    1    3    3    0  502 -0.13970421194E+03  0.96749181078E+02  0.63226108906E+02  0.18131522749E+03  0.00000000000E+00 0. -1.
         13    1    5    5    0    0  0.62896383669E+02 -0.49118760997E+02 -0.58533613483E+02  0.98968639820E+02  0.00000000000E+00 0. -1.
        -13    1    5    5    0    0  0.10463019319E+03 -0.25916151865E+03 -0.31862178551E+03  0.42383016915E+03  0.00000000000E+00 0.  1.
          3    1    6    6  503    0  0.85287431452E+02 -0.21653920527E+02  0.91789756232E+01  0.88470853005E+02  0.00000000000E+00 0. -1.
         -3    1    6    6    0  503  0.24743282069E+03 -0.19077033922E+03  0.15893768182E+03  0.35053888484E+03  0.00000000000E+00 0.  1.
<mgrwt>
<rscale>  0 0.74309303E+03</rscale>
<asrwt>0</asrwt>
<pdfrwt beam="1">  1        2 0.14870085E+00 0.74309303E+03</pdfrwt>
<pdfrwt beam="2">  1       -2 0.12460880E+00 0.74309303E+03</pdfrwt>
<totfact> 0.13020019E+01</totfact>
</mgrwt>
</event>
<event>
12    1  0.1338445E-007  0.1013390E+04  0.7818608E-02  0.9293980E-01
         -4   -1    0    0    0  501 -0.00000000000E+00  0.00000000000E+00  0.86511350918E+03  0.86511350918E+03  0.00000000000E+00 0.  1.
          4   -1    0    0  501    0  0.00000000000E+00 -0.00000000000E+00 -0.17753492893E+04  0.17753492893E+04  0.00000000000E+00 0. -1.
         23    2    1    2    0    0 -0.72901861552E+03 -0.60186252242E+03 -0.11540643452E+04  0.14945976575E+04  0.90835054579E+02 0.  0.
    5000000    2    1    2    0    0  0.72901861552E+03  0.60186252242E+03  0.24382856509E+03  0.11458651410E+04  0.59987324877E+03 0.  0.
         23    2    4    4    0    0  0.66308762996E+03  0.23810870506E+03  0.33284004990E+02  0.71131279267E+03  0.92071187651E+02 0.  0.
         23    2    4    4    0    0  0.65930985561E+02  0.36375381736E+03  0.21054456010E+03  0.43455234835E+03  0.88560697665E+02 0.  0.
          4    1    3    3  502    0 -0.75805554021E+02 -0.37212499372E+02 -0.13120335908E+03  0.15603068148E+03  0.00000000000E+00 0.  1.
         -4    1    3    3    0  502 -0.65321306150E+03 -0.56465002305E+03 -0.10228609862E+04  0.13385669760E+04  0.00000000000E+00 0. -1.
         11    1    5    5    0    0  0.22754071519E+03  0.12092064651E+03 -0.12365198384E+02  0.25797185496E+03  0.00000000000E+00 0.  1.
        -11    1    5    5    0    0  0.43554691477E+03  0.11718805855E+03  0.45649203374E+02  0.45334093771E+03  0.00000000000E+00 0. -1.
          3    1    6    6  503    0  0.44863195270E+02  0.29125352997E+03  0.12402810049E+03  0.31972534264E+03  0.00000000000E+00 0. -1.
         -3    1    6    6    0  503  0.21067790291E+02  0.72500287382E+02  0.86516459608E+02  0.11482700571E+03  0.00000000000E+00 0.  1.
<mgrwt>
<rscale>  0 0.10133899E+04</rscale>
<asrwt>0</asrwt>
<pdfrwt beam="1">  1        4 0.27313066E+00 0.10133899E+04</pdfrwt>
<pdfrwt beam="2">  1       -4 0.13309439E+00 0.10133899E+04</pdfrwt>
<totfact> 0.35682383E-02</totfact>
</mgrwt>
</event>
<event>
12    1  0.1338445E-007  0.7916996E+03  0.7818608E-02  0.9572110E-01
         -1   -1    0    0    0  501 -0.00000000000E+00  0.00000000000E+00  0.51010349712E+03  0.51010349712E+03  0.00000000000E+00 0.  1.
          1   -1    0    0  501    0  0.00000000000E+00 -0.00000000000E+00 -0.20115814457E+04  0.20115814457E+04  0.00000000000E+00 0. -1.
         23    2    1    2    0    0  0.20973943235E+03 -0.72436527172E+03 -0.13457434947E+04  0.15454613338E+04  0.93431816710E+02 0.  0.
    5000000    2    1    2    0    0 -0.20973943235E+03  0.72436527172E+03 -0.15573445388E+03  0.97622360903E+03  0.60005302962E+03 0.  0.
         23    2    4    4    0    0 -0.22739288085E+03  0.20860912230E+03 -0.29000211463E+03  0.43512132976E+03  0.10002028272E+03 0.  0.
         23    2    4    4    0    0  0.17653448500E+02  0.51575614942E+03  0.13426766075E+03  0.54110227927E+03  0.91912034053E+02 0.  0.
          4    1    3    3  502    0  0.43929430184E+02 -0.28670244706E+03 -0.46372797382E+03  0.54696592370E+03  0.00000000000E+00 0. -1.
         -4    1    3    3    0  502  0.16581000217E+03 -0.43766282466E+03 -0.88201552089E+03  0.99849541010E+03  0.00000000000E+00 0.  1.
         11    1    5    5    0    0 -0.80978421122E+02  0.62619556779E+02 -0.38089402997E+02  0.10922232464E+03  0.00000000000E+00 0. -1.
        -11    1    5    5    0    0 -0.14641445973E+03  0.14598956552E+03 -0.25191271163E+03  0.32589900512E+03  0.00000000000E+00 0.  1.
          3    1    6    6  503    0  0.18964412637E+02  0.50669568340E+03  0.11523169004E+03  0.51997933316E+03  0.00000000000E+00 0. -1.
         -3    1    6    6    0  503 -0.13109641371E+01  0.90604660121E+01  0.19035970712E+02  0.21122946108E+02  0.00000000000E+00 0.  1.
<mgrwt>
<rscale>  0 0.79169964E+03</rscale>
<asrwt>0</asrwt>
<pdfrwt beam="1">  1        1 0.30947408E+00 0.79169964E+03</pdfrwt>
<pdfrwt beam="2">  1       -1 0.78477459E-01 0.79169964E+03</pdfrwt>
<totfact> 0.49585678E+00</totfact>
</mgrwt>
</event>
<event>
12    1  0.1338445E-007  0.7863251E+03  0.7818608E-02  0.9580025E-01
         -1   -1    0    0    0  501 -0.00000000000E+00  0.00000000000E+00  0.70869405815E+03  0.70869405815E+03  0.00000000000E+00 0.  1.
          1   -1    0    0  501    0  0.00000000000E+00 -0.00000000000E+00 -0.11083628614E+04  0.11083628614E+04  0.00000000000E+00 0. -1.
         23    2    1    2    0    0 -0.57040960329E+03  0.45381828752E+03 -0.46711410057E+03  0.87054383251E+03  0.91284323666E+02 0.  0.
    5000000    2    1    2    0    0  0.57040960329E+03 -0.45381828752E+03  0.67445297339E+02  0.94651308703E+03  0.60001666824E+03 0.  0.
         23    2    4    4    0    0  0.39557137540E+03 -0.51799175768E+03 -0.11934696249E+03  0.66893368548E+03  0.91849899576E+02 0.  0.
         23    2    4    4    0    0  0.17483822789E+03  0.64173470153E+02  0.18679225983E+03  0.27757940156E+03  0.86442672523E+02 0.  0.
          4    1    3    3  502    0 -0.45288110182E+03  0.38330190253E+03 -0.34120087662E+03  0.68442653300E+03  0.00000000000E+00 0. -1.
         -4    1    3    3    0  502 -0.11752850147E+03  0.70516384996E+02 -0.12591322395E+03  0.18611729951E+03  0.00000000000E+00 0.  1.
         11    1    5    5    0    0  0.55557161727E+02 -0.82355192050E+02 -0.52278420611E+02  0.11225867066E+03  0.00000000000E+00 0. -1.
        -11    1    5    5    0    0  0.34001421367E+03 -0.43563656563E+03 -0.67068541878E+02  0.55667501482E+03  0.00000000000E+00 0.  1.
          3    1    6    6  503    0 -0.17711290630E+01  0.28589494482E+01 -0.73349955111E+01  0.80692409341E+01  0.00000000000E+00 0. -1.
         -3    1    6    6    0  503  0.17660935695E+03  0.61314520705E+02  0.19412725534E+03  0.26951016062E+03  0.00000000000E+00 0.  1.
<mgrwt>
<rscale>  0 0.78632514E+03</rscale>
<asrwt>0</asrwt>
<pdfrwt beam="1">  1        1 0.17051736E+00 0.78632514E+03</pdfrwt>
<pdfrwt beam="2">  1       -1 0.10902986E+00 0.78632514E+03</pdfrwt>
<totfact> 0.10016344E+01</totfact>
</mgrwt>
</event>
<event>
12    1  0.1338445E-007  0.1136962E+04  0.7818608E-02  0.9169897E-01
         -2   -1    0    0    0  501 -0.00000000000E+00  0.00000000000E+00  0.76035929226E+03  0.76035929226E+03  0.00000000000E+00 0.  1.
          2   -1    0    0  501    0  0.00000000000E+00 -0.00000000000E+00 -0.18508638556E+04  0.18508638556E+04  0.00000000000E+00 0. -1.
         23    2    1    2    0    0 -0.61043128428E+02  0.10556906398E+04 -0.87738528567E+03  0.13770456626E+04  0.90778999967E+02 0.  0.
    5000000    2    1    2    0    0  0.61043128428E+02 -0.10556906398E+04 -0.21311927765E+03  0.12341774852E+04  0.59963759724E+03 0.  0.
         23    2    4    4    0    0 -0.90165733443E+02 -0.10295626144E+04 -0.19038119327E+03  0.10543645590E+04  0.85501976417E+02 0.  0.
         23    2    4    4    0    0  0.15120886187E+03 -0.26128025404E+02 -0.22738084386E+02  0.17981292627E+03  0.90933351151E+02 0.  0.
          3    1    3    3  502    0 -0.22083005855E+01  0.65500589162E+03 -0.50813585889E+03  0.82899918319E+03  0.00000000000E+00 0. -1.
         -3    1    3    3    0  502 -0.58834827842E+02  0.40068474821E+03 -0.36924942679E+03  0.54804647941E+03  0.00000000000E+00 0.  1.
         11    1    5    5    0    0 -0.90081874612E+02 -0.64055048621E+03 -0.94600740575E+02  0.65373463242E+03  0.00000000000E+00 0. -1.
        -11    1    5    5    0    0 -0.83858831545E-01 -0.38901212822E+03 -0.95780452691E+02  0.40062992655E+03  0.00000000000E+00 0.  1.
          1    1    6    6  503    0  0.11350020084E+03  0.23329941635E+02 -0.19778628909E+02  0.11754903627E+03  0.00000000000E+00 0. -1.
         -1    1    6    6    0  503  0.37708661030E+02 -0.49457967039E+02 -0.29594554777E+01  0.62263889993E+02  0.00000000000E+00 0.  1.
<mgrwt>
<rscale>  0 0.11369617E+04</rscale>
<asrwt>0</asrwt>
<pdfrwt beam="1">  1        2 0.28474829E+00 0.11369617E+04</pdfrwt>
<pdfrwt beam="2">  1       -2 0.11697835E+00 0.11369617E+04</pdfrwt>
<totfact> 0.44915048E+00</totfact>
</mgrwt>
</event>
<event>
12    1  0.1338445E-007  0.7082680E+03  0.7818608E-02  0.9703196E-01
         -2   -1    0    0    0  501 -0.00000000000E+00  0.00000000000E+00  0.67480034732E+03  0.67480034732E+03  0.00000000000E+00 0.  1.
          2   -1    0    0  501    0  0.00000000000E+00 -0.00000000000E+00 -0.86871690224E+03  0.86871690224E+03  0.00000000000E+00 0. -1.
         23    2    1    2    0    0  0.52348805259E+03  0.24992500650E+03  0.20020792585E+03  0.62056839129E+03  0.92302029340E+02 0.  0.
    5000000    2    1    2    0    0 -0.52348805259E+03 -0.24992500650E+03 -0.39412448076E+03  0.92294885826E+03  0.59999853212E+03 0.  0.
         23    2    4    4    0    0 -0.33189513974E+03  0.15425954864E+03 -0.15948617840E+03  0.40957066201E+03  0.91443392031E+02 0.  0.
         23    2    4    4    0    0 -0.19159291285E+03 -0.40418455513E+03 -0.23463830236E+03  0.51337819625E+03  0.91809806617E+02 0.  0.
          3    1    3    3  502    0  0.19797836726E+03  0.13274199938E+03  0.11298156045E+03  0.26378154845E+03  0.00000000000E+00 0. -1.
         -3    1    3    3    0  502  0.32550968534E+03  0.11718300712E+03  0.87226365392E+02  0.35678684284E+03  0.00000000000E+00 0.  1.
         13    1    5    5    0    0 -0.25153849084E+03  0.73538324293E+02 -0.12643255971E+03  0.29097197403E+03  0.00000000000E+00 0. -1.
        -13    1    5    5    0    0 -0.80356648900E+02  0.80721224344E+02 -0.33053618695E+02  0.11859868798E+03  0.00000000000E+00 0.  1.
          2    1    6    6  503    0 -0.71802055390E+02 -0.25502808977E+03 -0.12599481476E+03  0.29337613243E+03  0.00000000000E+00 0.  1.
         -2    1    6    6    0  503 -0.11979085746E+03 -0.14915646536E+03 -0.10864348760E+03  0.22000206383E+03  0.00000000000E+00 0. -1.
<mgrwt>
<rscale>  0 0.70826804E+03</rscale>
<asrwt>0</asrwt>
<pdfrwt beam="1">  1        2 0.13364875E+00 0.70826804E+03</pdfrwt>
<pdfrwt beam="2">  1       -2 0.10381544E+00 0.70826804E+03</pdfrwt>
<totfact> 0.23714525E+01</totfact>
</mgrwt>
</event>
<event>
12    1  0.1338445E-007  0.1704469E+04  0.7818608E-02  0.8758819E-01
          2   -1    0    0  501    0  0.00000000000E+00  0.00000000000E+00  0.31858553713E+04  0.31858553713E+04  0.00000000000E+00 0. -1.
         -2   -1    0    0    0  501 -0.00000000000E+00 -0.00000000000E+00 -0.12668533532E+04  0.12668533532E+04  0.00000000000E+00 0.  1.
         23    2    1    2    0    0 -0.15812282818E+04 -0.54945760038E+03 -0.19772348005E+03  0.16882082189E+04  0.93626287825E+02 0.  0.
    5000000    2    1    2    0    0  0.15812282818E+04  0.54945760038E+03  0.21167254982E+04  0.27645005056E+04  0.59979136110E+03 0.  0.
         23    2    4    4    0    0  0.39352569284E+02  0.83798423761E+01  0.13563192158E+02  0.99765123073E+02  0.90278863156E+02 0.  0.
         23    2    4    4    0    0  0.15418757126E+04  0.54107775800E+03  0.21031623060E+04  0.26647353825E+04  0.85890163541E+02 0.  0.
          4    1    3    3  502    0 -0.51004648176E+03 -0.13185133290E+03 -0.54992780838E+02  0.52967574373E+03  0.00000000000E+00 0. -1.
         -4    1    3    3    0  502 -0.10711818001E+04 -0.41760626748E+03 -0.14273069921E+03  0.11585324751E+04  0.00000000000E+00 0.  1.
         13    1    5    5    0    0 -0.20741520066E+02 -0.22045112879E+02  0.11489829147E+02  0.32376130564E+02  0.00000000000E+00 0. -1.
        -13    1    5    5    0    0  0.60094089350E+02  0.30424955255E+02  0.20733630108E+01  0.67388992508E+02  0.00000000000E+00 0.  1.
          3    1    6    6  503    0  0.20099143247E+03  0.53234505048E+02  0.30726151458E+03  0.37100014393E+03  0.00000000000E+00 0. -1.
         -3    1    6    6    0  503  0.13408842801E+04  0.48784325296E+03  0.17959007914E+04  0.22937352386E+04  0.00000000000E+00 0.  1.
<mgrwt>
<rscale>  0 0.17044694E+04</rscale>
<asrwt>0</asrwt>
<pdfrwt beam="1">  1        2 0.49013159E+00 0.17044694E+04</pdfrwt>
<pdfrwt beam="2">  1       -2 0.19490052E+00 0.17044694E+04</pdfrwt>
<totfact> 0.17553047E-01</totfact>
</mgrwt>
</event>
<event>
12    1  0.1338445E-007  0.1284063E+04  0.7818608E-02  0.9042300E-01
          2   -1    0    0  501    0  0.00000000000E+00  0.00000000000E+00  0.18992467740E+04  0.18992467740E+04  0.00000000000E+00 0.  1.
         -2   -1    0    0    0  501 -0.00000000000E+00 -0.00000000000E+00 -0.92892357598E+03  0.92892357598E+03  0.00000000000E+00 0. -1.
         23    2    1    2    0    0  0.69258560541E+02  0.12187796789E+04  0.13403745770E+03  0.12313880308E+04  0.90165340622E+02 0.  0.
    5000000    2    1    2    0    0 -0.69258560541E+02 -0.12187796789E+04  0.83628574032E+03  0.15967823191E+04  0.60009939294E+03 0.  0.
         23    2    4    4    0    0 -0.27047023967E+03 -0.35043304478E+03  0.38580313667E+03  0.59394149222E+03  0.89246660937E+02 0.  0.
         23    2    4    4    0    0  0.20121167913E+03 -0.86834663407E+03  0.45048260364E+03  0.10028408269E+04  0.90791691230E+02 0.  0.
          2    1    3    3  502    0  0.62958851340E+02  0.41885212180E+03  0.28677998278E+02  0.42452720111E+03  0.00000000000E+00 0. -1.
         -2    1    3    3    0  502  0.62997092003E+01  0.79992755706E+03  0.10535945943E+03  0.80686082974E+03  0.00000000000E+00 0.  1.
         13    1    5    5    0    0 -0.20056572710E+03 -0.19680343024E+03  0.21500845749E+03  0.35381752053E+03  0.00000000000E+00 0.  1.
        -13    1    5    5    0    0 -0.69904512569E+02 -0.15362961455E+03  0.17079467918E+03  0.24012397169E+03  0.00000000000E+00 0. -1.
          4    1    6    6  503    0  0.14297109137E+02 -0.20949488713E+03  0.12737523537E+03  0.24559512546E+03  0.00000000000E+00 0. -1.
         -4    1    6    6    0  503  0.18691456999E+03 -0.65885174694E+03  0.32310736827E+03  0.75724570144E+03  0.00000000000E+00 0.  1.
<mgrwt>
<rscale>  0 0.12840626E+04</rscale>
<asrwt>0</asrwt>
<pdfrwt beam="1">  1        2 0.29219181E+00 0.12840626E+04</pdfrwt>
<pdfrwt beam="2">  1       -2 0.14291132E+00 0.12840626E+04</pdfrwt>
<totfact> 0.24964476E+00</totfact>
</mgrwt>
</event>
<event>
12    1  0.1338445E-007  0.3991653E+03  0.7818608E-02  0.1044069E+00
          2   -1    0    0  501    0  0.00000000000E+00  0.00000000000E+00  0.31424723256E+03  0.31424723256E+03  0.00000000000E+00 0. -1.
         -2   -1    0    0    0  501 -0.00000000000E+00 -0.00000000000E+00 -0.72578312460E+03  0.72578312460E+03  0.00000000000E+00 0.  1.
         23    2    1    2    0    0  0.19108853286E+03  0.18994189443E+03 -0.20897745057E+03  0.35206280724E+03  0.87657827646E+02 0.  0.
    5000000    2    1    2    0    0 -0.19108853286E+03 -0.18994189443E+03 -0.20255844148E+03  0.68796754992E+03  0.59973050354E+03 0.  0.
         23    2    4    4    0    0 -0.23284070586E+03 -0.30202024393E+03 -0.31340211024E+03  0.50196206580E+03  0.91181197343E+02 0.  0.
         23    2    4    4    0    0  0.41752173005E+02  0.11207834950E+03  0.11084366876E+03  0.18600548412E+03  0.89481399416E+02 0.  0.
          3    1    3    3  502    0  0.16304324624E+02  0.50507374224E+02 -0.12761608993E+02  0.54586486574E+02  0.00000000000E+00 0. -1.
         -3    1    3    3    0  502  0.17478420823E+03  0.13943452021E+03 -0.19621584157E+03  0.29747632067E+03  0.00000000000E+00 0.  1.
         13    1    5    5    0    0 -0.29404742013E+02 -0.10422954683E+03 -0.90757029535E+02  0.14129853395E+03  0.00000000000E+00 0. -1.
        -13    1    5    5    0    0 -0.20343596385E+03 -0.19779069710E+03 -0.22264508070E+03  0.36066353185E+03  0.00000000000E+00 0.  1.
          4    1    6    6  503    0 -0.11389911894E+02  0.13676956828E+02 -0.10757743620E+02  0.20797074045E+02  0.00000000000E+00 0. -1.
         -4    1    6    6    0  503  0.53142084898E+02  0.98401392672E+02  0.12160141238E+03  0.16520841007E+03  0.00000000000E+00 0.  1.
<mgrwt>
<rscale>  0 0.39916528E+03</rscale>
<asrwt>0</asrwt>
<pdfrwt beam="1">  1        2 0.48345728E-01 0.39916528E+03</pdfrwt>
<pdfrwt beam="2">  1       -2 0.11165894E+00 0.39916528E+03</pdfrwt>
<totfact> 0.68369783E+01</totfact>
</mgrwt>
</event>
<event>
12    1  0.1338445E-007  0.1918871E+04  0.7818608E-02  0.8645520E-01
         -2   -1    0    0    0  501 -0.00000000000E+00  0.00000000000E+00  0.19514372247E+04  0.19514372247E+04  0.00000000000E+00 0.  1.
          2   -1    0    0  501    0  0.00000000000E+00 -0.00000000000E+00 -0.21265264064E+04  0.21265264064E+04  0.00000000000E+00 0. -1.
         23    2    1    2    0    0  0.33745419573E+03  0.18840747119E+04  0.46617088729E+03  0.19720567642E+04  0.89887322193E+02 0.  0.
    5000000    2    1    2    0    0 -0.33745419573E+03 -0.18840747119E+04 -0.64126006897E+03  0.21059068669E+04  0.60001366777E+03 0.  0.
         23    2    4    4    0    0 -0.19057912088E+03 -0.94278475301E+03 -0.62130581611E+03  0.11487162050E+04  0.91457698975E+02 0.  0.
         23    2    4    4    0    0 -0.14687507485E+03 -0.94128995890E+03 -0.19954252860E+02  0.95719066184E+03  0.90646106158E+02 0.  0.
          2    1    3    3  502    0  0.17767115152E+03  0.74482534797E+03  0.17980605534E+03  0.78655073237E+03  0.00000000000E+00 0.  1.
         -2    1    3    3    0  502  0.15978304421E+03  0.11392493640E+04  0.28636483195E+03  0.11855060318E+04  0.00000000000E+00 0. -1.
         13    1    5    5    0    0 -0.78346169650E+02 -0.22776498350E+03 -0.18384823054E+03  0.30301020095E+03  0.00000000000E+00 0.  1.
        -13    1    5    5    0    0 -0.11223295123E+03 -0.71501976952E+03 -0.43745758557E+03  0.84570600407E+03  0.00000000000E+00 0. -1.
          1    1    6    6  503    0 -0.42332281424E+02 -0.56065846930E+03 -0.10991260863E+02  0.56236175996E+03  0.00000000000E+00 0. -1.
         -1    1    6    6    0  503 -0.10454279343E+03 -0.38063148960E+03 -0.89629919971E+01  0.39482890188E+03  0.00000000000E+00 0.  1.
<mgrwt>
<rscale>  0 0.19188710E+04</rscale>
<asrwt>0</asrwt>
<pdfrwt beam="1">  1        2 0.32715791E+00 0.19188710E+04</pdfrwt>
<pdfrwt beam="2">  1       -2 0.30022111E+00 0.19188710E+04</pdfrwt>
<totfact> 0.16126499E-01</totfact>
</mgrwt>
</event>
<event>
12    1  0.1338445E-007  0.5471101E+03  0.7818608E-02  0.1002165E+00
          2   -1    0    0  501    0  0.00000000000E+00  0.00000000000E+00  0.16121483224E+04  0.16121483224E+04  0.00000000000E+00 0. -1.
         -2   -1    0    0    0  501 -0.00000000000E+00 -0.00000000000E+00 -0.25786791406E+03  0.25786791406E+03  0.00000000000E+00 0.  1.
         23    2    1    2    0    0 -0.44355483748E+03  0.20513495063E+03  0.67861433168E+03  0.84252985442E+03  0.10255682630E+03 0.  0.
    5000000    2    1    2    0    0  0.44355483748E+03 -0.20513495063E+03  0.67566607669E+03  0.10274863821E+04  0.60031856235E+03 0.  0.
         23    2    4    4    0    0  0.33235015650E+03  0.18097667509E+02  0.51276625336E+02  0.34898123155E+03  0.91512051541E+02 0.  0.
         23    2    4    4    0    0  0.11120468098E+03 -0.22323261814E+03  0.62438945135E+03  0.67850515050E+03  0.91146966079E+02 0.  0.
          2    1    3    3  502    0 -0.13072613656E+03  0.77859341205E+02  0.29133719844E+03  0.32867729308E+03  0.00000000000E+00 0. -1.
         -2    1    3    3    0  502 -0.31282870092E+03  0.12727560942E+03  0.38727713324E+03  0.51385256135E+03  0.00000000000E+00 0.  1.
         11    1    5    5    0    0  0.14450592462E+03 -0.27668837570E+02  0.50761361078E+02  0.15564139103E+03  0.00000000000E+00 0. -1.
        -11    1    5    5    0    0  0.18784423188E+03  0.45766505079E+02  0.51526425782E+00  0.19333984052E+03  0.00000000000E+00 0.  1.
          2    1    6    6  503    0  0.79300496498E+02 -0.21742725963E+03  0.56983079946E+03  0.61503684604E+03  0.00000000000E+00 0.  1.
         -2    1    6    6    0  503  0.31904184483E+02 -0.58053585107E+01  0.54558651890E+02  0.63468304460E+02  0.00000000000E+00 0. -1.
<mgrwt>
<rscale>  0 0.54711012E+03</rscale>
<asrwt>0</asrwt>
<pdfrwt beam="1">  1        2 0.24802281E+00 0.54711012E+03</pdfrwt>
<pdfrwt beam="2">  1       -2 0.39671988E-01 0.54711012E+03</pdfrwt>
<totfact> 0.69084702E+01</totfact>
</mgrwt>
</event>
<event>
12    1  0.1338445E-007  0.1229440E+04  0.7818608E-02  0.9087471E-01
          2   -1    0    0  501    0  0.00000000000E+00  0.00000000000E+00  0.17146698696E+04  0.17146698696E+04  0.00000000000E+00 0. -1.
         -2   -1    0    0    0  501 -0.00000000000E+00 -0.00000000000E+00 -0.92152309326E+03  0.92152309326E+03  0.00000000000E+00 0.  1.
         23    2    1    2    0    0 -0.15946096536E+03 -0.11547608433E+04  0.59022253396E+03  0.13095223219E+04  0.87095735442E+02 0.  0.
    5000000    2    1    2    0    0  0.15946096536E+03  0.11547608433E+04  0.20292424235E+03  0.13266706410E+04  0.59998028031E+03 0.  0.
         23    2    4    4    0    0  0.61391382419E+02 -0.24705451430E+02  0.67327130448E+02  0.13187659548E+03  0.92082749615E+02 0.  0.
         23    2    4    4    0    0  0.98069582946E+02  0.11794662947E+04  0.13559711191E+03  0.11947940455E+04  0.91585210802E+02 0.  0.
          4    1    3    3  502    0 -0.69822291246E+02 -0.75931746613E+03  0.41058486172E+03  0.86603585110E+03  0.00000000000E+00 0. -1.
         -4    1    3    3    0  502 -0.89638674119E+02 -0.39544337719E+03  0.17963767225E+03  0.44348647077E+03  0.00000000000E+00 0.  1.
         13    1    5    5    0    0  0.48281208427E+02 -0.55666927906E+02  0.24984310606E+02  0.77808082653E+02  0.00000000000E+00 0. -1.
        -13    1    5    5    0    0  0.13110173992E+02  0.30961476476E+02  0.42342819842E+02  0.54068512832E+02  0.00000000000E+00 0.  1.
          2    1    6    6  503    0  0.48737809582E+02  0.53075701117E+03  0.15471895327E+02  0.53321455207E+03  0.00000000000E+00 0. -1.
         -2    1    6    6    0  503  0.49331773363E+02  0.64870928358E+03  0.12012521658E+03  0.66157949342E+03  0.00000000000E+00 0.  1.
<mgrwt>
<rscale>  0 0.12294397E+04</rscale>
<asrwt>0</asrwt>
<pdfrwt beam="1">  1        2 0.26379536E+00 0.12294397E+04</pdfrwt>
<pdfrwt beam="2">  1       -2 0.14177278E+00 0.12294397E+04</pdfrwt>
<totfact> 0.32448106E+00</totfact>
</mgrwt>
</event>
<event>
12    1  0.1338445E-007  0.7511843E+03  0.7818608E-02  0.9633494E-01
         -1   -1    0    0    0  501 -0.00000000000E+00  0.00000000000E+00  0.47000979273E+03  0.47000979273E+03  0.00000000000E+00 0.  1.
          1   -1    0    0  501    0  0.00000000000E+00 -0.00000000000E+00 -0.12776629192E+04  0.12776629192E+04  0.00000000000E+00 0. -1.
         23    2    1    2    0    0 -0.28833513270E+03  0.57841801007E+03 -0.46606519807E+03  0.80192422558E+03  0.90339092330E+02 0.  0.
    5000000    2    1    2    0    0  0.28833513270E+03 -0.57841801007E+03 -0.34158792842E+03  0.94574848636E+03  0.60004445127E+03 0.  0.
         23    2    4    4    0    0  0.15226772907E+03 -0.66974327018E+03 -0.25858450840E+03  0.73990662671E+03  0.94097603586E+02 0.  0.
         23    2    4    4    0    0  0.13606740363E+03  0.91325260117E+02 -0.83003420021E+02  0.20584185965E+03  0.92879825488E+02 0.  0.
          4    1    3    3  502    0 -0.14090358697E+03  0.24065431193E+03 -0.25118898033E+03  0.37531882781E+03  0.00000000000E+00 0.  1.
         -4    1    3    3    0  502 -0.14743154574E+03  0.33776369814E+03 -0.21487621774E+03  0.42660539777E+03  0.00000000000E+00 0. -1.
         11    1    5    5    0    0  0.25292453519E+02 -0.18615576197E+03 -0.11270432315E+03  0.21907975803E+03  0.00000000000E+00 0.  1.
        -11    1    5    5    0    0  0.12697527555E+03 -0.48358750821E+03 -0.14588018525E+03  0.52082686869E+03  0.00000000000E+00 0. -1.
          1    1    6    6  503    0  0.21098824183E+02  0.30390321355E+02  0.17980465461E+02  0.41134281957E+02  0.00000000000E+00 0. -1.
         -1    1    6    6    0  503  0.11496857945E+03  0.60934938762E+02 -0.10098388548E+03  0.16470757769E+03  0.00000000000E+00 0.  1.
<mgrwt>
<rscale>  0 0.75118427E+03</rscale>
<asrwt>0</asrwt>
<pdfrwt beam="1">  1        1 0.19656352E+00 0.75118427E+03</pdfrwt>
<pdfrwt beam="2">  1       -1 0.72309201E-01 0.75118427E+03</pdfrwt>
<totfact> 0.18691738E+01</totfact>
</mgrwt>
</event>
<event>
12    1  0.1338445E-007  0.1071721E+04  0.7818608E-02  0.9233202E-01
          1   -1    0    0  501    0  0.00000000000E+00  0.00000000000E+00  0.22384959725E+04  0.22384959725E+04  0.00000000000E+00 0. -1.
         -1   -1    0    0    0  501 -0.00000000000E+00 -0.00000000000E+00 -0.68322240845E+03  0.68322240845E+03  0.00000000000E+00 0.  1.
         23    2    1    2    0    0 -0.92166782793E+03  0.48796921273E+03  0.13384435838E+04  0.16991833576E+04  0.90594249730E+02 0.  0.
    5000000    2    1    2    0    0  0.92166782793E+03 -0.48796921273E+03  0.21682998018E+03  0.12225350233E+04  0.59999258768E+03 0.  0.
         23    2    4    4    0    0  0.19203871076E+03 -0.25383201952E+03 -0.15516757790E+03  0.36591577728E+03  0.92237835351E+02 0.  0.
         23    2    4    4    0    0  0.72962911718E+03 -0.23413719321E+03  0.37199755808E+03  0.85661924602E+03  0.90749520961E+02 0.  0.
          2    1    3    3  502    0 -0.20512476419E+03  0.69554151634E+02  0.29741770571E+03  0.36792830900E+03  0.00000000000E+00 0. -1.
         -2    1    3    3    0  502 -0.71654306374E+03  0.41841506110E+03  0.10410258781E+04  0.13312550486E+04  0.00000000000E+00 0.  1.
         13    1    5    5    0    0  0.11770795542E+03 -0.98608651534E+02 -0.10713993474E+03  0.18723726804E+03  0.00000000000E+00 0. -1.
        -13    1    5    5    0    0  0.74330755335E+02 -0.15522336798E+03 -0.48027643159E+02  0.17867850924E+03  0.00000000000E+00 0.  1.
          1    1    6    6  503    0  0.23147763363E+03 -0.11842413295E+03  0.11608236375E+03  0.28474775734E+03  0.00000000000E+00 0. -1.
         -1    1    6    6    0  503  0.49815148355E+03 -0.11571306026E+03  0.25591519433E+03  0.57187148868E+03  0.00000000000E+00 0.  1.
<mgrwt>
<rscale>  0 0.10717206E+04</rscale>
<asrwt>0</asrwt>
<pdfrwt beam="1">  1        1 0.34438399E+00 0.10717206E+04</pdfrwt>
<pdfrwt beam="2">  1       -1 0.10511114E+00 0.10717206E+04</pdfrwt>
<totfact> 0.17484862E+00</totfact>
</mgrwt>
</event>
<event>
12    1  0.1338445E-007  0.9710409E+03  0.7818608E-02  0.9340890E-01
         -1   -1    0    0    0  501 -0.00000000000E+00  0.00000000000E+00  0.22831744392E+04  0.22831744392E+04  0.00000000000E+00 0.  1.
          1   -1    0    0  501    0  0.00000000000E+00 -0.00000000000E+00 -0.56298023854E+03  0.56298023854E+03  0.00000000000E+00 0. -1.
         23    2    1    2    0    0  0.60329464068E+03  0.74050653181E+03  0.13556940131E+04  0.16607022326E+04  0.87814015020E+02 0.  0.
    5000000    2    1    2    0    0 -0.60329464068E+03 -0.74050653181E+03  0.36450018755E+03  0.11854524451E+04  0.60010229601E+03 0.  0.
         23    2    4    4    0    0 -0.26648073681E+03 -0.19394187888E+03 -0.13578785864E+03  0.36669238519E+03  0.86020505278E+02 0.  0.
         23    2    4    4    0    0 -0.33681390387E+03 -0.54656465293E+03  0.50028804619E+03  0.81876005988E+03  0.88900960752E+02 0.  0.
          2    1    3    3  502    0  0.20670527150E+03  0.19072613481E+03  0.40364908172E+03  0.49197165461E+03  0.00000000000E+00 0. -1.
         -2    1    3    3    0  502  0.39658936917E+03  0.54978039700E+03  0.95204493136E+03  0.11687305780E+04  0.00000000000E+00 0.  1.
         13    1    5    5    0    0 -0.21402902918E+03 -0.18437026849E+03 -0.90198010891E+02  0.29654089500E+03  0.00000000000E+00 0.  1.
        -13    1    5    5    0    0 -0.52451707627E+02 -0.95716103874E+01 -0.45589847753E+02  0.70151490195E+02  0.00000000000E+00 0. -1.
          4    1    6    6  503    0 -0.16604862747E+03 -0.34549586585E+03  0.27374232868E+03  0.47103545781E+03  0.00000000000E+00 0. -1.
         -4    1    6    6    0  503 -0.17076527640E+03 -0.20106878708E+03  0.22654571751E+03  0.34772460207E+03  0.00000000000E+00 0.  1.
<mgrwt>
<rscale>  0 0.97104090E+03</rscale>
<asrwt>0</asrwt>
<pdfrwt beam="1">  1        1 0.86612346E-01 0.97104090E+03</pdfrwt>
<pdfrwt beam="2">  1       -1 0.35125760E+00 0.97104090E+03</pdfrwt>
<totfact> 0.58651681E-01</totfact>
</mgrwt>
</event>
<event>
12    1  0.1338445E-007  0.1090362E+04  0.7818608E-02  0.9214637E-01
          1   -1    0    0  501    0  0.00000000000E+00  0.00000000000E+00  0.94975683899E+03  0.94975683899E+03  0.00000000000E+00 0. -1.
         -1   -1    0    0    0  501 -0.00000000000E+00 -0.00000000000E+00 -0.17853538468E+04  0.17853538468E+04  0.00000000000E+00 0.  1.
         23    2    1    2    0    0 -0.95863871037E+03 -0.36568555814E+03  0.31907224355E+03  0.10779401526E+04  0.86219322890E+02 0.  0.
    5000000    2    1    2    0    0  0.95863871037E+03  0.36568555814E+03 -0.11546692514E+04  0.16571705331E+04  0.60019912649E+03 0.  0.
         23    2    4    4    0    0  0.99277284972E+03  0.35100615540E+03 -0.11462198911E+04  0.15591901434E+04  0.91927211728E+02 0.  0.
         23    2    4    4    0    0 -0.34134139352E+02  0.14679402739E+02 -0.84493602438E+01  0.97980389733E+02  0.90267052403E+02 0.  0.
          2    1    3    3  502    0 -0.58457253157E+03 -0.25413892559E+03  0.22923168952E+03  0.67739117624E+03  0.00000000000E+00 0. -1.
         -2    1    3    3    0  502 -0.37406617880E+03 -0.11154663255E+03  0.89840554023E+02  0.40054897641E+03  0.00000000000E+00 0.  1.
         11    1    5    5    0    0  0.15137282167E+03  0.83574361402E+02 -0.16094808307E+03  0.23622593098E+03  0.00000000000E+00 0.  1.
        -11    1    5    5    0    0  0.84140002805E+03  0.26743179399E+03 -0.98527180805E+03  0.13229642124E+04  0.00000000000E+00 0. -1.
          3    1    6    6  503    0 -0.23358510957E+02 -0.37338721163E+02 -0.85104357531E+01  0.44857860503E+02  0.00000000000E+00 0. -1.
         -3    1    6    6    0  503 -0.10775628395E+02  0.52018123902E+02  0.61075509257E-01  0.53122529230E+02  0.00000000000E+00 0.  1.
<mgrwt>
<rscale>  0 0.10903624E+04</rscale>
<asrwt>0</asrwt>
<pdfrwt beam="1">  1        1 0.14611644E+00 0.10903624E+04</pdfrwt>
<pdfrwt beam="2">  1       -1 0.27466982E+00 0.10903624E+04</pdfrwt>
<totfact> 0.79742402E-01</totfact>
</mgrwt>
</event>
<event>
12    1  0.1338445E-007  0.8201731E+03  0.7818608E-02  0.9531268E-01
         -2   -1    0    0    0  501 -0.00000000000E+00  0.00000000000E+00  0.13265027020E+04  0.13265027020E+04  0.00000000000E+00 0.  1.
          2   -1    0    0  501    0  0.00000000000E+00 -0.00000000000E+00 -0.54159983460E+03  0.54159983460E+03  0.00000000000E+00 0. -1.
         23    2    1    2    0    0  0.32781644794E+03 -0.65913893852E+03  0.28034261277E+03  0.79308246618E+03  0.91978550808E+02 0.  0.
    5000000    2    1    2    0    0 -0.32781644794E+03  0.65913893852E+03  0.50456025460E+03  0.10750200704E+04  0.59929903836E+03 0.  0.
         23    2    4    4    0    0 -0.33208477312E+03  0.73664854367E+03  0.49687046073E+03  0.95286255501E+03  0.90196566229E+02 0.  0.
         23    2    4    4    0    0  0.42683251714E+01 -0.77509605143E+02  0.76897938689E+01  0.12215751538E+03  0.94007277082E+02 0.  0.
          1    1    3    3  502    0  0.25065088734E+03 -0.40907189182E+03  0.16854648224E+03  0.50850132416E+03  0.00000000000E+00 0. -1.
         -1    1    3    3    0  502  0.77165560608E+02 -0.25006704671E+03  0.11179613053E+03  0.28458114202E+03  0.00000000000E+00 0.  1.
         11    1    5    5    0    0 -0.32754581299E+03  0.68557852075E+03  0.44809052297E+03  0.88209369372E+03  0.00000000000E+00 0.  1.
        -11    1    5    5    0    0 -0.45389601262E+01  0.51070022918E+02  0.48779937763E+02  0.70768861288E+02  0.00000000000E+00 0. -1.
          4    1    6    6  503    0  0.17755616995E+02 -0.13257776774E+02 -0.36725371332E+02  0.42892697273E+02  0.00000000000E+00 0.  1.
         -4    1    6    6    0  503 -0.13487291823E+02 -0.64251828368E+02  0.44415165201E+02  0.79264818105E+02  0.00000000000E+00 0. -1.
<mgrwt>
<rscale>  0 0.82017306E+03</rscale>
<asrwt>0</asrwt>
<pdfrwt beam="1">  1        2 0.83323052E-01 0.82017306E+03</pdfrwt>
<pdfrwt beam="2">  1       -2 0.20407734E+00 0.82017306E+03</pdfrwt>
<totfact> 0.70996954E+00</totfact>
</mgrwt>
</event>
<event>
12    1  0.1338445E-007  0.1183651E+04  0.7818608E-02  0.9127288E-01
          2   -1    0    0  501    0  0.00000000000E+00  0.00000000000E+00  0.28409422005E+04  0.28409422005E+04  0.00000000000E+00 0.  1.
         -2   -1    0    0    0  501 -0.00000000000E+00 -0.00000000000E+00 -0.72249232978E+03  0.72249232978E+03  0.00000000000E+00 0. -1.
         23    2    1    2    0    0 -0.90234655774E+03  0.70995326035E+03  0.19393745660E+04  0.22556649676E+04  0.92670366109E+02 0.  0.
    5000000    2    1    2    0    0  0.90234655774E+03 -0.70995326035E+03  0.17907530477E+03  0.13077695627E+04  0.59994193240E+03 0.  0.
         23    2    4    4    0    0  0.21349878021E+03 -0.41522972390E+03 -0.12843174764E+03  0.49263220500E+03  0.90522499085E+02 0.  0.
         23    2    4    4    0    0  0.68884777752E+03 -0.29472353645E+03  0.30750705241E+03  0.81513735771E+03  0.92277305556E+02 0.  0.
          1    1    3    3  502    0 -0.54914659314E+03  0.44088827903E+03  0.12753932349E+04  0.14569050617E+04  0.00000000000E+00 0. -1.
         -1    1    3    3    0  502 -0.35319996460E+03  0.26906498132E+03  0.66398133110E+03  0.79875990586E+03  0.00000000000E+00 0.  1.
         11    1    5    5    0    0  0.11447346065E+03 -0.25975109451E+03 -0.35110134880E+02  0.28602014940E+03  0.00000000000E+00 0.  1.
        -11    1    5    5    0    0  0.99025319565E+02 -0.15547862939E+03 -0.93321612758E+02  0.20661205560E+03  0.00000000000E+00 0. -1.
          1    1    6    6  503    0  0.47561921172E+03 -0.22797283056E+03  0.25390239116E+03  0.58536456185E+03  0.00000000000E+00 0. -1.
         -1    1    6    6    0  503  0.21322856581E+03 -0.66750705890E+02  0.53604661247E+02  0.22977279587E+03  0.00000000000E+00 0.  1.
<mgrwt>
<rscale>  0 0.11836513E+04</rscale>
<asrwt>0</asrwt>
<pdfrwt beam="1">  1        2 0.43706802E+00 0.11836513E+04</pdfrwt>
<pdfrwt beam="2">  1       -2 0.11115267E+00 0.11836513E+04</pdfrwt>
<totfact> 0.13829205E+00</totfact>
</mgrwt>
</event>
<event>
12    1  0.1338445E-007  0.4261192E+03  0.7818608E-02  0.1035093E+00
         -1   -1    0    0    0  501 -0.00000000000E+00  0.00000000000E+00  0.25128635865E+03  0.25128635865E+03  0.00000000000E+00 0.  1.
          1   -1    0    0  501    0  0.00000000000E+00 -0.00000000000E+00 -0.13038286198E+04  0.13038286198E+04  0.00000000000E+00 0. -1.
         23    2    1    2    0    0 -0.10145618229E+03 -0.38480248184E+03 -0.51102191532E+03  0.65423045524E+03  0.92237647836E+02 0.  0.
    5000000    2    1    2    0    0  0.10145618229E+03  0.38480248184E+03 -0.54152034588E+03  0.90088452324E+03  0.59998527671E+03 0.  0.
         23    2    4    4    0    0 -0.78358873205E+01  0.73019029782E+02  0.11359591161E+03  0.16201450696E+03  0.89171124753E+02 0.  0.
         23    2    4    4    0    0  0.10929206961E+03  0.31178345206E+03 -0.65511625748E+03  0.73887001629E+03  0.87166006518E+02 0.  0.
          4    1    3    3  502    0 -0.92058858731E+02 -0.20904817686E+03 -0.33368377365E+03  0.40437709445E+03  0.00000000000E+00 0. -1.
         -4    1    3    3    0  502 -0.93973235591E+01 -0.17575430498E+03 -0.17733814167E+03  0.24985336080E+03  0.00000000000E+00 0.  1.
         13    1    5    5    0    0  0.15867592944E+01  0.88263245839E+02  0.63316086063E+02  0.10863629746E+03  0.00000000000E+00 0. -1.
        -13    1    5    5    0    0 -0.94226466149E+01 -0.15244216056E+02  0.50279825544E+02  0.53378209498E+02  0.00000000000E+00 0.  1.
          1    1    6    6  503    0  0.50434838704E+02  0.42442751488E+02 -0.13263705540E+03  0.14811363399E+03  0.00000000000E+00 0. -1.
         -1    1    6    6    0  503  0.58857230906E+02  0.26934070057E+03 -0.52247920209E+03  0.59075638230E+03  0.00000000000E+00 0.  1.
<mgrwt>
<rscale>  0 0.42611919E+03</rscale>
<asrwt>0</asrwt>
<pdfrwt beam="1">  1        1 0.20058902E+00 0.42611919E+03</pdfrwt>
<pdfrwt beam="2">  1       -1 0.38659440E-01 0.42611919E+03</pdfrwt>
<totfact> 0.62337079E+01</totfact>
</mgrwt>
</event>
<event>
12    1  0.1338445E-007  0.3612572E+03  0.7818608E-02  0.1058087E+00
         -2   -1    0    0    0  501 -0.00000000000E+00  0.00000000000E+00  0.15317191149E+03  0.15317191149E+03  0.00000000000E+00 0.  1.
          2   -1    0    0  501    0  0.00000000000E+00 -0.00000000000E+00 -0.11028418766E+04  0.11028418766E+04  0.00000000000E+00 0. -1.
         23    2    1    2    0    0 -0.15736677548E+03 -0.32330210590E+02 -0.32222058385E+03  0.37310471919E+03  0.97833952611E+02 0.  0.
    5000000    2    1    2    0    0  0.15736677548E+03  0.32330210590E+02 -0.62744938123E+03  0.88290906886E+03  0.60002179405E+03 0.  0.
         23    2    4    4    0    0 -0.18105577086E+03 -0.46180443403E+02 -0.42120024353E+03  0.46984273226E+03  0.91808073651E+02 0.  0.
         23    2    4    4    0    0  0.33842254634E+03  0.78510653993E+02 -0.20624913769E+03  0.41306633660E+03  0.85972954896E+02 0.  0.
          4    1    3    3  502    0 -0.26812402509E+02 -0.33243720772E+02 -0.15600255989E+03  0.16174315624E+03  0.00000000000E+00 0. -1.
         -4    1    3    3    0  502 -0.13055437297E+03  0.91351018164E+00 -0.16621802396E+03  0.21136156295E+03  0.00000000000E+00 0.  1.
         13    1    5    5    0    0 -0.12548614096E+03 -0.11016369765E+02 -0.35432730814E+03  0.37605315218E+03  0.00000000000E+00 0.  1.
        -13    1    5    5    0    0 -0.55569629898E+02 -0.35164073638E+02 -0.66872935400E+02  0.93789580075E+02  0.00000000000E+00 0. -1.
          2    1    6    6  503    0  0.18907816573E+03  0.61319446093E+00 -0.11845721445E+03  0.22312113395E+03  0.00000000000E+00 0. -1.
         -2    1    6    6    0  503  0.14934438062E+03  0.77897459532E+02 -0.87791923245E+02  0.18994520265E+03  0.00000000000E+00 0.  1.
<mgrwt>
<rscale>  0 0.36125724E+03</rscale>
<asrwt>0</asrwt>
<pdfrwt beam="1">  1        2 0.16966798E+00 0.36125724E+03</pdfrwt>
<pdfrwt beam="2">  1       -2 0.23564909E-01 0.36125724E+03</pdfrwt>
<totfact> 0.35818479E+02</totfact>
</mgrwt>
</event>
<event>
12    1  0.1338445E-007  0.1431094E+04  0.7818608E-02  0.8931614E-01
         -2   -1    0    0    0  501 -0.00000000000E+00  0.00000000000E+00  0.72167231699E+03  0.72167231699E+03  0.00000000000E+00 0.  1.
          2   -1    0    0  501    0  0.00000000000E+00 -0.00000000000E+00 -0.32168119796E+04  0.32168119796E+04  0.00000000000E+00 0. -1.
         23    2    1    2    0    0  0.13656688579E+04  0.26731431363E+03 -0.61625549650E+03  0.15246332455E+04  0.90704600840E+02 0.  0.
    5000000    2    1    2    0    0 -0.13656688579E+04 -0.26731431363E+03 -0.18788841661E+04  0.24138510511E+04  0.59996901217E+03 0.  0.
         23    2    4    4    0    0 -0.69481939114E+03 -0.36950356800E+03 -0.73580624609E+03  0.10813272804E+04  0.92471522843E+02 0.  0.
         23    2    4    4    0    0 -0.67084946676E+03  0.10218925437E+03 -0.11430779200E+04  0.13325237707E+04  0.92254091688E+02 0.  0.
          3    1    3    3  502    0  0.10642305905E+04  0.21623244731E+03 -0.52038091733E+03  0.12042173891E+04  0.00000000000E+00 0. -1.
         -3    1    3    3    0  502  0.30143826741E+03  0.51081866325E+02 -0.95874579174E+02  0.32041585644E+03  0.00000000000E+00 0.  1.
         13    1    5    5    0    0 -0.60428459729E+03 -0.35303380230E+03 -0.66229019738E+03  0.96354607863E+03  0.00000000000E+00 0. -1.
        -13    1    5    5    0    0 -0.90534793847E+02 -0.16469765702E+02 -0.73516048715E+02  0.11778120180E+03  0.00000000000E+00 0.  1.
          4    1    6    6  503    0 -0.12205163360E+03  0.16834762701E+02 -0.28366611713E+03  0.30926764542E+03  0.00000000000E+00 0. -1.
         -4    1    6    6    0  503 -0.54879783315E+03  0.85354491666E+02 -0.85941180292E+03  0.10232561253E+04  0.00000000000E+00 0.  1.
<mgrwt>
<rscale>  0 0.14310935E+04</rscale>
<asrwt>0</asrwt>
<pdfrwt beam="1">  1        2 0.49489414E+00 0.14310935E+04</pdfrwt>
<pdfrwt beam="2">  1       -2 0.11102651E+00 0.14310935E+04</pdfrwt>
<totfact> 0.78294104E-01</totfact>
</mgrwt>
</event>
<event>
12    1  0.1338445E-007  0.5409087E+03  0.7818608E-02  0.1003620E+00
          2   -1    0    0  501    0  0.00000000000E+00  0.00000000000E+00  0.11546394945E+04  0.11546394945E+04  0.00000000000E+00 0.  1.
         -2   -1    0    0    0  501 -0.00000000000E+00 -0.00000000000E+00 -0.39488856398E+03  0.39488856398E+03  0.00000000000E+00 0. -1.
         23    2    1    2    0    0  0.28096400112E+03  0.39241238129E+03  0.35628005495E+02  0.49251202601E+03  0.91490404246E+02 0.  0.
    5000000    2    1    2    0    0 -0.28096400112E+03 -0.39241238129E+03  0.72412292498E+03  0.10570160324E+04  0.60000052953E+03 0.  0.
         23    2    4    4    0    0 -0.32749863398E+03 -0.19968493731E+03  0.11574723313E+03  0.41103250770E+03  0.91765303676E+02 0.  0.
         23    2    4    4    0    0  0.46534632858E+02 -0.19272744398E+03  0.60837569185E+03  0.64598352474E+03  0.88681407780E+02 0.  0.
          2    1    3    3  502    0  0.81861802836E+02  0.17504683892E+03  0.41650436768E+02  0.19768032138E+03  0.00000000000E+00 0. -1.
         -2    1    3    3    0  502  0.19910219829E+03  0.21736554237E+03 -0.60224312729E+01  0.29483170462E+03  0.00000000000E+00 0.  1.
         11    1    5    5    0    0 -0.27051337246E+03 -0.15591129782E+03  0.12924213785E+03  0.33791914368E+03  0.00000000000E+00 0.  1.
        -11    1    5    5    0    0 -0.56985261516E+02 -0.43773639493E+02 -0.13494904720E+02  0.73113364017E+02  0.00000000000E+00 0. -1.
          1    1    6    6  503    0  0.43222539814E+02 -0.46614718358E+02  0.27021091206E+03  0.27758792645E+03  0.00000000000E+00 0. -1.
         -1    1    6    6    0  503  0.33120930440E+01 -0.14611272562E+03  0.33816477979E+03  0.36839559829E+03  0.00000000000E+00 0.  1.
<mgrwt>
<rscale>  0 0.54090866E+03</rscale>
<asrwt>0</asrwt>
<pdfrwt beam="1">  1        2 0.17763684E+00 0.54090866E+03</pdfrwt>
<pdfrwt beam="2">  1       -2 0.60752087E-01 0.54090866E+03</pdfrwt>
<totfact> 0.52930366E+01</totfact>
</mgrwt>
</event>
<event>
12    1  0.1338445E-007  0.9954841E+03  0.7818608E-02  0.9313512E-01
          1   -1    0    0  501    0  0.00000000000E+00  0.00000000000E+00  0.19313991987E+04  0.19313991987E+04  0.00000000000E+00 0. -1.
         -1   -1    0    0    0  501 -0.00000000000E+00 -0.00000000000E+00 -0.59682910734E+03  0.59682910734E+03  0.00000000000E+00 0.  1.
         23    2    1    2    0    0  0.84717325058E+03 -0.50643404617E+03  0.65603711876E+03  0.11886081648E+04  0.90701205366E+02 0.  0.
    5000000    2    1    2    0    0 -0.84717325058E+03  0.50643404617E+03  0.67853297257E+03  0.13396201412E+04  0.59999764021E+03 0.  0.
         23    2    4    4    0    0 -0.33409692227E+03  0.26708894749E+03 -0.17948504641E+02  0.43788844866E+03  0.92015679716E+02 0.  0.
         23    2    4    4    0    0 -0.51307632831E+03  0.23934509868E+03  0.69648147721E+03  0.90173169255E+03  0.86603708406E+02 0.  0.
          1    1    3    3  502    0  0.36995096628E+03 -0.23795162078E+03  0.24128950424E+03  0.50170241791E+03  0.00000000000E+00 0.  1.
         -1    1    3    3    0  502  0.47722228430E+03 -0.26848242538E+03  0.41474761452E+03  0.68690574690E+03  0.00000000000E+00 0. -1.
         11    1    5    5    0    0  0.27621512524E+01  0.18399232578E+02 -0.34628102812E+01  0.18924911996E+02  0.00000000000E+00 0. -1.
        -11    1    5    5    0    0 -0.33685907352E+03  0.24868971491E+03 -0.14485694360E+02  0.41896353667E+03  0.00000000000E+00 0.  1.
          4    1    6    6  503    0 -0.71727545999E+02  0.30266486577E+02  0.14879609325E+03  0.16793206493E+03  0.00000000000E+00 0. -1.
         -4    1    6    6    0  503 -0.44134878231E+03  0.20907861210E+03  0.54768538396E+03  0.73379962761E+03  0.00000000000E+00 0.  1.
<mgrwt>
<rscale>  0 0.99548414E+03</rscale>
<asrwt>0</asrwt>
<pdfrwt beam="1">  1        1 0.29713833E+00 0.99548414E+03</pdfrwt>
<pdfrwt beam="2">  1       -1 0.91819864E-01 0.99548414E+03</pdfrwt>
<totfact> 0.38751192E+00</totfact>
</mgrwt>
</event>
<event>
12    1  0.1338445E-007  0.1401835E+04  0.7818608E-02  0.8952491E-01
          2   -1    0    0  501    0  0.00000000000E+00  0.00000000000E+00  0.87728520748E+03  0.87728520748E+03  0.00000000000E+00 0. -1.
         -2   -1    0    0    0  501 -0.00000000000E+00 -0.00000000000E+00 -0.28654803866E+04  0.28654803866E+04  0.00000000000E+00 0.  1.
         23    2    1    2    0    0 -0.71735197007E+03 -0.11564377814E+04 -0.17779126828E+04  0.22407122107E+04  0.88744082893E+02 0.  0.
    5000000    2    1    2    0    0  0.71735197007E+03  0.11564377814E+04 -0.21028249633E+03  0.15020533834E+04  0.60000287249E+03 0.  0.
         23    2    4    4    0    0  0.74831610247E+03  0.85532701705E+03 -0.34980087116E+02  0.11405966803E+04  0.90420602214E+02 0.  0.
         23    2    4    4    0    0 -0.30964132400E+02  0.30111076439E+03 -0.17530240921E+03  0.36145670309E+03  0.91068894842E+02 0.  0.
          2    1    3    3  502    0 -0.15681459436E+03 -0.31484143631E+03 -0.49373061454E+03  0.60620612563E+03  0.00000000000E+00 0.  1.
         -2    1    3    3    0  502 -0.56053737571E+03 -0.84159634512E+03 -0.12841820683E+04  0.16345060851E+04  0.00000000000E+00 0. -1.
         13    1    5    5    0    0  0.33039890559E+03  0.42196818630E+03  0.17967978852E+02  0.53623076686E+03  0.00000000000E+00 0.  1.
        -13    1    5    5    0    0  0.41791719688E+03  0.43335883075E+03 -0.52948065969E+02  0.60436591344E+03  0.00000000000E+00 0. -1.
          3    1    6    6  503    0 -0.80835698682E+01  0.11282167875E+03 -0.16957597672E+02  0.11437497723E+03  0.00000000000E+00 0. -1.
         -3    1    6    6    0  503 -0.22880562532E+02  0.18828908564E+03 -0.15834481154E+03  0.24708172586E+03  0.00000000000E+00 0.  1.
<mgrwt>
<rscale>  0 0.14018352E+04</rscale>
<asrwt>0</asrwt>
<pdfrwt beam="1">  1        2 0.13496695E+00 0.14018352E+04</pdfrwt>
<pdfrwt beam="2">  1       -2 0.44084314E+00 0.14018352E+04</pdfrwt>
<totfact> 0.11662822E-01</totfact>
</mgrwt>
</event>
<event>
12    1  0.1338445E-007  0.5500287E+03  0.7818608E-02  0.1001487E+00
         -2   -1    0    0    0  501 -0.00000000000E+00  0.00000000000E+00  0.55048869754E+03  0.55048869754E+03  0.00000000000E+00 0.  1.
          2   -1    0    0  501    0  0.00000000000E+00 -0.00000000000E+00 -0.16164791249E+04  0.16164791249E+04  0.00000000000E+00 0. -1.
         23    2    1    2    0    0  0.28154910414E+03  0.27411097963E+03  0.37908731450E+03  0.55368151228E+03  0.91920062124E+02 0.  0.
    5000000    2    1    2    0    0 -0.28154910414E+03 -0.27411097963E+03 -0.14450777419E+04  0.16132863102E+04  0.60003025870E+03 0.  0.
         23    2    4    4    0    0 -0.14822885630E+03  0.17075563512E+03 -0.48752398484E+03  0.54524911903E+03  0.92128634214E+02 0.  0.
         23    2    4    4    0    0 -0.13332024784E+03 -0.44486661475E+03 -0.95755375703E+03  0.10680371911E+04  0.90075805091E+02 0.  0.
          1    1    3    3  502    0  0.31532915761E+02  0.31119117219E+02  0.91763308003E+02  0.10189813015E+03  0.00000000000E+00 0. -1.
         -1    1    3    3    0  502  0.25001618838E+03  0.24299186241E+03  0.28732400650E+03  0.45178338212E+03  0.00000000000E+00 0.  1.
         13    1    5    5    0    0  0.36976447534E+01  0.45839452637E+02 -0.11789772323E+03  0.12654959952E+03  0.00000000000E+00 0.  1.
        -13    1    5    5    0    0 -0.15192650106E+03  0.12491618248E+03 -0.36962626161E+03  0.41869951951E+03  0.00000000000E+00 0. -1.
          2    1    6    6  503    0 -0.54844356023E+02 -0.17556274607E+03 -0.28339783967E+03  0.33785280334E+03  0.00000000000E+00 0. -1.
         -2    1    6    6    0  503 -0.78475891819E+02 -0.26930386869E+03 -0.67415591736E+03  0.73018438781E+03  0.00000000000E+00 0.  1.
<mgrwt>
<rscale>  0 0.55002868E+03</rscale>
<asrwt>0</asrwt>
<pdfrwt beam="1">  1        2 0.24868909E+00 0.55002868E+03</pdfrwt>
<pdfrwt beam="2">  1       -2 0.84690571E-01 0.55002868E+03</pdfrwt>
<totfact> 0.14049793E+01</totfact>
</mgrwt>
</event>
<event>
12    1  0.1338445E-007  0.2318143E+04  0.7818608E-02  0.8470802E-01
          2   -1    0    0  501    0  0.00000000000E+00  0.00000000000E+00  0.38764829781E+04  0.38764829781E+04  0.00000000000E+00 0. -1.
         -2   -1    0    0    0  501 -0.00000000000E+00 -0.00000000000E+00 -0.16654552377E+04  0.16654552377E+04  0.00000000000E+00 0.  1.
         23    2    1    2    0    0  0.11033546193E+04 -0.19973817220E+04  0.22165331382E+04  0.31825209261E+04  0.92169045996E+02 0.  0.
    5000000    2    1    2    0    0 -0.11033546193E+04  0.19973817220E+04 -0.55053978147E+01  0.23594172896E+04  0.59991205845E+03 0.  0.
         23    2    4    4    0    0 -0.58496289594E+03  0.50991566821E+03  0.82670983883E+01  0.78152346822E+03  0.92276801809E+02 0.  0.
         23    2    4    4    0    0 -0.51839172340E+03  0.14874660538E+04 -0.13772496203E+02  0.15778938214E+04  0.90961475226E+02 0.  0.
          2    1    3    3  502    0  0.56234059822E+03 -0.92347114916E+03  0.10419301103E+04  0.15015472908E+04  0.00000000000E+00 0. -1.
         -2    1    3    3    0  502  0.54101402112E+03 -0.10739105728E+04  0.11746030279E+04  0.16809736353E+04  0.00000000000E+00 0.  1.
         13    1    5    5    0    0 -0.30307398281E+03  0.25869791209E+03 -0.41694972777E+02  0.40064562837E+03  0.00000000000E+00 0.  1.
        -13    1    5    5    0    0 -0.28188891313E+03  0.25121775612E+03  0.49962071165E+02  0.38087783985E+03  0.00000000000E+00 0. -1.
          2    1    6    6  503    0 -0.11519181923E+03  0.41783928202E+03 -0.32493880892E+02  0.43464315606E+03  0.00000000000E+00 0. -1.
         -2    1    6    6    0  503 -0.40319990417E+03  0.10696267718E+04  0.18721384689E+02  0.11432506654E+04  0.00000000000E+00 0.  1.
<mgrwt>
<rscale>  0 0.23181426E+04</rscale>
<asrwt>0</asrwt>
<pdfrwt beam="1">  1        2 0.59638200E+00 0.23181426E+04</pdfrwt>
<pdfrwt beam="2">  1       -2 0.25622388E+00 0.23181426E+04</pdfrwt>
<totfact> 0.21683885E-02</totfact>
</mgrwt>
</event>
<event>
12    1  0.1338445E-007  0.5914021E+03  0.7818608E-02  0.9923406E-01
         -1   -1    0    0    0  501 -0.00000000000E+00  0.00000000000E+00  0.21131420353E+04  0.21131420353E+04  0.00000000000E+00 0.  1.
          1   -1    0    0  501    0  0.00000000000E+00 -0.00000000000E+00 -0.20764786175E+03  0.20764786175E+03  0.00000000000E+00 0. -1.
         23    2    1    2    0    0  0.48683819891E+03  0.15092952452E+03  0.56451703284E+03  0.76573854161E+03  0.88796849406E+02 0.  0.
    5000000    2    1    2    0    0 -0.48683819891E+03 -0.15092952452E+03  0.13409771407E+04  0.15550513554E+04  0.60014487655E+03 0.  0.
         23    2    4    4    0    0 -0.50057674449E+03  0.19326656435E+02  0.58342170575E+03  0.77317795100E+03  0.80452845792E+02 0.  0.
         23    2    4    4    0    0  0.13738545578E+02 -0.17025618096E+03  0.75755543494E+03  0.78187340442E+03  0.90883820054E+02 0.  0.
          3    1    3    3  502    0  0.10451097094E+03  0.44221438443E+02  0.77358789574E+02  0.13734067493E+03  0.00000000000E+00 0. -1.
         -3    1    3    3    0  502  0.38232722796E+03  0.10670808608E+03  0.48715824326E+03  0.62839786669E+03  0.00000000000E+00 0.  1.
         11    1    5    5    0    0 -0.31294642504E+03  0.57803468013E+01  0.42126007546E+03  0.52481323205E+03  0.00000000000E+00 0.  1.
        -11    1    5    5    0    0 -0.18763031945E+03  0.13546309633E+02  0.16216163029E+03  0.24836471895E+03  0.00000000000E+00 0. -1.
          4    1    6    6  503    0  0.15102499598E+01 -0.95745791902E+02  0.59476340803E+03  0.60242264985E+03  0.00000000000E+00 0. -1.
         -4    1    6    6    0  503  0.12228295619E+02 -0.74510389054E+02  0.16279202691E+03  0.17945075457E+03  0.00000000000E+00 0.  1.
<mgrwt>
<rscale>  0 0.59140208E+03</rscale>
<asrwt>0</asrwt>
<pdfrwt beam="1">  1        1 0.31945826E-01 0.59140208E+03</pdfrwt>
<pdfrwt beam="2">  1       -1 0.32509876E+00 0.59140208E+03</pdfrwt>
<totfact> 0.34647260E+00</totfact>
</mgrwt>
</event>
<event>
12    1  0.1338445E-007  0.7944302E+03  0.7818608E-02  0.9568114E-01
          1   -1    0    0  501    0  0.00000000000E+00  0.00000000000E+00  0.93920270621E+03  0.93920270621E+03  0.00000000000E+00 0. -1.
         -1   -1    0    0    0  501 -0.00000000000E+00 -0.00000000000E+00 -0.99288535904E+03  0.99288535904E+03  0.00000000000E+00 0.  1.
         23    2    1    2    0    0  0.67843732995E+03  0.37758891187E+03 -0.41695599259E+03  0.88574550719E+03  0.88556234665E+02 0.  0.
    5000000    2    1    2    0    0 -0.67843732995E+03 -0.37758891187E+03  0.36327333976E+03  0.10463425581E+04  0.60001219353E+03 0.  0.
         23    2    4    4    0    0 -0.15015427668E+03 -0.14584246531E+01 -0.13677112498E+03  0.22266342858E+03  0.91237207275E+02 0.  0.
         23    2    4    4    0    0 -0.52828305327E+03 -0.37613048722E+03  0.50004446475E+03  0.82367912948E+03  0.88576034155E+02 0.  0.
          3    1    3    3  502    0  0.51202562870E+03  0.26075974745E+03 -0.27002250862E+03  0.63488427725E+03  0.00000000000E+00 0. -1.
         -3    1    3    3    0  502  0.16641170125E+03  0.11682916443E+03 -0.14693348397E+03  0.25086122994E+03  0.00000000000E+00 0.  1.
         11    1    5    5    0    0 -0.48935128265E+02 -0.23922038864E+02 -0.45791476974E+01  0.54661497558E+02  0.00000000000E+00 0. -1.
        -11    1    5    5    0    0 -0.10121914841E+03  0.22463614211E+02 -0.13219197729E+03  0.16800193102E+03  0.00000000000E+00 0.  1.
          2    1    6    6  503    0 -0.26388369969E+03 -0.14224254236E+03  0.19980520346E+03  0.36026333029E+03  0.00000000000E+00 0. -1.
         -2    1    6    6    0  503 -0.26439935358E+03 -0.23388794486E+03  0.30023926128E+03  0.46341579919E+03  0.00000000000E+00 0.  1.
<mgrwt>
<rscale>  0 0.79443019E+03</rscale>
<asrwt>0</asrwt>
<pdfrwt beam="1">  1        1 0.14449272E+00 0.79443019E+03</pdfrwt>
<pdfrwt beam="2">  1       -1 0.15275159E+00 0.79443019E+03</pdfrwt>
<totfact> 0.57763981E+00</totfact>
</mgrwt>
</event>
<event>
12    1  0.1338445E-007  0.8974993E+03  0.7818608E-02  0.9428713E-01
         -1   -1    0    0    0  501 -0.00000000000E+00  0.00000000000E+00  0.20602477052E+04  0.20602477052E+04  0.00000000000E+00 0.  1.
          1   -1    0    0  501    0  0.00000000000E+00 -0.00000000000E+00 -0.48100756537E+03  0.48100756537E+03  0.00000000000E+00 0. -1.
         23    2    1    2    0    0  0.64503900960E+03 -0.55643940235E+03  0.33937833821E+03  0.92167782171E+03  0.92802037614E+02 0.  0.
    5000000    2    1    2    0    0 -0.64503900960E+03  0.55643940235E+03  0.12398618017E+04  0.16195774489E+04  0.60006140798E+03 0.  0.
         23    2    4    4    0    0 -0.53104016439E+03  0.20764973570E+03  0.41164574281E+03  0.70898548100E+03  0.89922887909E+02 0.  0.
         23    2    4    4    0    0 -0.11399884521E+03  0.34878966666E+03  0.82821605886E+03  0.91059196790E+03  0.92660258852E+02 0.  0.
          1    1    3    3  502    0  0.17391027643E+03 -0.20628773073E+03  0.10012033147E+03  0.28779071019E+03  0.00000000000E+00 0. -1.
         -1    1    3    3    0  502  0.47112873318E+03 -0.35015167162E+03  0.23925800674E+03  0.63388711152E+03  0.00000000000E+00 0.  1.
         13    1    5    5    0    0 -0.39619420000E+03  0.15680542927E+03  0.35327941924E+03  0.55350170264E+03  0.00000000000E+00 0.  1.
        -13    1    5    5    0    0 -0.13484596439E+03  0.50844306430E+02  0.58366323567E+02  0.15548377837E+03  0.00000000000E+00 0. -1.
          1    1    6    6  503    0 -0.33284869407E+02  0.14529899279E+03  0.44441409252E+03  0.46874680316E+03  0.00000000000E+00 0. -1.
         -1    1    6    6    0  503 -0.80713975806E+02  0.20349067386E+03  0.38380196634E+03  0.44184516474E+03  0.00000000000E+00 0.  1.
<mgrwt>
<rscale>  0 0.89749931E+03</rscale>
<asrwt>0</asrwt>
<pdfrwt beam="1">  1        1 0.74001165E-01 0.89749931E+03</pdfrwt>
<pdfrwt beam="2">  1       -1 0.31696118E+00 0.89749931E+03</pdfrwt>
<totfact> 0.12353858E+00</totfact>
</mgrwt>
</event>
<event>
12    1  0.1338445E-007  0.1073050E+04  0.7818608E-02  0.9231865E-01
         -1   -1    0    0    0  501 -0.00000000000E+00  0.00000000000E+00  0.89421318332E+03  0.89421318332E+03  0.00000000000E+00 0.  1.
          1   -1    0    0  501    0  0.00000000000E+00 -0.00000000000E+00 -0.14640793256E+04  0.14640793256E+04  0.00000000000E+00 0. -1.
         23    2    1    2    0    0 -0.47931416143E+03 -0.94061243218E+03 -0.13644139470E+03  0.10684446535E+04  0.91999513504E+02 0.  0.
    5000000    2    1    2    0    0  0.47931416143E+03  0.94061243218E+03 -0.43342474758E+03  0.12898478554E+04  0.60112949137E+03 0.  0.
         23    2    4    4    0    0  0.18268025896E+03  0.58420892690E+03 -0.52106754038E+03  0.80914754248E+03  0.92391647780E+02 0.  0.
         23    2    4    4    0    0  0.29663390248E+03  0.35640350528E+03  0.87642792803E+02  0.48070031294E+03  0.91522680551E+02 0.  0.
          2    1    3    3  502    0 -0.12969748824E+03 -0.28137317135E+03  0.20986133459E+00  0.30982631271E+03  0.00000000000E+00 0. -1.
         -2    1    3    3    0  502 -0.34961667320E+03 -0.65923926083E+03 -0.13665125604E+03  0.75861834079E+03  0.00000000000E+00 0.  1.
         13    1    5    5    0    0  0.12412288516E+03  0.24688132854E+03 -0.24605084385E+03  0.36999716047E+03  0.00000000000E+00 0. -1.
        -13    1    5    5    0    0  0.58557373797E+02  0.33732759837E+03 -0.27501669653E+03  0.43915038201E+03  0.00000000000E+00 0.  1.
          4    1    6    6  503    0  0.44821772143E+02  0.11118278060E+03  0.37811638613E+02  0.12569933164E+03  0.00000000000E+00 0. -1.
         -4    1    6    6    0  503  0.25181213034E+03  0.24522072468E+03  0.49831154189E+02  0.35500098130E+03  0.00000000000E+00 0.  1.
<mgrwt>
<rscale>  0 0.10730495E+04</rscale>
<asrwt>0</asrwt>
<pdfrwt beam="1">  1        1 0.22524297E+00 0.10730495E+04</pdfrwt>
<pdfrwt beam="2">  1       -1 0.13757126E+00 0.10730495E+04</pdfrwt>
<totfact> 0.30276436E+00</totfact>
</mgrwt>
</event>
<event>
12    1  0.1338445E-007  0.9870249E+03  0.7818608E-02  0.9322891E-01
         -1   -1    0    0    0  501 -0.00000000000E+00  0.00000000000E+00  0.54655199676E+03  0.54655199676E+03  0.00000000000E+00 0.  1.
          1   -1    0    0  501    0  0.00000000000E+00 -0.00000000000E+00 -0.20170007885E+04  0.20170007885E+04  0.00000000000E+00 0. -1.
         23    2    1    2    0    0 -0.53503919862E+03 -0.78877335322E+03 -0.83509563632E+03  0.12705171814E+04  0.91645183646E+02 0.  0.
    5000000    2    1    2    0    0  0.53503919862E+03  0.78877335322E+03 -0.63535315544E+03  0.12930356039E+04  0.59986422957E+03 0.  0.
         23    2    4    4    0    0 -0.23679032173E+02  0.20637316739E+03  0.47686948739E+02  0.23179020148E+03  0.91115704693E+02 0.  0.
         23    2    4    4    0    0  0.55871823080E+03  0.58240018583E+03 -0.68304010418E+03  0.10612454024E+04  0.91334452807E+02 0.  0.
          4    1    3    3  502    0 -0.32257535208E+03 -0.49023147663E+03 -0.45508977664E+03  0.74262269239E+03  0.00000000000E+00 0. -1.
         -4    1    3    3    0  502 -0.21246384654E+03 -0.29854187659E+03 -0.38000585967E+03  0.52789448903E+03  0.00000000000E+00 0.  1.
         11    1    5    5    0    0 -0.57068414772E+01  0.15156783148E+03 -0.76394815402E+01  0.15186749902E+03  0.00000000000E+00 0.  1.
        -11    1    5    5    0    0 -0.17972190696E+02  0.54805335908E+02  0.55326430279E+02  0.79922702468E+02  0.00000000000E+00 0. -1.
          2    1    6    6  503    0  0.42623219718E+03  0.38935479032E+03 -0.50683756596E+03  0.76821569688E+03  0.00000000000E+00 0. -1.
         -2    1    6    6    0  503  0.13248603361E+03  0.19304539551E+03 -0.17620253822E+03  0.29302970550E+03  0.00000000000E+00 0.  1.
<mgrwt>
<rscale>  0 0.98702492E+03</rscale>
<asrwt>0</asrwt>
<pdfrwt beam="1">  1        1 0.31030782E+00 0.98702492E+03</pdfrwt>
<pdfrwt beam="2">  1       -1 0.84084922E-01 0.98702492E+03</pdfrwt>
<totfact> 0.41213523E+00</totfact>
</mgrwt>
</event>
<event>
12    1  0.1338445E-007  0.8438589E+03  0.7818608E-02  0.9498617E-01
         -2   -1    0    0    0  501 -0.00000000000E+00  0.00000000000E+00  0.10041742112E+04  0.10041742112E+04  0.00000000000E+00 0.  1.
          2   -1    0    0  501    0  0.00000000000E+00 -0.00000000000E+00 -0.11151697929E+04  0.11151697929E+04  0.00000000000E+00 0. -1.
         23    2    1    2    0    0  0.62015041576E+03 -0.45720468884E+03 -0.64253456678E+03  0.10073579479E+04  0.91086223022E+02 0.  0.
    5000000    2    1    2    0    0 -0.62015041576E+03  0.45720468884E+03  0.53153898507E+03  0.11119860563E+04  0.60029711897E+03 0.  0.
         23    2    4    4    0    0 -0.17138051595E+03  0.41548559824E+03  0.76555110320E+02  0.46495141612E+03  0.91211681534E+02 0.  0.
         23    2    4    4    0    0 -0.44876989982E+03  0.41719090601E+02  0.45498387475E+03  0.64703464016E+03  0.92242039134E+02 0.  0.
          3    1    3    3  502    0  0.24015530740E+03 -0.22079659006E+03 -0.23482901495E+03  0.40195817209E+03  0.00000000000E+00 0. -1.
         -3    1    3    3    0  502  0.37999510837E+03 -0.23640809878E+03 -0.40770555183E+03  0.60539977580E+03  0.00000000000E+00 0.  1.
         13    1    5    5    0    0  0.35496776469E+01  0.40062485962E+02  0.25540995876E+02  0.47643944665E+02  0.00000000000E+00 0. -1.
        -13    1    5    5    0    0 -0.17493019359E+03  0.37542311227E+03  0.51014114444E+02  0.41730747146E+03  0.00000000000E+00 0.  1.
          1    1    6    6  503    0 -0.18188438995E+03  0.61349925330E+02  0.17542180217E+03  0.26003567702E+03  0.00000000000E+00 0. -1.
         -1    1    6    6    0  503 -0.26688550987E+03 -0.19630834728E+02  0.27956207257E+03  0.38699896314E+03  0.00000000000E+00 0.  1.
<mgrwt>
<rscale>  0 0.84385887E+03</rscale>
<asrwt>0</asrwt>
<pdfrwt beam="1">  1        2 0.17156458E+00 0.84385887E+03</pdfrwt>
<pdfrwt beam="2">  1       -2 0.15448834E+00 0.84385887E+03</pdfrwt>
<totfact> 0.59542769E+00</totfact>
</mgrwt>
</event>
<event>
12    1  0.1338445E-007  0.8780744E+03  0.7818608E-02  0.9453412E-01
         -3   -1    0    0    0  501 -0.00000000000E+00  0.00000000000E+00  0.11341545804E+04  0.11341545804E+04  0.00000000000E+00 0. -1.
          3   -1    0    0  501    0  0.00000000000E+00 -0.00000000000E+00 -0.85506572404E+03  0.85506572404E+03  0.00000000000E+00 0.  1.
         23    2    1    2    0    0  0.73728784830E+03  0.28299126395E+03  0.54282213585E+03  0.96293997598E+03  0.94446278109E+02 0.  0.
    5000000    2    1    2    0    0 -0.73728784830E+03 -0.28299126395E+03 -0.26373327946E+03  0.10262803285E+04  0.60001553581E+03 0.  0.
         23    2    4    4    0    0 -0.77061950882E+03 -0.37179124379E+03 -0.26971840169E+03  0.90163284289E+03  0.90058929731E+02 0.  0.
         23    2    4    4    0    0  0.33331660522E+02  0.88799979840E+02  0.59851222254E+01  0.12464748560E+03  0.80651955745E+02 0.  0.
          1    1    3    3  502    0  0.67154017877E+03  0.22663284681E+03  0.48533351871E+03  0.85899783663E+03  0.00000000000E+00 0. -1.
         -1    1    3    3    0  502  0.65747669530E+02  0.56358417147E+02  0.57488617145E+02  0.10394213935E+03  0.00000000000E+00 0.  1.
         13    1    5    5    0    0 -0.39085536402E+03 -0.21880437429E+03 -0.17839973941E+03  0.48215115557E+03  0.00000000000E+00 0.  1.
        -13    1    5    5    0    0 -0.37976414480E+03 -0.15298686951E+03 -0.91318662276E+02  0.41948168732E+03  0.00000000000E+00 0. -1.
          1    1    6    6  503    0  0.40507479755E+02  0.51801659037E+02 -0.30234512715E+02  0.72376747331E+02  0.00000000000E+00 0. -1.
         -1    1    6    6    0  503 -0.71758192322E+01  0.36998320803E+02  0.36219634941E+02  0.52270738268E+02  0.00000000000E+00 0.  1.
<mgrwt>
<rscale>  0 0.87807442E+03</rscale>
<asrwt>0</asrwt>
<pdfrwt beam="1">  1        3 0.13154857E+00 0.87807442E+03</pdfrwt>
<pdfrwt beam="2">  1       -3 0.17448532E+00 0.87807442E+03</pdfrwt>
<totfact> 0.24940360E-01</totfact>
</mgrwt>
</event>
<event>
12    1  0.1338445E-007  0.8821686E+03  0.7818608E-02  0.9448150E-01
          1   -1    0    0  501    0  0.00000000000E+00  0.00000000000E+00  0.22455947619E+04  0.22455947619E+04  0.00000000000E+00 0. -1.
         -1   -1    0    0    0  501 -0.00000000000E+00 -0.00000000000E+00 -0.36350140030E+03  0.36350140030E+03  0.00000000000E+00 0.  1.
         23    2    1    2    0    0 -0.13514503475E+03  0.78084640326E+03  0.10088346710E+04  0.12858468299E+04  0.87575056169E+02 0.  0.
    5000000    2    1    2    0    0  0.13514503475E+03 -0.78084640326E+03  0.87325869051E+03  0.13232493323E+04  0.60035220411E+03 0.  0.
         23    2    4    4    0    0 -0.19559894952E+03 -0.17345844378E+03  0.13800923038E+03  0.30975989939E+03  0.92508739201E+02 0.  0.
         23    2    4    4    0    0  0.33074398427E+03 -0.60738795948E+03  0.73524946012E+03  0.10134894329E+04  0.90869937547E+02 0.  0.
          1    1    3    3  502    0 -0.77154606332E+02  0.47796444631E+03  0.54664800422E+03  0.73022386001E+03  0.00000000000E+00 0. -1.
         -1    1    3    3    0  502 -0.57990428421E+02  0.30288195695E+03  0.46218666682E+03  0.55562296985E+03  0.00000000000E+00 0.  1.
         11    1    5    5    0    0 -0.56984590571E+02 -0.53310608063E+01  0.13533352604E+02  0.58811694454E+02  0.00000000000E+00 0. -1.
        -11    1    5    5    0    0 -0.13861435895E+03 -0.16812738297E+03  0.12447587778E+03  0.25094820494E+03  0.00000000000E+00 0.  1.
          3    1    6    6  503    0  0.30952529657E+03 -0.50663255302E+03  0.64398647141E+03  0.87590012465E+03  0.00000000000E+00 0. -1.
         -3    1    6    6    0  503  0.21218687702E+02 -0.10075540646E+03  0.91262988712E+02  0.13758930826E+03  0.00000000000E+00 0.  1.
<mgrwt>
<rscale>  0 0.88216857E+03</rscale>
<asrwt>0</asrwt>
<pdfrwt beam="1">  1        1 0.34547611E+00 0.88216857E+03</pdfrwt>
<pdfrwt beam="2">  1       -1 0.55923294E-01 0.88216857E+03</pdfrwt>
<totfact> 0.67605213E+00</totfact>
</mgrwt>
</event>
<event>
12    1  0.1338445E-007  0.9169325E+03  0.7818608E-02  0.9404659E-01
          1   -1    0    0  501    0  0.00000000000E+00  0.00000000000E+00  0.21345489582E+04  0.21345489582E+04  0.00000000000E+00 0. -1.
         -1   -1    0    0    0  501 -0.00000000000E+00 -0.00000000000E+00 -0.42493806272E+03  0.42493806272E+03  0.00000000000E+00 0.  1.
         23    2    1    2    0    0  0.67065918762E+02  0.83071520259E+03  0.51426395980E+03  0.98370081035E+03  0.92813138460E+02 0.  0.
    5000000    2    1    2    0    0 -0.67065918762E+02 -0.83071520259E+03  0.11953469357E+04  0.15757862106E+04  0.59971851690E+03 0.  0.
         23    2    4    4    0    0 -0.82678532709E+02 -0.89319283775E+03  0.11489236724E+04  0.14605401200E+04  0.92318210969E+02 0.  0.
         23    2    4    4    0    0  0.15612613947E+02  0.62477635162E+02  0.46423263267E+02  0.11524609052E+03  0.83542404788E+02 0.  0.
          3    1    3    3  502    0 -0.25019706472E+01  0.24480043633E+03  0.10953691958E+03  0.26820113765E+03  0.00000000000E+00 0. -1.
         -3    1    3    3    0  502  0.69567889410E+02  0.58591476625E+03  0.40472704022E+03  0.71549967270E+03  0.00000000000E+00 0.  1.
         11    1    5    5    0    0 -0.38965299400E+02 -0.71464192610E+03  0.87109033035E+03  0.11273995479E+04  0.00000000000E+00 0. -1.
        -11    1    5    5    0    0 -0.43713233309E+02 -0.17855091165E+03  0.27783334206E+03  0.33314057210E+03  0.00000000000E+00 0.  1.
          1    1    6    6  503    0  0.21599398270E+02 -0.12045249215E+02 -0.40223279326E+01  0.25055960494E+02  0.00000000000E+00 0. -1.
         -1    1    6    6    0  503 -0.59867843237E+01  0.74522884376E+02  0.50445591200E+02  0.90190130024E+02  0.00000000000E+00 0.  1.
<mgrwt>
<rscale>  0 0.91693249E+03</rscale>
<asrwt>0</asrwt>
<pdfrwt beam="1">  1        1 0.32839214E+00 0.91693249E+03</pdfrwt>
<pdfrwt beam="2">  1       -1 0.65375088E-01 0.91693249E+03</pdfrwt>
<totfact> 0.58662541E+00</totfact>
</mgrwt>
</event>
<event>
12    1  0.1338445E-007  0.4872091E+03  0.7818608E-02  0.1017172E+00
          2   -1    0    0  501    0  0.00000000000E+00  0.00000000000E+00  0.22245849840E+04  0.22245849840E+04  0.00000000000E+00 0. -1.
         -2   -1    0    0    0  501 -0.00000000000E+00 -0.00000000000E+00 -0.13536696812E+03  0.13536696812E+03  0.00000000000E+00 0.  1.
         23    2    1    2    0    0  0.38424442913E+02  0.30924755260E+03  0.27811851783E+03  0.42668289334E+03  0.87165904493E+02 0.  0.
    5000000    2    1    2    0    0 -0.38424442913E+02 -0.30924755260E+03  0.18110994981E+04  0.19332690588E+04  0.60028108017E+03 0.  0.
         23    2    4    4    0    0 -0.29990794628E+03 -0.10909494765E+03  0.98764888047E+03  0.10419729485E+04  0.91710580121E+02 0.  0.
         23    2    4    4    0    0  0.26148350337E+03 -0.20015260495E+03  0.82345061759E+03  0.89129611028E+03  0.88899655677E+02 0.  0.
          1    1    3    3  502    0  0.97649568801E+00  0.13616196784E+03  0.68985450353E+02  0.15264346494E+03  0.00000000000E+00 0. -1.
         -1    1    3    3    0  502  0.37447947225E+02  0.17308558477E+03  0.20913306748E+03  0.27403942840E+03  0.00000000000E+00 0.  1.
         13    1    5    5    0    0 -0.17083924078E+03 -0.10015233011E+03  0.67941838802E+03  0.70769052657E+03  0.00000000000E+00 0. -1.
        -13    1    5    5    0    0 -0.12906870550E+03 -0.89426175383E+01  0.30823049246E+03  0.33428242196E+03  0.00000000000E+00 0.  1.
          4    1    6    6  503    0  0.11926613853E+03 -0.57809637559E+02  0.42062174295E+03  0.44100908906E+03  0.00000000000E+00 0. -1.
         -4    1    6    6    0  503  0.14221736484E+03 -0.14234296739E+03  0.40282887464E+03  0.45028702121E+03  0.00000000000E+00 0.  1.
<mgrwt>
<rscale>  0 0.48720913E+03</rscale>
<asrwt>0</asrwt>
<pdfrwt beam="1">  1        2 0.34224382E+00 0.48720913E+03</pdfrwt>
<pdfrwt beam="2">  1       -2 0.20825689E-01 0.48720913E+03</pdfrwt>
<totfact> 0.10621327E+02</totfact>
</mgrwt>
</event>
<event>
12    1  0.1338445E-007  0.9521507E+03  0.7818608E-02  0.9362640E-01
         -2   -1    0    0    0  501 -0.00000000000E+00  0.00000000000E+00  0.19749610973E+04  0.19749610973E+04  0.00000000000E+00 0.  1.
          2   -1    0    0  501    0  0.00000000000E+00 -0.00000000000E+00 -0.88930514561E+03  0.88930514561E+03  0.00000000000E+00 0. -1.
         23    2    1    2    0    0 -0.85981150624E+02 -0.87674913124E+03 -0.45124344831E+03  0.99393757904E+03  0.90606092452E+02 0.  0.
    5000000    2    1    2    0    0  0.85981150624E+02  0.87674913124E+03  0.15368994000E+04  0.18703286639E+04  0.59998978971E+03 0.  0.
         23    2    4    4    0    0  0.14926978368E+03  0.89433966603E+03  0.11513124471E+04  0.14681761089E+04  0.88858479993E+02 0.  0.
         23    2    4    4    0    0 -0.63288633058E+02 -0.17590534784E+02  0.38558695296E+03  0.40215255497E+03  0.93458553321E+02 0.  0.
          4    1    3    3  502    0 -0.81734418314E+02 -0.49482281383E+03 -0.29010054222E+03  0.57938627600E+03  0.00000000000E+00 0. -1.
         -4    1    3    3    0  502 -0.42467323104E+01 -0.38192631741E+03 -0.16114290609E+03  0.41455130304E+03  0.00000000000E+00 0.  1.
         13    1    5    5    0    0  0.11519101541E+03  0.44587864035E+03  0.55202830629E+03  0.71889636451E+03  0.00000000000E+00 0.  1.
        -13    1    5    5    0    0  0.34078768275E+02  0.44846102568E+03  0.59928414077E+03  0.74927974440E+03  0.00000000000E+00 0. -1.
          4    1    6    6  503    0 -0.62589700626E+02  0.25406099007E+02  0.18342970005E+03  0.19547223678E+03  0.00000000000E+00 0. -1.
         -4    1    6    6    0  503 -0.69893243245E+00 -0.42996633790E+02  0.20215725291E+03  0.20668031820E+03  0.00000000000E+00 0.  1.
<mgrwt>
<rscale>  0 0.95215073E+03</rscale>
<asrwt>0</asrwt>
<pdfrwt beam="1">  1        2 0.13681618E+00 0.95215073E+03</pdfrwt>
<pdfrwt beam="2">  1       -2 0.30384017E+00 0.95215073E+03</pdfrwt>
<totfact> 0.90813730E-01</totfact>
</mgrwt>
</event>
<event>
12    1  0.1338445E-007  0.4890670E+03  0.7818608E-02  0.1016673E+00
         -1   -1    0    0    0  501 -0.00000000000E+00  0.00000000000E+00  0.95690431576E+03  0.95690431576E+03  0.00000000000E+00 0.  1.
          1   -1    0    0  501    0  0.00000000000E+00 -0.00000000000E+00 -0.31005802711E+03  0.31005802711E+03  0.00000000000E+00 0. -1.
         23    2    1    2    0    0  0.23281532860E+03 -0.29053988424E+03  0.23120131681E+03  0.44761933213E+03  0.91063801985E+02 0.  0.
    5000000    2    1    2    0    0 -0.23281532860E+03  0.29053988424E+03  0.41564497184E+03  0.81934301074E+03  0.59995485253E+03 0.  0.
         23    2    4    4    0    0 -0.19228398161E+03 -0.89284365793E+02 -0.22597839282E+02  0.23095796819E+03  0.88803677706E+02 0.  0.
         23    2    4    4    0    0 -0.40531346988E+02  0.37982425004E+03  0.43824281112E+03  0.58838504255E+03  0.90724560017E+02 0.  0.
          4    1    3    3  502    0 -0.82777113936E+01 -0.62775059833E+01  0.84962020002E+01  0.13420619796E+02  0.00000000000E+00 0.  1.
         -4    1    3    3    0  502  0.24109303999E+03 -0.28426237826E+03  0.22270511481E+03  0.43419871233E+03  0.00000000000E+00 0. -1.
         13    1    5    5    0    0 -0.86391677600E+02 -0.35116350109E+02 -0.54234457731E+02  0.10787982392E+03  0.00000000000E+00 0.  1.
        -13    1    5    5    0    0 -0.10589230401E+03 -0.54168015684E+02  0.31636618449E+02  0.12307814428E+03  0.00000000000E+00 0. -1.
          2    1    6    6  503    0 -0.29647500463E+02  0.16032483929E+03  0.25287016506E+03  0.30087596905E+03  0.00000000000E+00 0. -1.
         -2    1    6    6    0  503 -0.10883846525E+02  0.21949941075E+03  0.18537264606E+03  0.28750907350E+03  0.00000000000E+00 0.  1.
<mgrwt>
<rscale>  0 0.48906700E+03</rscale>
<asrwt>0</asrwt>
<pdfrwt beam="1">  1        1 0.47701235E-01 0.48906700E+03</pdfrwt>
<pdfrwt beam="2">  1       -1 0.14721605E+00 0.48906700E+03</pdfrwt>
<totfact> 0.32435507E+01</totfact>
</mgrwt>
</event>
<event>
12    1  0.1338445E-007  0.7274800E+03  0.7818608E-02  0.9671359E-01
          2   -1    0    0  501    0  0.00000000000E+00  0.00000000000E+00  0.82378633445E+03  0.82378633445E+03  0.00000000000E+00 0. -1.
         -2   -1    0    0    0  501 -0.00000000000E+00 -0.00000000000E+00 -0.12396878482E+04  0.12396878482E+04  0.00000000000E+00 0.  1.
         23    2    1    2    0    0 -0.54339551127E+03  0.36570270812E+03  0.46845422459E+03  0.81012633148E+03  0.88533383664E+02 0.  0.
    5000000    2    1    2    0    0  0.54339551127E+03 -0.36570270812E+03 -0.88435573830E+03  0.12533478511E+04  0.59981548135E+03 0.  0.
         23    2    4    4    0    0 -0.75480113582E+02 -0.45617810764E+02 -0.44730825392E+01  0.12666523336E+03  0.90806611382E+02 0.  0.
         23    2    4    4    0    0  0.61887562485E+03 -0.32008489736E+03 -0.87988265576E+03  0.11266826178E+04  0.98786905530E+02 0.  0.
          3    1    3    3  502    0 -0.17186842886E+03  0.16691713695E+03  0.17090345507E+03  0.29429250483E+03  0.00000000000E+00 0. -1.
         -3    1    3    3    0  502 -0.37152708241E+03  0.19878557118E+03  0.29755076953E+03  0.51583382665E+03  0.00000000000E+00 0.  1.
         13    1    5    5    0    0 -0.71476696754E+02 -0.24584528325E+02 -0.39748404072E+02  0.85400543547E+02  0.00000000000E+00 0. -1.
        -13    1    5    5    0    0 -0.40034168277E+01 -0.21033282438E+02  0.35275321533E+02  0.41264689817E+02  0.00000000000E+00 0.  1.
          1    1    6    6  503    0  0.35029662466E+03 -0.17044659406E+03 -0.56783040794E+03  0.68861537802E+03  0.00000000000E+00 0. -1.
         -1    1    6    6    0  503  0.26857900019E+03 -0.14963830331E+03 -0.31205224783E+03  0.43806723974E+03  0.00000000000E+00 0.  1.
<mgrwt>
<rscale>  0 0.72747997E+03</rscale>
<asrwt>0</asrwt>
<pdfrwt beam="1">  1        2 0.12673636E+00 0.72747997E+03</pdfrwt>
<pdfrwt beam="2">  1       -2 0.19072121E+00 0.72747997E+03</pdfrwt>
<totfact> 0.51974275E+00</totfact>
</mgrwt>
</event>
<event>
12    1  0.1338445E-007  0.1163185E+04  0.7818608E-02  0.9145705E-01
         -2   -1    0    0    0  501 -0.00000000000E+00  0.00000000000E+00  0.68310010573E+03  0.68310010573E+03  0.00000000000E+00 0.  1.
          2   -1    0    0  501    0  0.00000000000E+00 -0.00000000000E+00 -0.28921333710E+04  0.28921333710E+04  0.00000000000E+00 0. -1.
         23    2    1    2    0    0  0.10335739900E+04  0.34325089945E+03 -0.62560770870E+02  0.10946518800E+04  0.90843356508E+02 0.  0.
    5000000    2    1    2    0    0 -0.10335739900E+04 -0.34325089945E+03 -0.21464724944E+04  0.24805815967E+04  0.59987041607E+03 0.  0.
         23    2    4    4    0    0 -0.62037497103E+03  0.94286522548E+02 -0.10607827074E+04  0.12358289881E+04  0.90875093678E+02 0.  0.
         23    2    4    4    0    0 -0.41319901900E+03 -0.43753742200E+03 -0.10856897870E+04  0.12447526086E+04  0.92273062342E+02 0.  0.
          4    1    3    3  502    0  0.64245157673E+03  0.18560033543E+03 -0.73938561001E+02  0.67279894750E+03  0.00000000000E+00 0.  1.
         -4    1    3    3    0  502  0.39112241330E+03  0.15765056403E+03  0.11377790132E+02  0.42185293247E+03  0.00000000000E+00 0. -1.
         13    1    5    5    0    0 -0.56399217059E+03  0.99626284964E+02 -0.91535666709E+03  0.10797640451E+04  0.00000000000E+00 0. -1.
        -13    1    5    5    0    0 -0.56382800436E+02 -0.53397624156E+01 -0.14542604028E+03  0.15606494302E+03  0.00000000000E+00 0.  1.
          2    1    6    6  503    0 -0.32717634320E+03 -0.38719859526E+03 -0.86484968542E+03  0.10024630118E+04  0.00000000000E+00 0. -1.
         -2    1    6    6    0  503 -0.86022675805E+02 -0.50338826743E+02 -0.22084010159E+03  0.24228959677E+03  0.00000000000E+00 0.  1.
<mgrwt>
<rscale>  0 0.11631852E+04</rscale>
<asrwt>0</asrwt>
<pdfrwt beam="1">  1        2 0.44494359E+00 0.11631852E+04</pdfrwt>
<pdfrwt beam="2">  1       -2 0.10509233E+00 0.11631852E+04</pdfrwt>
<totfact> 0.14796457E+00</totfact>
</mgrwt>
</event>
<event>
12    1  0.1338445E-007  0.1622517E+04  0.7818608E-02  0.8806833E-01
          1   -1    0    0  501    0  0.00000000000E+00  0.00000000000E+00  0.15491655746E+04  0.15491655746E+04  0.00000000000E+00 0. -1.
         -1   -1    0    0    0  501 -0.00000000000E+00 -0.00000000000E+00 -0.21133157308E+04  0.21133157308E+04  0.00000000000E+00 0.  1.
         23    2    1    2    0    0 -0.14569289217E+04  0.58522829210E+03 -0.10757703564E+04  0.19054831452E+04  0.91924535768E+02 0.  0.
    5000000    2    1    2    0    0  0.14569289217E+04 -0.58522829210E+03  0.51162020019E+03  0.17569981602E+04  0.60012771053E+03 0.  0.
         23    2    4    4    0    0  0.21317840957E+03 -0.33666598666E+03  0.98014761347E+02  0.41987175325E+03  0.88861548788E+02 0.  0.
         23    2    4    4    0    0  0.12437505121E+04 -0.24856230545E+03  0.41360543885E+03  0.13371264069E+04  0.90216478723E+02 0.  0.
          3    1    3    3  502    0 -0.51638264898E+03  0.24305593504E+03 -0.35534203165E+03  0.67230587323E+03  0.00000000000E+00 0. -1.
         -3    1    3    3    0  502 -0.94054627269E+03  0.34217235706E+03 -0.72042832471E+03  0.12331772719E+04  0.00000000000E+00 0.  1.
         13    1    5    5    0    0  0.18895835858E+03 -0.24137462367E+03  0.97082212295E+02  0.32154614937E+03  0.00000000000E+00 0. -1.
        -13    1    5    5    0    0  0.24220050989E+02 -0.95291362992E+02  0.93254905278E+00  0.98325603881E+02  0.00000000000E+00 0.  1.
          3    1    6    6  503    0  0.52710266595E+03 -0.11798112663E+03  0.13118454750E+03  0.55584723819E+03  0.00000000000E+00 0. -1.
         -3    1    6    6    0  503  0.71664784614E+03 -0.13058117882E+03  0.28242089135E+03  0.78127916874E+03  0.00000000000E+00 0.  1.
<mgrwt>
<rscale>  0 0.16225167E+04</rscale>
<asrwt>0</asrwt>
<pdfrwt beam="1">  1        1 0.23833317E+00 0.16225167E+04</pdfrwt>
<pdfrwt beam="2">  1       -1 0.32512550E+00 0.16225167E+04</pdfrwt>
<totfact> 0.12774764E-01</totfact>
</mgrwt>
</event>
<event>
12    1  0.1338445E-007  0.8033323E+03  0.7818608E-02  0.9555206E-01
         -4   -1    0    0    0  501 -0.00000000000E+00  0.00000000000E+00  0.61414943805E+03  0.61414943805E+03  0.00000000000E+00 0.  1.
          4   -1    0    0  501    0  0.00000000000E+00 -0.00000000000E+00 -0.13408237725E+04  0.13408237725E+04  0.00000000000E+00 0. -1.
         23    2    1    2    0    0  0.69502061425E+03  0.34531628344E+03 -0.91385740431E+02  0.78628186923E+03  0.87125395192E+02 0.  0.
    5000000    2    1    2    0    0 -0.69502061425E+03 -0.34531628344E+03 -0.63528859402E+03  0.11686913413E+04  0.59995905172E+03 0.  0.
         23    2    4    4    0    0 -0.15534133989E+03  0.45043069286E+02  0.65731100532E+02  0.19739558161E+03  0.92112040964E+02 0.  0.
         23    2    4    4    0    0 -0.53967927436E+03 -0.39035935273E+03 -0.70101969455E+03  0.97129575971E+03  0.91393091937E+02 0.  0.
          1    1    3    3  502    0  0.25390764014E+03  0.13566642021E+03 -0.75542463868E+02  0.29762582405E+03  0.00000000000E+00 0. -1.
         -1    1    3    3    0  502  0.44111297411E+03  0.20964986323E+03 -0.15843276563E+02  0.48865604519E+03  0.00000000000E+00 0.  1.
         11    1    5    5    0    0 -0.73391471668E+02  0.19966553951E+02 -0.17373579486E+02  0.78018027753E+02  0.00000000000E+00 0.  1.
        -11    1    5    5    0    0 -0.81949868226E+02  0.25076515335E+02  0.83104680018E+02  0.11937755386E+03  0.00000000000E+00 0. -1.
          1    1    6    6  503    0 -0.40237457835E+03 -0.32139254795E+03 -0.49510627150E+03  0.71437293570E+03  0.00000000000E+00 0. -1.
         -1    1    6    6    0  503 -0.13730469601E+03 -0.68966804780E+02 -0.20591342305E+03  0.25692282401E+03  0.00000000000E+00 0.  1.
<mgrwt>
<rscale>  0 0.80333228E+03</rscale>
<asrwt>0</asrwt>
<pdfrwt beam="1">  1        4 0.20628058E+00 0.80333228E+03</pdfrwt>
<pdfrwt beam="2">  1       -4 0.94484529E-01 0.80333228E+03</pdfrwt>
<totfact> 0.22109910E-01</totfact>
</mgrwt>
</event>
<event>
12    1  0.1338445E-007  0.1670278E+04  0.7818608E-02  0.8778500E-01
          1   -1    0    0  501    0  0.00000000000E+00  0.00000000000E+00  0.19609958319E+04  0.19609958319E+04  0.00000000000E+00 0. -1.
         -1   -1    0    0    0  501 -0.00000000000E+00 -0.00000000000E+00 -0.17173305701E+04  0.17173305701E+04  0.00000000000E+00 0.  1.
         23    2    1    2    0    0  0.16412399071E+04 -0.26865125553E+03  0.76777128354E+03  0.18341171548E+04  0.93118546472E+02 0.  0.
    5000000    2    1    2    0    0 -0.16412399071E+04  0.26865125553E+03 -0.52410602174E+03  0.18442092473E+04  0.60048205293E+03 0.  0.
         23    2    4    4    0    0 -0.68124325427E+03  0.59617109259E+02 -0.50919149053E+03  0.85742025924E+03  0.90812750919E+02 0.  0.
         23    2    4    4    0    0 -0.95999665288E+03  0.20903414627E+03 -0.14914531212E+02  0.98678898805E+03  0.90781142657E+02 0.  0.
          1    1    3    3  502    0  0.17114136758E+03 -0.63658915439E+01  0.58997708343E+02  0.18113702510E+03  0.00000000000E+00 0. -1.
         -1    1    3    3    0  502  0.14700985396E+04 -0.26228536399E+03  0.70877357520E+03  0.16529801297E+04  0.00000000000E+00 0.  1.
         11    1    5    5    0    0 -0.30418638525E+03  0.69963411218E+02 -0.21398279544E+03  0.37843476667E+03  0.00000000000E+00 0.  1.
        -11    1    5    5    0    0 -0.37705686902E+03 -0.10346301959E+02 -0.29520869509E+03  0.47898549257E+03  0.00000000000E+00 0. -1.
          3    1    6    6  503    0 -0.86960852375E+03  0.16131553201E+03 -0.15332697695E+02  0.88457717417E+03  0.00000000000E+00 0. -1.
         -3    1    6    6    0  503 -0.90388129129E+02  0.47718614262E+02  0.41816648300E+00  0.10221181389E+03  0.00000000000E+00 0.  1.
<mgrwt>
<rscale>  0 0.16702776E+04</rscale>
<asrwt>0</asrwt>
<pdfrwt beam="1">  1        1 0.30169167E+00 0.16702776E+04</pdfrwt>
<pdfrwt beam="2">  1       -1 0.26420470E+00 0.16702776E+04</pdfrwt>
<totfact> 0.16507160E-01</totfact>
</mgrwt>
</event>
<event>
12    1  0.1338445E-007  0.6752220E+03  0.7818608E-02  0.9760570E-01
          2   -1    0    0  501    0  0.00000000000E+00  0.00000000000E+00  0.70627403325E+03  0.70627403325E+03  0.00000000000E+00 0. -1.
         -2   -1    0    0    0  501 -0.00000000000E+00 -0.00000000000E+00 -0.73064131084E+03  0.73064131084E+03  0.00000000000E+00 0.  1.
         23    2    1    2    0    0  0.48946525290E+03  0.32101606854E+03 -0.73070735182E+02  0.59725632305E+03  0.93531989353E+02 0.  0.
    5000000    2    1    2    0    0 -0.48946525290E+03 -0.32101606854E+03  0.48703457593E+02  0.83965902103E+03  0.60002307852E+03 0.  0.
         23    2    4    4    0    0 -0.55645497922E+03 -0.15063454562E+03 -0.92564758105E+02  0.59071541761E+03  0.89685895956E+02 0.  0.
         23    2    4    4    0    0  0.66989726323E+02 -0.17038152292E+03  0.14126821570E+03  0.24894360342E+03  0.92188514088E+02 0.  0.
          3    1    3    3  502    0  0.17623501883E+03  0.15537895995E+03  0.24787172105E+01  0.23496286323E+03  0.00000000000E+00 0. -1.
         -3    1    3    3    0  502  0.31323023406E+03  0.16563710859E+03 -0.75549452392E+02  0.36229345983E+03  0.00000000000E+00 0.  1.
         13    1    5    5    0    0 -0.36727336322E+03 -0.11899428357E+03 -0.23258837478E+02  0.38676909956E+03  0.00000000000E+00 0.  1.
        -13    1    5    5    0    0 -0.18918161600E+03 -0.31640262053E+02 -0.69305920628E+02  0.20394631806E+03  0.00000000000E+00 0. -1.
          3    1    6    6  503    0  0.16841497525E+02 -0.33212910161E+02 -0.10120951067E+02  0.38589727788E+02  0.00000000000E+00 0. -1.
         -3    1    6    6    0  503  0.50148228798E+02 -0.13716861276E+03  0.15138916677E+03  0.21035387563E+03  0.00000000000E+00 0.  1.
<mgrwt>
<rscale>  0 0.67522196E+03</rscale>
<asrwt>0</asrwt>
<pdfrwt beam="1">  1        2 0.10865754E+00 0.67522196E+03</pdfrwt>
<pdfrwt beam="2">  1       -2 0.11240635E+00 0.67522196E+03</pdfrwt>
<totfact> 0.25777390E+01</totfact>
</mgrwt>
</event>
<event>
12    1  0.1338445E-007  0.1298633E+04  0.7818608E-02  0.9030650E-01
          1   -1    0    0  501    0  0.00000000000E+00  0.00000000000E+00  0.34306082021E+04  0.34306082021E+04  0.00000000000E+00 0. -1.
         -1   -1    0    0    0  501 -0.00000000000E+00 -0.00000000000E+00 -0.75933304515E+03  0.75933304515E+03  0.00000000000E+00 0.  1.
         23    2    1    2    0    0 -0.27601300825E+02  0.12535838978E+04  0.92729139712E+02  0.12605526783E+04  0.90332390056E+02 0.  0.
    5000000    2    1    2    0    0  0.27601300825E+02 -0.12535838978E+04  0.25785460172E+04  0.29293885689E+04  0.60015281721E+03 0.  0.
         23    2    4    4    0    0 -0.22405698881E+03 -0.57212873375E+03  0.85241441465E+03  0.10544133044E+04  0.87431458327E+02 0.  0.
         23    2    4    4    0    0  0.25165828964E+03 -0.68145516410E+03  0.17261316026E+04  0.18749752645E+04  0.91043384392E+02 0.  0.
          3    1    3    3  502    0 -0.37332542152E+02  0.31002682258E+03 -0.13278825097E+01  0.31226929515E+03  0.00000000000E+00 0. -1.
         -3    1    3    3    0  502  0.97312413273E+01  0.94355707527E+03  0.94057022221E+02  0.94828338316E+03  0.00000000000E+00 0.  1.
         11    1    5    5    0    0 -0.65987315269E+02 -0.15073853212E+03  0.29705088548E+03  0.33958159463E+03  0.00000000000E+00 0.  1.
        -11    1    5    5    0    0 -0.15806967354E+03 -0.42139020163E+03  0.55536352917E+03  0.71483170974E+03  0.00000000000E+00 0. -1.
          3    1    6    6  503    0  0.89766065605E+02 -0.21306346644E+03  0.44827781046E+03  0.50438773044E+03  0.00000000000E+00 0. -1.
         -3    1    6    6    0  503  0.16189222403E+03 -0.46839169766E+03  0.12778537921E+04  0.13705875341E+04  0.00000000000E+00 0.  1.
<mgrwt>
<rscale>  0 0.12986332E+04</rscale>
<asrwt>0</asrwt>
<pdfrwt beam="1">  1        1 0.52778587E+00 0.12986332E+04</pdfrwt>
<pdfrwt beam="2">  1       -1 0.11682047E+00 0.12986332E+04</pdfrwt>
<totfact> 0.18467493E-01</totfact>
</mgrwt>
</event>
<event>
12    1  0.1338445E-007  0.6324189E+03  0.7818608E-02  0.9840340E-01
         -2   -1    0    0    0  501 -0.00000000000E+00  0.00000000000E+00  0.23417242416E+03  0.23417242416E+03  0.00000000000E+00 0. -1.
          2   -1    0    0  501    0  0.00000000000E+00 -0.00000000000E+00 -0.19935026281E+04  0.19935026281E+04  0.00000000000E+00 0.  1.
         23    2    1    2    0    0  0.64172896836E+02  0.52310281197E+03 -0.48048638277E+03  0.71993412314E+03  0.98403582515E+02 0.  0.
    5000000    2    1    2    0    0 -0.64172896836E+02 -0.52310281197E+03 -0.12788438212E+04  0.15077409292E+04  0.60007206053E+03 0.  0.
         23    2    4    4    0    0 -0.28190691710E+03 -0.27217663778E+03 -0.95094843710E+03  0.10324010520E+04  0.89428016021E+02 0.  0.
         23    2    4    4    0    0  0.21773402026E+03 -0.25092617420E+03 -0.32789538410E+03  0.47533987717E+03  0.89780662951E+02 0.  0.
          4    1    3    3  502    0  0.48672733691E+02  0.20283711863E+03 -0.13439968235E+03  0.24814351960E+03  0.00000000000E+00 0. -1.
         -4    1    3    3    0  502  0.15500163145E+02  0.32026569334E+03 -0.34608670041E+03  0.47179060354E+03  0.00000000000E+00 0.  1.
         11    1    5    5    0    0 -0.74826988625E+02 -0.12709723525E+03 -0.39573120655E+03  0.42232212027E+03  0.00000000000E+00 0.  1.
        -11    1    5    5    0    0 -0.20707992847E+03 -0.14507940252E+03 -0.55521723056E+03  0.61007893171E+03  0.00000000000E+00 0. -1.
          3    1    6    6  503    0  0.17939762248E+03 -0.17712041583E+03 -0.28906280381E+03  0.38355241259E+03  0.00000000000E+00 0. -1.
         -3    1    6    6    0  503  0.38336397780E+02 -0.73805758366E+02 -0.38832580291E+02  0.91787464584E+02  0.00000000000E+00 0.  1.
<mgrwt>
<rscale>  0 0.63241891E+03</rscale>
<asrwt>0</asrwt>
<pdfrwt beam="1">  1        2 0.30669271E+00 0.63241891E+03</pdfrwt>
<pdfrwt beam="2">  1       -2 0.36026527E-01 0.63241891E+03</pdfrwt>
<totfact> 0.51052197E+01</totfact>
</mgrwt>
</event>
<event>
12    1  0.1338445E-007  0.7950204E+03  0.7818608E-02  0.9567253E-01
          1   -1    0    0  501    0  0.00000000000E+00  0.00000000000E+00  0.60659077336E+03  0.60659077336E+03  0.00000000000E+00 0. -1.
         -1   -1    0    0    0  501 -0.00000000000E+00 -0.00000000000E+00 -0.11980899454E+04  0.11980899454E+04  0.00000000000E+00 0.  1.
         23    2    1    2    0    0 -0.35858095281E+03  0.64765233988E+03 -0.33312716220E+03  0.81667435842E+03  0.89159679388E+02 0.  0.
    5000000    2    1    2    0    0  0.35858095281E+03 -0.64765233988E+03 -0.25837200982E+03  0.98800636033E+03  0.60113777083E+03 0.  0.
         23    2    4    4    0    0  0.13916338660E+03 -0.57794617654E+03 -0.38035281500E+03  0.71234685025E+03  0.96858350313E+02 0.  0.
         23    2    4    4    0    0  0.21941756621E+03 -0.69706163340E+02  0.12198080518E+03  0.27565951008E+03  0.90032389155E+02 0.  0.
          3    1    3    3  502    0 -0.20932653511E+03  0.43779541775E+03 -0.25124810915E+03  0.54645039890E+03  0.00000000000E+00 0. -1.
         -3    1    3    3    0  502 -0.14925441771E+03  0.20985692214E+03 -0.81879053048E+02  0.27022395952E+03  0.00000000000E+00 0.  1.
         13    1    5    5    0    0  0.11014978550E+03 -0.54982718113E+03 -0.34309370157E+03  0.65738587786E+03  0.00000000000E+00 0. -1.
        -13    1    5    5    0    0  0.29013601102E+02 -0.28118995417E+02 -0.37259113431E+02  0.54960972387E+02  0.00000000000E+00 0.  1.
          2    1    6    6  503    0  0.14701528823E+03 -0.88106795723E+02  0.72770493586E+02  0.18620377860E+03  0.00000000000E+00 0. -1.
         -2    1    6    6    0  503  0.72402277979E+02  0.18400632384E+02  0.49210311593E+02  0.89455731486E+02  0.00000000000E+00 0.  1.
<mgrwt>
<rscale>  0 0.79502039E+03</rscale>
<asrwt>0</asrwt>
<pdfrwt beam="1">  1        1 0.93321658E-01 0.79502039E+03</pdfrwt>
<pdfrwt beam="2">  1       -1 0.18432153E+00 0.79502039E+03</pdfrwt>
<totfact> 0.67124456E+00</totfact>
</mgrwt>
</event>
<event>
12    1  0.1338445E-007  0.8407776E+03  0.7818608E-02  0.9502799E-01
         -1   -1    0    0    0  501 -0.00000000000E+00  0.00000000000E+00  0.90388029336E+03  0.90388029336E+03  0.00000000000E+00 0.  1.
          1   -1    0    0  501    0  0.00000000000E+00 -0.00000000000E+00 -0.83912882462E+03  0.83912882462E+03  0.00000000000E+00 0. -1.
         23    2    1    2    0    0  0.29238891028E+03  0.69994947198E+03  0.12435678410E+03  0.77410532291E+03  0.91399688370E+02 0.  0.
    5000000    2    1    2    0    0 -0.29238891028E+03 -0.69994947198E+03 -0.59605315369E+02  0.96890379507E+03  0.59983433738E+03 0.  0.
         23    2    4    4    0    0  0.60448465547E+02  0.42846922392E+02  0.54086922685E+02  0.13323342914E+03  0.96622335353E+02 0.  0.
         23    2    4    4    0    0 -0.35283737583E+03 -0.74279639437E+03 -0.11369223805E+03  0.83567036593E+03  0.95803644111E+02 0.  0.
          3    1    3    3  502    0  0.28222309215E+03  0.67931307438E+03  0.10312293445E+03  0.74279907538E+03  0.00000000000E+00 0. -1.
         -3    1    3    3    0  502  0.10165818130E+02  0.20636397596E+02  0.21233849649E+02  0.31306247538E+02  0.00000000000E+00 0.  1.
         13    1    5    5    0    0  0.30748184732E+02 -0.13192236864E+02 -0.17362512903E+02  0.37695395370E+02  0.00000000000E+00 0. -1.
        -13    1    5    5    0    0  0.29700280815E+02  0.56039159256E+02  0.71449435588E+02  0.95538033769E+02  0.00000000000E+00 0.  1.
          1    1    6    6  503    0 -0.18029145571E+03 -0.46868625495E+03 -0.96229882631E+02  0.51130421951E+03  0.00000000000E+00 0. -1.
         -1    1    6    6    0  503 -0.17254592012E+03 -0.27411013942E+03 -0.17462355423E+02  0.32436614641E+03  0.00000000000E+00 0.  1.
<mgrwt>
<rscale>  0 0.84077757E+03</rscale>
<asrwt>0</asrwt>
<pdfrwt beam="1">  1        1 0.12909674E+00 0.84077757E+03</pdfrwt>
<pdfrwt beam="2">  1       -1 0.13905851E+00 0.84077757E+03</pdfrwt>
<totfact> 0.89022614E+00</totfact>
</mgrwt>
</event>
<event>
12    1  0.1338445E-007  0.9638987E+03  0.7818608E-02  0.9349051E-01
         -2   -1    0    0    0  501 -0.00000000000E+00  0.00000000000E+00  0.25489121247E+03  0.25489121247E+03  0.00000000000E+00 0.  1.
          2   -1    0    0  501    0  0.00000000000E+00 -0.00000000000E+00 -0.40628800046E+04  0.40628800046E+04  0.00000000000E+00 0. -1.
         23    2    1    2    0    0 -0.84885613752E+03 -0.19720317151E+03 -0.24133527394E+04  0.25671163863E+04  0.79807663227E+02 0.  0.
    5000000    2    1    2    0    0  0.84885613752E+03  0.19720317151E+03 -0.13946360527E+04  0.17506548307E+04  0.60028058752E+03 0.  0.
         23    2    4    4    0    0  0.18566426774E+03  0.31693829785E+03 -0.51460556929E+03  0.63871658433E+03  0.90658028841E+02 0.  0.
         23    2    4    4    0    0  0.66319186978E+03 -0.11973512634E+03 -0.88003048341E+03  0.11119382464E+04  0.88278284000E+02 0.  0.
          4    1    3    3  502    0 -0.54571040412E+03 -0.12492426924E+03 -0.14353443899E+04  0.15406555215E+04  0.00000000000E+00 0. -1.
         -4    1    3    3    0  502 -0.30314573340E+03 -0.72278902268E+02 -0.97800834951E+03  0.10264608649E+04  0.00000000000E+00 0.  1.
         13    1    5    5    0    0  0.87863446157E+02  0.74333074869E+02 -0.13045675874E+03  0.17396654015E+03  0.00000000000E+00 0. -1.
        -13    1    5    5    0    0  0.97800821585E+02  0.24260522298E+03 -0.38414881055E+03  0.46475004418E+03  0.00000000000E+00 0.  1.
          2    1    6    6  503    0  0.64522850243E+03 -0.13109067016E+03 -0.85349844817E+03  0.10779444258E+04  0.00000000000E+00 0.  1.
         -2    1    6    6    0  503  0.17963367350E+02  0.11355543822E+02 -0.26532035235E+02  0.33993820552E+02  0.00000000000E+00 0. -1.
<mgrwt>
<rscale>  0 0.96389874E+03</rscale>
<asrwt>0</asrwt>
<pdfrwt beam="1">  1        2 0.62505842E+00 0.96389874E+03</pdfrwt>
<pdfrwt beam="2">  1       -2 0.39214035E-01 0.96389874E+03</pdfrwt>
<totfact> 0.19880468E+00</totfact>
</mgrwt>
</event>
<event>
12    1  0.1338445E-007  0.5895818E+03  0.7818608E-02  0.9927259E-01
          1   -1    0    0  501    0  0.00000000000E+00  0.00000000000E+00  0.46488726534E+03  0.46488726534E+03  0.00000000000E+00 0. -1.
         -1   -1    0    0    0  501 -0.00000000000E+00 -0.00000000000E+00 -0.86970982140E+03  0.86970982140E+03  0.00000000000E+00 0.  1.
         23    2    1    2    0    0 -0.40285613623E+03  0.27702785905E+03 -0.14130835239E+03  0.51696539515E+03  0.90816673208E+02 0.  0.
    5000000    2    1    2    0    0  0.40285613623E+03 -0.27702785905E+03 -0.26351420367E+03  0.81763169159E+03  0.60003695416E+03 0.  0.
         23    2    4    4    0    0 -0.21809712374E+02 -0.24518556372E+03  0.68512016709E+02  0.27107293888E+03  0.90526336233E+02 0.  0.
         23    2    4    4    0    0  0.42466584860E+03 -0.31842295334E+02 -0.33202622038E+03  0.54655875270E+03  0.84439590216E+02 0.  0.
          2    1    3    3  502    0 -0.27465335421E+03  0.22556778038E+03 -0.72890865414E+02  0.36280623862E+03  0.00000000000E+00 0. -1.
         -2    1    3    3    0  502 -0.12820278202E+03  0.51460078673E+02 -0.68417486980E+02  0.15415915652E+03  0.00000000000E+00 0.  1.
         13    1    5    5    0    0 -0.35909738774E+02 -0.22762406126E+03  0.82266527348E+02  0.24468347743E+03  0.00000000000E+00 0.  1.
        -13    1    5    5    0    0  0.14100026400E+02 -0.17561502457E+02 -0.13754510639E+02  0.26389461456E+02  0.00000000000E+00 0. -1.
          2    1    6    6  503    0  0.16788385304E+03 -0.50153264049E+02 -0.15696499168E+03  0.23524103940E+03  0.00000000000E+00 0. -1.
         -2    1    6    6    0  503  0.25678199556E+03  0.18310968715E+02 -0.17506122869E+03  0.31131771330E+03  0.00000000000E+00 0.  1.
<mgrwt>
<rscale>  0 0.58958182E+03</rscale>
<asrwt>0</asrwt>
<pdfrwt beam="1">  1        1 0.71521117E-01 0.58958182E+03</pdfrwt>
<pdfrwt beam="2">  1       -1 0.13380151E+00 0.58958182E+03</pdfrwt>
<totfact> 0.24102055E+01</totfact>
</mgrwt>
</event>
<event>
12    1  0.1338445E-007  0.6428396E+03  0.7818608E-02  0.9820309E-01
          2   -1    0    0  501    0  0.00000000000E+00  0.00000000000E+00  0.10805188796E+04  0.10805188796E+04  0.00000000000E+00 0. -1.
         -2   -1    0    0    0  501 -0.00000000000E+00 -0.00000000000E+00 -0.52608514004E+03  0.52608514004E+03  0.00000000000E+00 0.  1.
         23    2    1    2    0    0 -0.59254900238E+03  0.17159079945E+02  0.41508226030E+01  0.59978176361E+03  0.91171159869E+02 0.  0.
    5000000    2    1    2    0    0  0.59254900238E+03 -0.17159079945E+02  0.55028291695E+03  0.10068222560E+04  0.59955901486E+03 0.  0.
         23    2    4    4    0    0 -0.18231766486E+02  0.28403244648E+02 -0.76390527540E+02  0.12581516749E+03  0.94099957789E+02 0.  0.
         23    2    4    4    0    0  0.61078076886E+03 -0.45562324593E+02  0.62667344449E+03  0.88100708855E+03  0.91240402216E+02 0.  0.
          1    1    3    3  502    0 -0.41750594930E+03  0.39552107203E+02  0.34218625486E+02  0.42076894042E+03  0.00000000000E+00 0. -1.
         -1    1    3    3    0  502 -0.17504305307E+03 -0.22393027257E+02 -0.30067802883E+02  0.17901282320E+03  0.00000000000E+00 0.  1.
         13    1    5    5    0    0 -0.42510330098E+02  0.16550008570E+02 -0.89091410926E+00  0.45627016960E+02  0.00000000000E+00 0. -1.
        -13    1    5    5    0    0  0.24278563612E+02  0.11853236078E+02 -0.75499613431E+02  0.80188150526E+02  0.00000000000E+00 0.  1.
          1    1    6    6  503    0  0.32856047227E+03  0.13607444296E+02  0.36938903484E+03  0.49455576585E+03  0.00000000000E+00 0. -1.
         -1    1    6    6    0  503  0.28222029659E+03 -0.59169768889E+02  0.25728440966E+03  0.38645132269E+03  0.00000000000E+00 0.  1.
<mgrwt>
<rscale>  0 0.64283956E+03</rscale>
<asrwt>0</asrwt>
<pdfrwt beam="1">  1        2 0.16623367E+00 0.64283956E+03</pdfrwt>
<pdfrwt beam="2">  1       -2 0.80936176E-01 0.64283956E+03</pdfrwt>
<totfact> 0.31032554E+01</totfact>
</mgrwt>
</event>
<event>
12    1  0.1338445E-007  0.9120929E+03  0.7818608E-02  0.9410590E-01
          1   -1    0    0  501    0  0.00000000000E+00  0.00000000000E+00  0.24154814170E+04  0.24154814170E+04  0.00000000000E+00 0. -1.
         -1   -1    0    0    0  501 -0.00000000000E+00 -0.00000000000E+00 -0.46143559072E+03  0.46143559072E+03  0.00000000000E+00 0.  1.
         23    2    1    2    0    0  0.70734324774E+03 -0.42746149316E+03  0.21270328942E+03  0.85819462177E+03  0.90540163687E+02 0.  0.
    5000000    2    1    2    0    0 -0.70734324774E+03  0.42746149316E+03  0.17413425368E+04  0.20187223859E+04  0.59992369728E+03 0.  0.
         23    2    4    4    0    0  0.49766679382E+02 -0.51574001065E+02  0.16411199393E+03  0.20241468288E+03  0.94352304329E+02 0.  0.
         23    2    4    4    0    0 -0.75710992712E+03  0.47903549423E+03  0.15772305429E+04  0.18163077030E+04  0.92881861293E+02 0.  0.
          4    1    3    3  502    0  0.23705472882E+03 -0.18598869456E+03  0.52953024473E+02  0.30592607238E+03  0.00000000000E+00 0. -1.
         -4    1    3    3    0  502  0.47028851892E+03 -0.24147279860E+03  0.15975026494E+03  0.55226854939E+03  0.00000000000E+00 0.  1.
         11    1    5    5    0    0  0.28110022287E+02  0.10354928200E+02  0.50835223563E+01  0.30384866143E+02  0.00000000000E+00 0. -1.
        -11    1    5    5    0    0  0.21656657095E+02 -0.61928929265E+02  0.15902847157E+03  0.17202981674E+03  0.00000000000E+00 0.  1.
          4    1    6    6  503    0 -0.66722045389E+03  0.44750977181E+03  0.13690974623E+04  0.15874117270E+04  0.00000000000E+00 0. -1.
         -4    1    6    6    0  503 -0.89889473237E+02  0.31525722421E+02  0.20813308064E+03  0.22889597600E+03  0.00000000000E+00 0.  1.
<mgrwt>
<rscale>  0 0.91209291E+03</rscale>
<asrwt>0</asrwt>
<pdfrwt beam="1">  1        1 0.37161252E+00 0.91209291E+03</pdfrwt>
<pdfrwt beam="2">  1       -1 0.70990092E-01 0.91209291E+03</pdfrwt>
<totfact> 0.32024027E+00</totfact>
</mgrwt>
</event>
<event>
12    1  0.1338445E-007  0.4954932E+03  0.7818608E-02  0.1014962E+00
         -2   -1    0    0    0  501 -0.00000000000E+00  0.00000000000E+00  0.38704645575E+03  0.38704645575E+03  0.00000000000E+00 0.  1.
          2   -1    0    0  501    0  0.00000000000E+00 -0.00000000000E+00 -0.91987354477E+03  0.91987354477E+03  0.00000000000E+00 0. -1.
         23    2    1    2    0    0  0.43847183000E+03 -0.27152096727E+02 -0.22439050255E+03  0.50186266129E+03  0.92305206284E+02 0.  0.
    5000000    2    1    2    0    0 -0.43847183000E+03  0.27152096727E+02 -0.30843658646E+03  0.80505733922E+03  0.59999117452E+03 0.  0.
         23    2    4    4    0    0 -0.43691386681E+03  0.71091484040E+02 -0.44592285662E+03  0.63488451169E+03  0.91013312273E+02 0.  0.
         23    2    4    4    0    0 -0.15579631882E+01 -0.43939387313E+02  0.13748627015E+03  0.17017282754E+03  0.90128906262E+02 0.  0.
          1    1    3    3  502    0  0.15854874046E+03 -0.29869796072E+02 -0.12748935723E+03  0.20562938513E+03  0.00000000000E+00 0. -1.
         -1    1    3    3    0  502  0.27992308954E+03  0.27176993446E+01 -0.96901145315E+02  0.29623327617E+03  0.00000000000E+00 0.  1.
         11    1    5    5    0    0 -0.41798950113E+03  0.49611053996E+02 -0.39937899069E+03  0.58024137902E+03  0.00000000000E+00 0. -1.
        -11    1    5    5    0    0 -0.18924365687E+02  0.21480430044E+02 -0.46543865930E+02  0.54643132663E+02  0.00000000000E+00 0.  1.
          2    1    6    6  503    0 -0.45391884724E+02 -0.28937660703E+02  0.69731103450E+02  0.88092214152E+02  0.00000000000E+00 0. -1.
         -2    1    6    6    0  503  0.43833921536E+02 -0.15001726610E+02  0.67755166703E+02  0.82080613384E+02  0.00000000000E+00 0.  1.
<mgrwt>
<rscale>  0 0.49549320E+03</rscale>
<asrwt>0</asrwt>
<pdfrwt beam="1">  1        2 0.14151901E+00 0.49549320E+03</pdfrwt>
<pdfrwt beam="2">  1       -2 0.59545609E-01 0.49549320E+03</pdfrwt>
<totfact> 0.77666051E+01</totfact>
</mgrwt>
</event>
<event>
12    1  0.1338445E-007  0.4826659E+03  0.7818608E-02  0.1018405E+00
         -1   -1    0    0    0  501 -0.00000000000E+00  0.00000000000E+00  0.15016195791E+03  0.15016195791E+03  0.00000000000E+00 0.  1.
          1   -1    0    0  501    0  0.00000000000E+00 -0.00000000000E+00 -0.31264912342E+04  0.31264912342E+04  0.00000000000E+00 0. -1.
         23    2    1    2    0    0  0.30533439678E+03 -0.40125557111E+02 -0.12207183380E+03  0.34381330614E+03  0.92015774064E+02 0.  0.
    5000000    2    1    2    0    0 -0.30533439678E+03  0.40125557111E+02 -0.28542574425E+04  0.29328398859E+04  0.59993757548E+03 0.  0.
         23    2    4    4    0    0 -0.10430763923E+03 -0.25631265830E+03 -0.15454463588E+04  0.15726675905E+04  0.91118822735E+02 0.  0.
         23    2    4    4    0    0 -0.20102675755E+03  0.29643821541E+03 -0.13088110837E+04  0.13601722954E+04  0.93780849621E+02 0.  0.
          3    1    3    3  502    0  0.10310294605E+03 -0.57983914909E+02 -0.40714880292E+02  0.12510017326E+03  0.00000000000E+00 0. -1.
         -3    1    3    3    0  502  0.20223145073E+03  0.17858357798E+02 -0.81356953504E+02  0.21871313287E+03  0.00000000000E+00 0.  1.
         11    1    5    5    0    0 -0.11398142003E+03 -0.23033510988E+03 -0.14698785637E+04  0.14921759343E+04  0.00000000000E+00 0.  1.
        -11    1    5    5    0    0  0.96737808021E+01 -0.25977548417E+02 -0.75567795145E+02  0.80491656212E+02  0.00000000000E+00 0. -1.
          3    1    6    6  503    0 -0.13764218543E+03  0.17836219506E+03 -0.65197107911E+03  0.68980050148E+03  0.00000000000E+00 0. -1.
         -3    1    6    6    0  503 -0.63384572121E+02  0.11807602035E+03 -0.65684000455E+03  0.67037179397E+03  0.00000000000E+00 0.  1.
<mgrwt>
<rscale>  0 0.48266590E+03</rscale>
<asrwt>0</asrwt>
<pdfrwt beam="1">  1        1 0.48099862E+00 0.48266590E+03</pdfrwt>
<pdfrwt beam="2">  1       -1 0.23101841E-01 0.48266590E+03</pdfrwt>
<totfact> 0.87344727E+00</totfact>
</mgrwt>
</event>
<event>
12    1  0.1338445E-007  0.3428962E+03  0.7818608E-02  0.1065569E+00
          1   -1    0    0  501    0  0.00000000000E+00  0.00000000000E+00  0.16080773137E+04  0.16080773137E+04  0.00000000000E+00 0. -1.
         -1   -1    0    0    0  501 -0.00000000000E+00 -0.00000000000E+00 -0.11874673785E+03  0.11874673785E+03  0.00000000000E+00 0.  1.
         23    2    1    2    0    0  0.10983617533E+02  0.95829896690E+02  0.16562998849E+02  0.13359214139E+03  0.90931393677E+02 0.  0.
    5000000    2    1    2    0    0 -0.10983617533E+02 -0.95829896690E+02  0.14727675770E+04  0.15932319101E+04  0.60003297806E+03 0.  0.
         23    2    4    4    0    0  0.27354397565E+03  0.30485565648E+01  0.59910313144E+03  0.66505342199E+03  0.92389889563E+02 0.  0.
         23    2    4    4    0    0 -0.28452759318E+03 -0.98878453255E+02  0.87366444552E+03  0.92817848814E+03  0.86561207659E+02 0.  0.
          1    1    3    3  502    0 -0.42820087785E+01  0.66418092014E+02  0.52454969827E+02  0.84742093469E+02  0.00000000000E+00 0. -1.
         -1    1    3    3    0  502  0.15265626311E+02  0.29411804676E+02 -0.35891970978E+02  0.48850047919E+02  0.00000000000E+00 0.  1.
         13    1    5    5    0    0  0.20838726946E+03 -0.13438528385E+01  0.53227612613E+03  0.57161607261E+03  0.00000000000E+00 0. -1.
        -13    1    5    5    0    0  0.65156706188E+02  0.43924094033E+01  0.66827005304E+02  0.93437349382E+02  0.00000000000E+00 0.  1.
          1    1    6    6  503    0 -0.26006014525E+03 -0.60689150736E+02  0.77111364516E+03  0.81604577440E+03  0.00000000000E+00 0. -1.
         -1    1    6    6    0  503 -0.24467447934E+02 -0.38189302519E+02  0.10255080037E+03  0.11213271374E+03  0.00000000000E+00 0.  1.
<mgrwt>
<rscale>  0 0.34289618E+03</rscale>
<asrwt>0</asrwt>
<pdfrwt beam="1">  1        1 0.24739649E+00 0.34289618E+03</pdfrwt>
<pdfrwt beam="2">  1       -1 0.18268730E-01 0.34289618E+03</pdfrwt>
<totfact> 0.14085019E+02</totfact>
</mgrwt>
</event>
<event>
12    1  0.1338445E-007  0.1002640E+04  0.7818608E-02  0.9305654E-01
         -1   -1    0    0    0  501 -0.00000000000E+00  0.00000000000E+00  0.10858676699E+04  0.10858676699E+04  0.00000000000E+00 0.  1.
          1   -1    0    0  501    0  0.00000000000E+00 -0.00000000000E+00 -0.96605408073E+03  0.96605408073E+03  0.00000000000E+00 0. -1.
         23    2    1    2    0    0  0.75029694230E+03 -0.53305770685E+03 -0.10409377884E+03  0.93067273957E+03  0.90665389888E+02 0.  0.
    5000000    2    1    2    0    0 -0.75029694230E+03  0.53305770685E+03  0.22390736802E+03  0.11212490111E+04  0.59997401186E+03 0.  0.
         23    2    4    4    0    0 -0.46113045470E+03 -0.10111037494E+02  0.42110316018E+02  0.47317814041E+03  0.96854243671E+02 0.  0.
         23    2    4    4    0    0 -0.28916648760E+03  0.54316874434E+03  0.18179705200E+03  0.64807087065E+03  0.91083164704E+02 0.  0.
          3    1    3    3  502    0  0.22355651829E+03 -0.17913168579E+03 -0.71372218919E+02  0.29522816830E+03  0.00000000000E+00 0. -1.
         -3    1    3    3    0  502  0.52674042401E+03 -0.35392602105E+03 -0.32721559919E+02  0.63544457126E+03  0.00000000000E+00 0.  1.
         11    1    5    5    0    0 -0.14310553225E+03 -0.33730952806E+02 -0.19704205789E+02  0.14834158643E+03  0.00000000000E+00 0. -1.
        -11    1    5    5    0    0 -0.31802492245E+03  0.23619915313E+02  0.61814521806E+02  0.32483655399E+03  0.00000000000E+00 0.  1.
          2    1    6    6  503    0 -0.12429318040E+03  0.17267193638E+03  0.96765602258E+02  0.23372628026E+03  0.00000000000E+00 0. -1.
         -2    1    6    6    0  503 -0.16487330720E+03  0.37049680796E+03  0.85031449743E+02  0.41434459039E+03  0.00000000000E+00 0.  1.
<mgrwt>
<rscale>  0 0.10026403E+04</rscale>
<asrwt>0</asrwt>
<pdfrwt beam="1">  1        1 0.14862371E+00 0.10026403E+04</pdfrwt>
<pdfrwt beam="2">  1       -1 0.16705656E+00 0.10026403E+04</pdfrwt>
<totfact> 0.41739641E+00</totfact>
</mgrwt>
</event>
<event>
12    1  0.1338445E-007  0.6086410E+03  0.7818608E-02  0.9887639E-01
         -2   -1    0    0    0  501 -0.00000000000E+00  0.00000000000E+00  0.73847311070E+03  0.73847311070E+03  0.00000000000E+00 0.  1.
          2   -1    0    0  501    0  0.00000000000E+00 -0.00000000000E+00 -0.73552157398E+03  0.73552157398E+03  0.00000000000E+00 0. -1.
         23    2    1    2    0    0 -0.41001127241E+03  0.25839121907E+03 -0.36980435001E+03  0.61621517450E+03  0.89947864886E+02 0.  0.
    5000000    2    1    2    0    0  0.41001127241E+03 -0.25839121907E+03  0.37275588673E+03  0.85777951019E+03  0.60163400120E+03 0.  0.
         23    2    4    4    0    0  0.31705691054E+03  0.10403916796E+03  0.37992292301E+02  0.34739286173E+03  0.88820904726E+02 0.  0.
         23    2    4    4    0    0  0.92954361868E+02 -0.36243038703E+03  0.33476359443E+03  0.51038664845E+03  0.91823569594E+02 0.  0.
          1    1    3    3  502    0 -0.18622717932E+03  0.16847680938E+03 -0.17323302174E+03  0.30508142755E+03  0.00000000000E+00 0. -1.
         -1    1    3    3    0  502 -0.22378409309E+03  0.89914409694E+02 -0.19657132827E+03  0.31113374695E+03  0.00000000000E+00 0.  1.
         13    1    5    5    0    0  0.14453963577E+03  0.81143934465E+02 -0.12376836562E+02  0.16622042742E+03  0.00000000000E+00 0. -1.
        -13    1    5    5    0    0  0.17251727477E+03  0.22895233491E+02  0.50369128863E+02  0.18117243431E+03  0.00000000000E+00 0.  1.
          1    1    6    6  503    0  0.10022964705E+03 -0.21107528151E+03  0.20780334251E+03  0.31269951354E+03  0.00000000000E+00 0. -1.
         -1    1    6    6    0  503 -0.72752851846E+01 -0.15135510552E+03  0.12696025192E+03  0.19768713491E+03  0.00000000000E+00 0.  1.
<mgrwt>
<rscale>  0 0.60864097E+03</rscale>
<asrwt>0</asrwt>
<pdfrwt beam="1">  1        2 0.11315716E+00 0.60864097E+03</pdfrwt>
<pdfrwt beam="2">  1       -2 0.11361125E+00 0.60864097E+03</pdfrwt>
<totfact> 0.24026204E+01</totfact>
</mgrwt>
</event>
<event>
12    1  0.1338445E-007  0.8448414E+03  0.7818608E-02  0.9497287E-01
         -1   -1    0    0    0  501 -0.00000000000E+00  0.00000000000E+00  0.71839566445E+03  0.71839566445E+03  0.00000000000E+00 0.  1.
          1   -1    0    0  501    0  0.00000000000E+00 -0.00000000000E+00 -0.31113522215E+04  0.31113522215E+04  0.00000000000E+00 0. -1.
         23    2    1    2    0    0  0.15353598875E+03 -0.78569977991E+03 -0.26721904192E+04  0.27910460227E+04  0.91863051606E+02 0.  0.
    5000000    2    1    2    0    0 -0.15353598875E+03  0.78569977991E+03  0.27923386213E+03  0.10387018633E+04  0.60002713860E+03 0.  0.
         23    2    4    4    0    0 -0.63294175551E+02  0.18338480041E+02  0.23348414146E+03  0.25932439964E+03  0.91607027178E+02 0.  0.
         23    2    4    4    0    0 -0.90241813202E+02  0.76736129987E+03  0.45749720673E+02  0.77937746365E+03  0.91374200479E+02 0.  0.
          1    1    3    3  502    0  0.10484263998E+02 -0.18653944061E+03 -0.52566171612E+03  0.55787733642E+03  0.00000000000E+00 0. -1.
         -1    1    3    3    0  502  0.14305172475E+03 -0.59916033930E+03 -0.21465287031E+04  0.22331686863E+04  0.00000000000E+00 0.  1.
         11    1    5    5    0    0 -0.27001032250E+02 -0.35249687198E+02  0.63927895039E+02  0.77835544286E+02  0.00000000000E+00 0. -1.
        -11    1    5    5    0    0 -0.36293143301E+02  0.53588167240E+02  0.16955624642E+03  0.18148885536E+03  0.00000000000E+00 0.  1.
          1    1    6    6  503    0 -0.10407890800E+03  0.53979108364E+03  0.22321838897E+02  0.55018642074E+03  0.00000000000E+00 0. -1.
         -1    1    6    6    0  503  0.13837094803E+02  0.22757021623E+03  0.23427881776E+02  0.22919104291E+03  0.00000000000E+00 0.  1.
<mgrwt>
<rscale>  0 0.84484137E+03</rscale>
<asrwt>0</asrwt>
<pdfrwt beam="1">  1        1 0.47866957E+00 0.84484137E+03</pdfrwt>
<pdfrwt beam="2">  1       -1 0.11052241E+00 0.84484137E+03</pdfrwt>
<totfact> 0.39690332E-01</totfact>
</mgrwt>
</event>
<event>
12    1  0.1338445E-007  0.1225852E+04  0.7818608E-02  0.9090524E-01
         -1   -1    0    0    0  501 -0.00000000000E+00  0.00000000000E+00  0.16004294951E+04  0.16004294951E+04  0.00000000000E+00 0.  1.
          1   -1    0    0  501    0  0.00000000000E+00 -0.00000000000E+00 -0.10846248176E+04  0.10846248176E+04  0.00000000000E+00 0. -1.
         23    2    1    2    0    0 -0.42875193908E+03 -0.11242864942E+04  0.58041343735E+03  0.13390120642E+04  0.90692907979E+02 0.  0.
    5000000    2    1    2    0    0  0.42875193908E+03  0.11242864942E+04 -0.64608759813E+02  0.13460422485E+04  0.59983922571E+03 0.  0.
         23    2    4    4    0    0  0.42975962454E+03  0.75623052934E+03 -0.27014094149E+03  0.91462590466E+03  0.83585099139E+02 0.  0.
         23    2    4    4    0    0 -0.10076854693E+01  0.36805596482E+03  0.20553218168E+03  0.43141634385E+03  0.91708098693E+02 0.  0.
          3    1    3    3  502    0 -0.34175503314E+02 -0.17804093490E+03  0.95297454118E+02  0.20481246126E+03  0.00000000000E+00 0. -1.
         -3    1    3    3    0  502 -0.39457643576E+03 -0.94624555926E+03  0.48511598323E+03  0.11341996029E+04  0.00000000000E+00 0.  1.
         11    1    5    5    0    0  0.23239638747E+03  0.46768368391E+03 -0.13143967490E+03  0.53852808399E+03  0.00000000000E+00 0.  1.
        -11    1    5    5    0    0  0.19736323707E+03  0.28854684543E+03 -0.13870126659E+03  0.37609782067E+03  0.00000000000E+00 0. -1.
          1    1    6    6  503    0 -0.30106426892E+02  0.12497532864E+03  0.35553027838E+02  0.13337633785E+03  0.00000000000E+00 0. -1.
         -1    1    6    6    0  503  0.29098741423E+02  0.24308063617E+03  0.16997915384E+03  0.29804000600E+03  0.00000000000E+00 0.  1.
<mgrwt>
<rscale>  0 0.12258523E+04</rscale>
<asrwt>0</asrwt>
<pdfrwt beam="1">  1        1 0.16686535E+00 0.12258523E+04</pdfrwt>
<pdfrwt beam="2">  1       -1 0.24621992E+00 0.12258523E+04</pdfrwt>
<totfact> 0.94052379E-01</totfact>
</mgrwt>
</event>
<event>
12    1  0.1338445E-007  0.4920872E+03  0.7818608E-02  0.1015865E+00
          1   -1    0    0  501    0  0.00000000000E+00  0.00000000000E+00  0.54375500218E+03  0.54375500218E+03  0.00000000000E+00 0. -1.
         -1   -1    0    0    0  501 -0.00000000000E+00 -0.00000000000E+00 -0.65934562991E+03  0.65934562991E+03  0.00000000000E+00 0.  1.
         23    2    1    2    0    0 -0.42858935200E+03  0.11095237660E+03 -0.36425685697E+02  0.45317195145E+03  0.89658934215E+02 0.  0.
    5000000    2    1    2    0    0  0.42858935200E+03 -0.11095237660E+03 -0.79164942033E+02  0.74992868065E+03  0.60010555363E+03 0.  0.
         23    2    4    4    0    0  0.24507725402E+02 -0.99568554587E+02  0.20609538598E+03  0.24682119315E+03  0.89055418694E+02 0.  0.
         23    2    4    4    0    0  0.40408162659E+03 -0.11383822017E+02 -0.28526032801E+03  0.50310748750E+03  0.91280539485E+02 0.  0.
          1    1    3    3  502    0 -0.19571720145E+03  0.50742155236E+02  0.28114968649E+02  0.20413338953E+03  0.00000000000E+00 0. -1.
         -1    1    3    3    0  502 -0.23287215055E+03  0.60210221369E+02 -0.64540654346E+02  0.24903856192E+03  0.00000000000E+00 0.  1.
         13    1    5    5    0    0  0.11291050007E+02 -0.11487843514E+03  0.17942267284E+03  0.21334722449E+03  0.00000000000E+00 0. -1.
        -13    1    5    5    0    0  0.13216675394E+02  0.15309880557E+02  0.26672713138E+02  0.33473968652E+02  0.00000000000E+00 0.  1.
          2    1    6    6  503    0  0.13902252118E+03  0.12953985897E+02 -0.14858618008E+03  0.20389438456E+03  0.00000000000E+00 0. -1.
         -2    1    6    6    0  503  0.26505910542E+03 -0.24337807915E+02 -0.13667414793E+03  0.29921310294E+03  0.00000000000E+00 0.  1.
<mgrwt>
<rscale>  0 0.49208722E+03</rscale>
<asrwt>0</asrwt>
<pdfrwt beam="1">  1        1 0.83654616E-01 0.49208722E+03</pdfrwt>
<pdfrwt beam="2">  1       -1 0.10143779E+00 0.49208722E+03</pdfrwt>
<totfact> 0.38304145E+01</totfact>
</mgrwt>
</event>
<event>
12    1  0.1338445E-007  0.4214103E+03  0.7818608E-02  0.1036608E+00
          1   -1    0    0  501    0  0.00000000000E+00  0.00000000000E+00  0.11324746371E+04  0.11324746371E+04  0.00000000000E+00 0. -1.
         -1   -1    0    0    0  501 -0.00000000000E+00 -0.00000000000E+00 -0.29783636627E+03  0.29783636627E+03  0.00000000000E+00 0.  1.
         23    2    1    2    0    0  0.46921395601E+02 -0.33054621822E+03 -0.40822029455E+01  0.34637792227E+03  0.92187748158E+02 0.  0.
    5000000    2    1    2    0    0 -0.46921395601E+02  0.33054621822E+03  0.83872047377E+03  0.10839330811E+04  0.59999705951E+03 0.  0.
         23    2    4    4    0    0 -0.19063952909E+03  0.19482801234E+03  0.81501733480E+03  0.86411343130E+03  0.90207436951E+02 0.  0.
         23    2    4    4    0    0  0.14371813349E+03  0.13571820589E+03  0.23703138965E+02  0.21981964979E+03  0.93190698752E+02 0.  0.
          2    1    3    3  502    0  0.37304354235E+02 -0.74406978079E+02 -0.30619732072E+02  0.88688112078E+02  0.00000000000E+00 0. -1.
         -2    1    3    3    0  502  0.96170413664E+01 -0.25613924015E+03  0.26537529127E+02  0.25768981020E+03  0.00000000000E+00 0.  1.
         13    1    5    5    0    0 -0.83529019622E+02  0.14405458334E+03  0.42410573513E+03  0.45562538853E+03  0.00000000000E+00 0.  1.
        -13    1    5    5    0    0 -0.10711050947E+03  0.50773429003E+02  0.39091159967E+03  0.40848804277E+03  0.00000000000E+00 0. -1.
          2    1    6    6  503    0  0.86620081352E+02  0.19593769697E+02  0.15556253308E+02  0.90160697210E+02  0.00000000000E+00 0. -1.
         -2    1    6    6    0  503  0.57098052138E+02  0.11612443619E+03  0.81468856570E+01  0.12965895258E+03  0.00000000000E+00 0.  1.
<mgrwt>
<rscale>  0 0.42141032E+03</rscale>
<asrwt>0</asrwt>
<pdfrwt beam="1">  1        1 0.17422686E+00 0.42141032E+03</pdfrwt>
<pdfrwt beam="2">  1       -1 0.45820980E-01 0.42141032E+03</pdfrwt>
<totfact> 0.60620493E+01</totfact>
</mgrwt>
</event>
<event>
12    1  0.1338445E-007  0.9124611E+03  0.7818608E-02  0.9410137E-01
         -2   -1    0    0    0  501 -0.00000000000E+00  0.00000000000E+00  0.20083199808E+04  0.20083199808E+04  0.00000000000E+00 0.  1.
          2   -1    0    0  501    0  0.00000000000E+00 -0.00000000000E+00 -0.44974207438E+03  0.44974207438E+03  0.00000000000E+00 0. -1.
         23    2    1    2    0    0  0.81423484260E+03 -0.23906185923E+03  0.59445021101E+03  0.10403927334E+04  0.94430053399E+02 0.  0.
    5000000    2    1    2    0    0 -0.81423484260E+03  0.23906185923E+03  0.96412769540E+03  0.14176693217E+04  0.60009594342E+03 0.  0.
         23    2    4    4    0    0  0.33846719428E+02  0.36776892306E+02 -0.13716004200E+02  0.10416074547E+03  0.90350384073E+02 0.  0.
         23    2    4    4    0    0 -0.84808156203E+03  0.20228496692E+03  0.97784369960E+03  0.13135085763E+04  0.94683342692E+02 0.  0.
          2    1    3    3  502    0  0.79983257306E+03 -0.22368288573E+03  0.59026651140E+03  0.10189115432E+04  0.00000000000E+00 0. -1.
         -2    1    3    3    0  502  0.14402269536E+02 -0.15378973491E+02  0.41836996107E+01  0.21481190281E+02  0.00000000000E+00 0.  1.
         13    1    5    5    0    0 -0.27761722899E+02  0.20754301264E+02 -0.20290719591E+02  0.40164257504E+02  0.00000000000E+00 0.  1.
        -13    1    5    5    0    0  0.61608442327E+02  0.16022591042E+02  0.65747153906E+01  0.63996487967E+02  0.00000000000E+00 0. -1.
          3    1    6    6  503    0 -0.13365480991E+03  0.60225711664E+02  0.19836462957E+03  0.24665617937E+03  0.00000000000E+00 0. -1.
         -3    1    6    6    0  503 -0.71442675211E+03  0.14205925526E+03  0.77947907003E+03  0.10668523969E+04  0.00000000000E+00 0.  1.
<mgrwt>
<rscale>  0 0.91246109E+03</rscale>
<asrwt>0</asrwt>
<pdfrwt beam="1">  1        2 0.69191089E-01 0.91246109E+03</pdfrwt>
<pdfrwt beam="2">  1       -2 0.30897230E+00 0.91246109E+03</pdfrwt>
<totfact> 0.19872740E+00</totfact>
</mgrwt>
</event>
<event>
12    1  0.1338445E-007  0.4650445E+03  0.7818608E-02  0.1023328E+00
         -2   -1    0    0    0  501 -0.00000000000E+00  0.00000000000E+00  0.25538226028E+03  0.25538226028E+03  0.00000000000E+00 0.  1.
          2   -1    0    0  501    0  0.00000000000E+00 -0.00000000000E+00 -0.14734318356E+04  0.14734318356E+04  0.00000000000E+00 0. -1.
         23    2    1    2    0    0 -0.29714154550E+03 -0.33871736390E+03 -0.32911690110E+03  0.56551448140E+03  0.92011648232E+02 0.  0.
    5000000    2    1    2    0    0  0.29714154550E+03  0.33871736390E+03 -0.88893267421E+03  0.11632996145E+04  0.60003511821E+03 0.  0.
         23    2    4    4    0    0  0.19271177867E+03  0.18648898912E+03 -0.34675491536E+02  0.28489370109E+03  0.89699824446E+02 0.  0.
         23    2    4    4    0    0  0.10442976683E+03  0.15222837478E+03 -0.85425718268E+03  0.87840591338E+03  0.88105392720E+02 0.  0.
          2    1    3    3  502    0 -0.14112360546E+03 -0.20907843860E+03 -0.22248018420E+03  0.33634371983E+03  0.00000000000E+00 0.  1.
         -2    1    3    3    0  502 -0.15601794004E+03 -0.12963892530E+03 -0.10663671690E+03  0.22917076157E+03  0.00000000000E+00 0. -1.
         13    1    5    5    0    0  0.14592535573E+03  0.16535295945E+03 -0.58696664165E+02  0.22821285903E+03  0.00000000000E+00 0.  1.
        -13    1    5    5    0    0  0.46786422943E+02  0.21136029672E+02  0.24021172629E+02  0.56680842059E+02  0.00000000000E+00 0. -1.
          2    1    6    6  503    0 -0.11357810697E+02  0.41056013379E+02 -0.14017617804E+03  0.14650582579E+03  0.00000000000E+00 0.  1.
         -2    1    6    6    0  503  0.11578757753E+03  0.11117236140E+03 -0.71408100463E+03  0.73190008760E+03  0.00000000000E+00 0. -1.
<mgrwt>
<rscale>  0 0.46504453E+03</rscale>
<asrwt>0</asrwt>
<pdfrwt beam="1">  1        2 0.22668182E+00 0.46504453E+03</pdfrwt>
<pdfrwt beam="2">  1       -2 0.39289579E-01 0.46504453E+03</pdfrwt>
<totfact> 0.84828892E+01</totfact>
</mgrwt>
</event>
<event>
12    1  0.1338445E-007  0.4986065E+03  0.7818608E-02  0.1014143E+00
         -2   -1    0    0    0  501 -0.00000000000E+00  0.00000000000E+00  0.11769858406E+03  0.11769858406E+03  0.00000000000E+00 0.  1.
          2   -1    0    0  501    0  0.00000000000E+00 -0.00000000000E+00 -0.24010452735E+04  0.24010452735E+04  0.00000000000E+00 0. -1.
         23    2    1    2    0    0 -0.29683522229E+03 -0.17808932286E+03 -0.97222531827E+03  0.10358998603E+04  0.89663231063E+02 0.  0.
    5000000    2    1    2    0    0  0.29683522229E+03  0.17808932286E+03 -0.13111213712E+04  0.14828439972E+04  0.59996676085E+03 0.  0.
         23    2    4    4    0    0  0.44783831631E+03  0.10525557548E+03 -0.11147018632E+04  0.12093486182E+04  0.91246603733E+02 0.  0.
         23    2    4    4    0    0 -0.15100309403E+03  0.72833747377E+02 -0.19641950796E+03  0.27349537908E+03  0.90068918648E+02 0.  0.
          3    1    3    3  502    0 -0.72655478939E+02 -0.52070069857E+02 -0.37775371560E+03  0.38818549747E+03  0.00000000000E+00 0. -1.
         -3    1    3    3    0  502 -0.22417974335E+03 -0.12601925300E+03 -0.59447160267E+03  0.64771436284E+03  0.00000000000E+00 0.  1.
         11    1    5    5    0    0  0.17021591314E+03  0.30573028634E+02 -0.31211939478E+03  0.35682864762E+03  0.00000000000E+00 0.  1.
        -11    1    5    5    0    0  0.27762240317E+03  0.74682546848E+02 -0.80258246842E+03  0.85251997054E+03  0.00000000000E+00 0. -1.
          2    1    6    6  503    0 -0.27960836910E+02 -0.21424214490E+02 -0.33138149138E+02  0.48362612580E+02  0.00000000000E+00 0. -1.
         -2    1    6    6    0  503 -0.12304225712E+03  0.94257961867E+02 -0.16328135883E+03  0.22513276650E+03  0.00000000000E+00 0.  1.
<mgrwt>
<rscale>  0 0.49860646E+03</rscale>
<asrwt>0</asrwt>
<pdfrwt beam="1">  1        2 0.36939158E+00 0.49860646E+03</pdfrwt>
<pdfrwt beam="2">  1       -2 0.18107475E-01 0.49860646E+03</pdfrwt>
<totfact> 0.10805027E+02</totfact>
</mgrwt>
</event>
<event>
12    1  0.1338445E-007  0.8028262E+03  0.7818608E-02  0.9555935E-01
          1   -1    0    0  501    0  0.00000000000E+00  0.00000000000E+00  0.82711228056E+03  0.82711228056E+03  0.00000000000E+00 0. -1.
         -1   -1    0    0    0  501 -0.00000000000E+00 -0.00000000000E+00 -0.86794844632E+03  0.86794844632E+03  0.00000000000E+00 0.  1.
         23    2    1    2    0    0 -0.36923705258E+02  0.69455220874E+03 -0.26538755220E+03  0.74952881936E+03  0.87159437323E+02 0.  0.
    5000000    2    1    2    0    0  0.36923705258E+02 -0.69455220874E+03  0.22455138645E+03  0.94553190751E+03  0.59986759564E+03 0.  0.
         23    2    4    4    0    0 -0.25008242783E+03 -0.19773202329E+03  0.27403367733E+02  0.33209875707E+03  0.88878940925E+02 0.  0.
         23    2    4    4    0    0  0.28700613309E+03 -0.49682018545E+03  0.19714801872E+03  0.61343315044E+03  0.90719742518E+02 0.  0.
          3    1    3    3  502    0 -0.51313241722E+02  0.36482374471E+03 -0.10825644422E+03  0.38399071759E+03  0.00000000000E+00 0. -1.
         -3    1    3    3    0  502  0.14389536463E+02  0.32972846403E+03 -0.15713110798E+03  0.36553810177E+03  0.00000000000E+00 0.  1.
         11    1    5    5    0    0 -0.25680031340E+02  0.58882596549E+01 -0.66618870665E+01  0.27175657318E+02  0.00000000000E+00 0.  1.
        -11    1    5    5    0    0 -0.22440239649E+03 -0.20362028295E+03  0.34065254799E+02  0.30492309975E+03  0.00000000000E+00 0. -1.
          3    1    6    6  503    0  0.14970200969E+03 -0.32556149450E+03  0.15251322558E+03  0.38943710966E+03  0.00000000000E+00 0. -1.
         -3    1    6    6    0  503  0.13730412340E+03 -0.17125869095E+03  0.44634793133E+02  0.22399604078E+03  0.00000000000E+00 0.  1.
<mgrwt>
<rscale>  0 0.80282624E+03</rscale>
<asrwt>0</asrwt>
<pdfrwt beam="1">  1        1 0.12724804E+00 0.80282624E+03</pdfrwt>
<pdfrwt beam="2">  1       -1 0.13353053E+00 0.80282624E+03</pdfrwt>
<totfact> 0.10163769E+01</totfact>
</mgrwt>
</event>
<event>
12    1  0.1338445E-007  0.7677450E+03  0.7818608E-02  0.9607915E-01
         -1   -1    0    0    0  501 -0.00000000000E+00  0.00000000000E+00  0.16227580915E+04  0.16227580915E+04  0.00000000000E+00 0.  1.
          1   -1    0    0  501    0  0.00000000000E+00 -0.00000000000E+00 -0.94700983859E+03  0.94700983859E+03  0.00000000000E+00 0. -1.
         23    2    1    2    0    0 -0.89885108400E+02  0.72203027334E+03 -0.62487691104E+03  0.96322619533E+03  0.89030899680E+02 0.  0.
    5000000    2    1    2    0    0  0.89885108400E+02 -0.72203027334E+03  0.13006251640E+04  0.16065417348E+04  0.59995289823E+03 0.  0.
         23    2    4    4    0    0  0.22217098898E+03 -0.51986561569E+03  0.48295696172E+03  0.74930339963E+03  0.92671198908E+02 0.  0.
         23    2    4    4    0    0 -0.13228588058E+03 -0.20216465764E+03  0.81766820224E+03  0.85723833513E+03  0.88916653464E+02 0.  0.
          4    1    3    3  502    0 -0.48861425319E+02  0.45262254487E+03 -0.44556753065E+03  0.63701258337E+03  0.00000000000E+00 0. -1.
         -4    1    3    3    0  502 -0.41023683081E+02  0.26940772846E+03 -0.17930938039E+03  0.32621361196E+03  0.00000000000E+00 0.  1.
         13    1    5    5    0    0  0.12104016297E+03 -0.31966559479E+03  0.23415095988E+03  0.41432292425E+03  0.00000000000E+00 0. -1.
        -13    1    5    5    0    0  0.10113082601E+03 -0.20020002090E+03  0.24880600184E+03  0.33498047538E+03  0.00000000000E+00 0.  1.
          4    1    6    6  503    0 -0.23881106242E+02 -0.34454297896E+02  0.29059508341E+03  0.29360331807E+03  0.00000000000E+00 0.  1.
         -4    1    6    6    0  503 -0.10840477434E+03 -0.16771035975E+03  0.52707311883E+03  0.56363501706E+03  0.00000000000E+00 0. -1.
<mgrwt>
<rscale>  0 0.76774495E+03</rscale>
<asrwt>0</asrwt>
<pdfrwt beam="1">  1        1 0.14569382E+00 0.76774495E+03</pdfrwt>
<pdfrwt beam="2">  1       -1 0.24965509E+00 0.76774495E+03</pdfrwt>
<totfact> 0.12227380E+00</totfact>
</mgrwt>
</event>
<event>
12    1  0.1338445E-007  0.4204194E+03  0.7818608E-02  0.1036930E+00
          1   -1    0    0  501    0  0.00000000000E+00  0.00000000000E+00  0.91133954069E+03  0.91133954069E+03  0.00000000000E+00 0. -1.
         -1   -1    0    0    0  501 -0.00000000000E+00 -0.00000000000E+00 -0.34123264430E+03  0.34123264430E+03  0.00000000000E+00 0.  1.
         23    2    1    2    0    0 -0.23217137352E+03 -0.13114420976E+03 -0.11449352654E+03  0.30400580282E+03  0.90600276451E+02 0.  0.
    5000000    2    1    2    0    0  0.23217137352E+03  0.13114420976E+03  0.68460042293E+03  0.94856638218E+03  0.59999840990E+03 0.  0.
         23    2    4    4    0    0 -0.64968650551E+02 -0.13429116309E+03  0.43754547158E+03  0.47116267441E+03  0.91066920549E+02 0.  0.
         23    2    4    4    0    0  0.29714002407E+03  0.26543537285E+03  0.24705495136E+03  0.47740370777E+03  0.90166624308E+02 0.  0.
          3    1    3    3  502    0 -0.19652791682E+03 -0.84325699150E+02 -0.56064923266E+02  0.22108215949E+03  0.00000000000E+00 0. -1.
         -3    1    3    3    0  502 -0.35643456699E+02 -0.46818510612E+02 -0.58428603277E+02  0.82923643325E+02  0.00000000000E+00 0.  1.
         11    1    5    5    0    0 -0.50058971188E+02 -0.23424949687E+02  0.85821718066E+02  0.10207838241E+03  0.00000000000E+00 0. -1.
        -11    1    5    5    0    0 -0.14909679363E+02 -0.11086621340E+03  0.35172375351E+03  0.36908429199E+03  0.00000000000E+00 0.  1.
          1    1    6    6  503    0  0.14246798910E+03  0.15763797356E+03  0.85187411974E+02  0.22891866194E+03  0.00000000000E+00 0. -1.
         -1    1    6    6    0  503  0.15467203497E+03  0.10779739930E+03  0.16186753938E+03  0.24848504583E+03  0.00000000000E+00 0.  1.
<mgrwt>
<rscale>  0 0.42041945E+03</rscale>
<asrwt>0</asrwt>
<pdfrwt beam="1">  1        1 0.14020608E+00 0.42041945E+03</pdfrwt>
<pdfrwt beam="2">  1       -1 0.52497330E-01 0.42041945E+03</pdfrwt>
<totfact> 0.69145475E+01</totfact>
</mgrwt>
</event>
<event>
12    1  0.1338445E-007  0.1510131E+04  0.7818608E-02  0.8877744E-01
         -1   -1    0    0    0  501 -0.00000000000E+00  0.00000000000E+00  0.75608980963E+03  0.75608980963E+03  0.00000000000E+00 0.  1.
          1   -1    0    0  501    0  0.00000000000E+00 -0.00000000000E+00 -0.31119776808E+04  0.31119776808E+04  0.00000000000E+00 0. -1.
         23    2    1    2    0    0  0.76005044370E+03  0.12619173699E+04 -0.10792121980E+04  0.18284481572E+04  0.91714611714E+02 0.  0.
    5000000    2    1    2    0    0 -0.76005044370E+03 -0.12619173699E+04 -0.12766756731E+04  0.20396193332E+04  0.60002843649E+03 0.  0.
         23    2    4    4    0    0 -0.18924811574E+03 -0.75934391256E+03 -0.86511620957E+03  0.11701632351E+04  0.91858117509E+02 0.  0.
         23    2    4    4    0    0 -0.57080232796E+03 -0.50257345729E+03 -0.41155946354E+03  0.86945609812E+03  0.90428628971E+02 0.  0.
          3    1    3    3  502    0  0.19158368647E+03  0.25739144061E+03 -0.26140401192E+03  0.41386799836E+03  0.00000000000E+00 0. -1.
         -3    1    3    3    0  502  0.56846675723E+03  0.10045259292E+04 -0.81780818609E+03  0.14145801589E+04  0.00000000000E+00 0.  1.
         11    1    5    5    0    0  0.40974611474E+01 -0.12106610791E+02 -0.31994325309E+02  0.34452809242E+02  0.00000000000E+00 0. -1.
        -11    1    5    5    0    0 -0.19334557689E+03 -0.74723730177E+03 -0.83312188426E+03  0.11357104258E+04  0.00000000000E+00 0.  1.
          3    1    6    6  503    0 -0.79837970865E+02 -0.73127164304E+02 -0.24581771893E+02  0.11102228272E+03  0.00000000000E+00 0. -1.
         -3    1    6    6    0  503 -0.49096435709E+03 -0.42944629299E+03 -0.38697769165E+03  0.75843381539E+03  0.00000000000E+00 0.  1.
<mgrwt>
<rscale>  0 0.15101307E+04</rscale>
<asrwt>0</asrwt>
<pdfrwt beam="1">  1        1 0.47876580E+00 0.15101307E+04</pdfrwt>
<pdfrwt beam="2">  1       -1 0.11632151E+00 0.15101307E+04</pdfrwt>
<totfact> 0.31566141E-01</totfact>
</mgrwt>
</event>
<event>
12    1  0.1338445E-007  0.1034274E+04  0.7818608E-02  0.9271733E-01
         -2   -1    0    0    0  501 -0.00000000000E+00  0.00000000000E+00  0.82441020997E+03  0.82441020997E+03  0.00000000000E+00 0. -1.
          2   -1    0    0  501    0  0.00000000000E+00 -0.00000000000E+00 -0.14278394234E+04  0.14278394234E+04  0.00000000000E+00 0.  1.
         23    2    1    2    0    0  0.55330133123E+03  0.83206617631E+03 -0.24550179485E+03  0.10330366182E+04  0.91744418858E+02 0.  0.
    5000000    2    1    2    0    0 -0.55330133123E+03 -0.83206617631E+03 -0.35792741855E+03  0.12192130151E+04  0.59990987192E+03 0.  0.
         23    2    4    4    0    0 -0.31077332637E+03 -0.18312883835E+03 -0.36329469719E+03  0.52030658098E+03  0.92842174619E+02 0.  0.
         23    2    4    4    0    0 -0.24252800486E+03 -0.64893733796E+03  0.53672786363E+01  0.69890643415E+03  0.92205717218E+02 0.  0.
          2    1    3    3  502    0  0.36989326189E+03  0.56802843462E+03 -0.20979884515E+03  0.70957232412E+03  0.00000000000E+00 0. -1.
         -2    1    3    3    0  502  0.18340806934E+03  0.26403774169E+03 -0.35702949697E+02  0.32346429409E+03  0.00000000000E+00 0.  1.
         13    1    5    5    0    0 -0.22479392723E+03 -0.17725100535E+03 -0.28166475862E+03  0.40160336760E+03  0.00000000000E+00 0. -1.
        -13    1    5    5    0    0 -0.85979399135E+02 -0.58778330035E+01 -0.81629938568E+02  0.11870321338E+03  0.00000000000E+00 0.  1.
          2    1    6    6  503    0 -0.10824551914E+03 -0.19097627276E+03 -0.23605856058E+02  0.22078556477E+03  0.00000000000E+00 0. -1.
         -2    1    6    6    0  503 -0.13428248573E+03 -0.45796106519E+03  0.28973134694E+02  0.47812086938E+03  0.00000000000E+00 0.  1.
<mgrwt>
<rscale>  0 0.10342736E+04</rscale>
<asrwt>0</asrwt>
<pdfrwt beam="1">  1        2 0.21966760E+00 0.10342736E+04</pdfrwt>
<pdfrwt beam="2">  1       -2 0.12683234E+00 0.10342736E+04</pdfrwt>
<totfact> 0.63813496E+00</totfact>
</mgrwt>
</event>
<event>
12    1  0.1338445E-007  0.7441316E+03  0.7818608E-02  0.9644602E-01
         -1   -1    0    0    0  501 -0.00000000000E+00  0.00000000000E+00  0.42398020382E+03  0.42398020382E+03  0.00000000000E+00 0.  1.
          1   -1    0    0  501    0  0.00000000000E+00 -0.00000000000E+00 -0.14638274686E+04  0.14638274686E+04  0.00000000000E+00 0. -1.
         23    2    1    2    0    0 -0.50897582597E+03 -0.43598142679E+03 -0.43277330096E+03  0.80253563973E+03  0.87375780845E+02 0.  0.
    5000000    2    1    2    0    0  0.50897582597E+03  0.43598142679E+03 -0.60707396384E+03  0.10852720327E+04  0.60011698152E+03 0.  0.
         23    2    4    4    0    0  0.52241024302E+03  0.20487748181E+03 -0.19001380665E+03  0.59963884701E+03  0.92597276160E+02 0.  0.
         23    2    4    4    0    0 -0.13434417053E+02  0.23110394498E+03 -0.41706015718E+03  0.48563318571E+03  0.91164134435E+02 0.  0.
          2    1    3    3  502    0 -0.32292110870E+03 -0.23082213583E+03 -0.22468079834E+03  0.45611222520E+03  0.00000000000E+00 0.  1.
         -2    1    3    3    0  502 -0.18605471727E+03 -0.20515929096E+03 -0.20809250262E+03  0.34642341453E+03  0.00000000000E+00 0. -1.
         13    1    5    5    0    0  0.34901570443E+03  0.96823501997E+02 -0.14677588330E+03  0.39080674559E+03  0.00000000000E+00 0. -1.
        -13    1    5    5    0    0  0.17339453860E+03  0.10805397981E+03 -0.43237923351E+02  0.20883210142E+03  0.00000000000E+00 0.  1.
          4    1    6    6  503    0  0.37474051212E+02  0.11858462182E+03 -0.23026101194E+03  0.26169973379E+03  0.00000000000E+00 0. -1.
         -4    1    6    6    0  503 -0.50908468265E+02  0.11251932316E+03 -0.18679914525E+03  0.22393345192E+03  0.00000000000E+00 0.  1.
<mgrwt>
<rscale>  0 0.74413156E+03</rscale>
<asrwt>0</asrwt>
<pdfrwt beam="1">  1        1 0.22520422E+00 0.74413156E+03</pdfrwt>
<pdfrwt beam="2">  1       -1 0.65227724E-01 0.74413156E+03</pdfrwt>
<totfact> 0.17109728E+01</totfact>
</mgrwt>
</event>
<event>
12    1  0.1338445E-007  0.1075910E+04  0.7818608E-02  0.9228995E-01
         -2   -1    0    0    0  501 -0.00000000000E+00  0.00000000000E+00  0.59077714786E+03  0.59077714786E+03  0.00000000000E+00 0.  1.
          2   -1    0    0  501    0  0.00000000000E+00 -0.00000000000E+00 -0.37058853091E+04  0.37058853091E+04  0.00000000000E+00 0. -1.
         23    2    1    2    0    0 -0.27017280666E+03 -0.10356414431E+04 -0.14610960049E+03  0.10841131681E+04  0.91688612724E+02 0.  0.
    5000000    2    1    2    0    0  0.27017280666E+03  0.10356414431E+04 -0.29689985607E+04  0.32125492888E+04  0.59997827913E+03 0.  0.
         23    2    4    4    0    0  0.43930872197E+02  0.34155434833E+03 -0.37722978300E+03  0.51846519580E+03  0.88963788569E+02 0.  0.
         23    2    4    4    0    0  0.22624193446E+03  0.69408709480E+03 -0.25917687777E+04  0.26940840930E+04  0.88777221646E+02 0.  0.
          3    1    3    3  502    0 -0.14068745059E+03 -0.44418307499E+03 -0.10254358393E+03  0.47708149143E+03  0.00000000000E+00 0. -1.
         -3    1    3    3    0  502 -0.12948535607E+03 -0.59145836815E+03 -0.43566016563E+02  0.60703167667E+03  0.00000000000E+00 0.  1.
         13    1    5    5    0    0 -0.16110817601E+02  0.10114873431E+03 -0.71413298855E+02  0.12486186026E+03  0.00000000000E+00 0. -1.
        -13    1    5    5    0    0  0.60041689798E+02  0.24040561403E+03 -0.30581648414E+03  0.39360333553E+03  0.00000000000E+00 0.  1.
          1    1    6    6  503    0  0.18735665465E+03  0.55394077185E+03 -0.21927855246E+04  0.22694187035E+04  0.00000000000E+00 0. -1.
         -1    1    6    6    0  503  0.38885279810E+02  0.14014632295E+03 -0.39898325314E+03  0.42466538958E+03  0.00000000000E+00 0.  1.
<mgrwt>
<rscale>  0 0.10759096E+04</rscale>
<asrwt>0</asrwt>
<pdfrwt beam="1">  1        2 0.57013621E+00 0.10759096E+04</pdfrwt>
<pdfrwt beam="2">  1       -2 0.90888791E-01 0.10759096E+04</pdfrwt>
<totfact> 0.61314264E-01</totfact>
</mgrwt>
</event>
<event>
12    1  0.1338445E-007  0.5149475E+03  0.7818608E-02  0.1009949E+00
          1   -1    0    0  501    0  0.00000000000E+00  0.00000000000E+00  0.81218162188E+03  0.81218162188E+03  0.00000000000E+00 0. -1.
         -1   -1    0    0    0  501 -0.00000000000E+00 -0.00000000000E+00 -0.39687930708E+03  0.39687930708E+03  0.00000000000E+00 0.  1.
         23    2    1    2    0    0  0.25217245816E+03  0.26650553487E+03 -0.30782858090E+02  0.37677446642E+03  0.79970403419E+02 0.  0.
    5000000    2    1    2    0    0 -0.25217245816E+03 -0.26650553487E+03  0.44608517289E+03  0.83228646253E+03  0.59924337749E+03 0.  0.
         23    2    4    4    0    0  0.15896762341E+03 -0.10874569295E+03  0.28175047295E+03  0.35414439082E+03  0.94544114107E+02 0.  0.
         23    2    4    4    0    0 -0.41114008157E+03 -0.15775984192E+03  0.16433469994E+03  0.47814207172E+03  0.87690437032E+02 0.  0.
          4    1    3    3  502    0  0.12320129937E+03  0.80191666867E+02  0.64311089136E+01  0.14714150591E+03  0.00000000000E+00 0. -1.
         -4    1    3    3    0  502  0.12897115879E+03  0.18631386801E+03 -0.37213967004E+02  0.22963296051E+03  0.00000000000E+00 0.  1.
         13    1    5    5    0    0  0.14939873904E+03 -0.55595889822E+02  0.19379781631E+03  0.25093521036E+03  0.00000000000E+00 0. -1.
        -13    1    5    5    0    0  0.95688843673E+01 -0.53149803127E+02  0.87952656639E+02  0.10320918046E+03  0.00000000000E+00 0.  1.
          2    1    6    6  503    0 -0.23910104911E+03 -0.11647042254E+03  0.13682557974E+03  0.29909180912E+03  0.00000000000E+00 0. -1.
         -2    1    6    6    0  503 -0.17203903245E+03 -0.41289419387E+02  0.27509120199E+02  0.17905026259E+03  0.00000000000E+00 0.  1.
<mgrwt>
<rscale>  0 0.51494746E+03</rscale>
<asrwt>0</asrwt>
<pdfrwt beam="1">  1        1 0.12495102E+00 0.51494746E+03</pdfrwt>
<pdfrwt beam="2">  1       -1 0.61058355E-01 0.51494746E+03</pdfrwt>
<totfact> 0.61497853E+01</totfact>
</mgrwt>
</event>
<event>
12    1  0.1338445E-007  0.8653911E+03  0.7818608E-02  0.9469909E-01
         -1   -1    0    0    0  501 -0.00000000000E+00  0.00000000000E+00  0.65704769545E+03  0.65704769545E+03  0.00000000000E+00 0.  1.
          1   -1    0    0  501    0  0.00000000000E+00 -0.00000000000E+00 -0.14330652678E+04  0.14330652678E+04  0.00000000000E+00 0. -1.
         23    2    1    2    0    0  0.80955520077E+03  0.65090772683E+02 -0.70292502592E+03  0.10778445510E+04  0.89603863519E+02 0.  0.
    5000000    2    1    2    0    0 -0.80955520077E+03 -0.65090772683E+02 -0.73092546479E+02  0.10122684123E+04  0.59977361257E+03 0.  0.
         23    2    4    4    0    0 -0.57025744875E+03  0.14920811920E+03  0.14488712288E+03  0.61355375815E+03  0.89438890214E+02 0.  0.
         23    2    4    4    0    0 -0.23929775202E+03 -0.21429889188E+03 -0.21797966936E+03  0.39871465411E+03  0.90943993560E+02 0.  0.
          4    1    3    3  502    0  0.37232380915E+03  0.56630886223E+02 -0.27810938795E+03  0.46816333453E+03  0.00000000000E+00 0. -1.
         -4    1    3    3    0  502  0.43723139161E+03  0.84598864603E+01 -0.42481563797E+03  0.60968121650E+03  0.00000000000E+00 0.  1.
         13    1    5    5    0    0 -0.35888425986E+03  0.84325407266E+02  0.13373518589E+03  0.39216550872E+03  0.00000000000E+00 0. -1.
        -13    1    5    5    0    0 -0.21137318889E+03  0.64882711932E+02  0.11151936987E+02  0.22138824943E+03  0.00000000000E+00 0.  1.
          3    1    6    6  503    0 -0.15514184784E+03 -0.17605997852E+03 -0.19058175066E+03  0.30230367625E+03  0.00000000000E+00 0. -1.
         -3    1    6    6    0  503 -0.84155904177E+02 -0.38238913362E+02 -0.27397918694E+02  0.96410977859E+02  0.00000000000E+00 0.  1.
<mgrwt>
<rscale>  0 0.86539108E+03</rscale>
<asrwt>0</asrwt>
<pdfrwt beam="1">  1        1 0.22047158E+00 0.86539108E+03</pdfrwt>
<pdfrwt beam="2">  1       -1 0.10108426E+00 0.86539108E+03</pdfrwt>
<totfact> 0.69208730E+00</totfact>
</mgrwt>
</event>
<event>
12    1  0.1338445E-007  0.1352680E+04  0.7818608E-02  0.8988802E-01
          1   -1    0    0  501    0  0.00000000000E+00  0.00000000000E+00  0.15862112221E+04  0.15862112221E+04  0.00000000000E+00 0. -1.
         -1   -1    0    0    0  501 -0.00000000000E+00 -0.00000000000E+00 -0.17745867726E+04  0.17745867726E+04  0.00000000000E+00 0.  1.
         23    2    1    2    0    0  0.13130359039E+04 -0.31060916989E+02 -0.10458068915E+04  0.16814700568E+04  0.92743906367E+02 0.  0.
    5000000    2    1    2    0    0 -0.13130359039E+04  0.31060916989E+02  0.85743134100E+03  0.16793279378E+04  0.59993812400E+03 0.  0.
         23    2    4    4    0    0 -0.10626372122E+04 -0.14260025318E+03  0.83113586318E+03  0.13596777277E+04  0.91673459418E+02 0.  0.
         23    2    4    4    0    0 -0.25039869177E+03  0.17366117017E+03  0.26295477816E+02  0.31965021015E+03  0.92882171769E+02 0.  0.
          2    1    3    3  502    0  0.19088757822E+03  0.27529358624E+02 -0.14478449670E+03  0.24116070076E+03  0.00000000000E+00 0. -1.
         -2    1    3    3    0  502  0.11221483257E+04 -0.58590275613E+02 -0.90102239478E+03  0.14403093561E+04  0.00000000000E+00 0.  1.
         13    1    5    5    0    0 -0.23978791298E+03 -0.20194900140E+00  0.15911566580E+03  0.28777782941E+03  0.00000000000E+00 0. -1.
        -13    1    5    5    0    0 -0.82284929918E+03 -0.14239830418E+03  0.67202019739E+03  0.10718998983E+04  0.00000000000E+00 0.  1.
          2    1    6    6  503    0 -0.40175463372E+02 -0.16698724529E+01  0.22084343778E+02  0.45875642461E+02  0.00000000000E+00 0. -1.
         -2    1    6    6    0  503 -0.21022322840E+03  0.17533104262E+03  0.42111340389E+01  0.27377456769E+03  0.00000000000E+00 0.  1.
<mgrwt>
<rscale>  0 0.13526797E+04</rscale>
<asrwt>0</asrwt>
<pdfrwt beam="1">  1        1 0.24403250E+00 0.13526797E+04</pdfrwt>
<pdfrwt beam="2">  1       -1 0.27301335E+00 0.13526797E+04</pdfrwt>
<totfact> 0.27102939E-01</totfact>
</mgrwt>
</event>
<event>
12    1  0.1338445E-007  0.1549382E+04  0.7818608E-02  0.8852263E-01
         -1   -1    0    0    0  501 -0.00000000000E+00  0.00000000000E+00  0.17254067240E+04  0.17254067240E+04  0.00000000000E+00 0.  1.
          1   -1    0    0  501    0  0.00000000000E+00 -0.00000000000E+00 -0.16263988435E+04  0.16263988435E+04  0.00000000000E+00 0. -1.
         23    2    1    2    0    0  0.15270888243E+04 -0.11430605397E+03 -0.47933173821E+03  0.16083917291E+04  0.10999494351E+03 0.  0.
    5000000    2    1    2    0    0 -0.15270888243E+04  0.11430605397E+03  0.57833961872E+03  0.17434138385E+04  0.59995745369E+03 0.  0.
         23    2    4    4    0    0 -0.23767416196E+03  0.99138345093E+02 -0.91241473000E+02  0.28760117338E+03  0.89844364342E+02 0.  0.
         23    2    4    4    0    0 -0.12894146624E+04  0.15167708879E+02  0.66958109172E+03  0.14558126651E+04  0.90727319650E+02 0.  0.
          4    1    3    3  502    0  0.12772705524E+03 -0.35894189283E+02 -0.24792623369E+02  0.13497135858E+03  0.00000000000E+00 0. -1.
         -4    1    3    3    0  502  0.13993617691E+04 -0.78411864689E+02 -0.45453911484E+03  0.14734203705E+04  0.00000000000E+00 0.  1.
         13    1    5    5    0    0 -0.28795721287E+02  0.49830342057E+02 -0.11789751221E+02  0.58747381114E+02  0.00000000000E+00 0.  1.
        -13    1    5    5    0    0 -0.20887844067E+03  0.49308003037E+02 -0.79451721778E+02  0.22885379227E+03  0.00000000000E+00 0. -1.
          3    1    6    6  503    0 -0.41182452459E+03 -0.35197242427E+02  0.22958789291E+03  0.47280956578E+03  0.00000000000E+00 0. -1.
         -3    1    6    6    0  503 -0.87759013779E+03  0.50364951306E+02  0.43999319881E+03  0.98300309931E+03  0.00000000000E+00 0.  1.
<mgrwt>
<rscale>  0 0.15493817E+04</rscale>
<asrwt>0</asrwt>
<pdfrwt beam="1">  1        1 0.25021521E+00 0.15493817E+04</pdfrwt>
<pdfrwt beam="2">  1       -1 0.26544719E+00 0.15493817E+04</pdfrwt>
<totfact> 0.27808693E-01</totfact>
</mgrwt>
</event>
<event>
12    1  0.1338445E-007  0.1059660E+04  0.7818608E-02  0.9245427E-01
         -1   -1    0    0    0  501 -0.00000000000E+00  0.00000000000E+00  0.68575174698E+03  0.68575174698E+03  0.00000000000E+00 0.  1.
          1   -1    0    0  501    0  0.00000000000E+00 -0.00000000000E+00 -0.18117555757E+04  0.18117555757E+04  0.00000000000E+00 0. -1.
         23    2    1    2    0    0 -0.39180177464E+03  0.94767304610E+03 -0.65085014196E+03  0.12180575224E+04  0.92007540993E+02 0.  0.
    5000000    2    1    2    0    0  0.39180177464E+03 -0.94767304610E+03 -0.47515368675E+03  0.12794498003E+04  0.59968986360E+03 0.  0.
         23    2    4    4    0    0  0.42689995092E+03 -0.65694230850E+03 -0.55389543721E+03  0.96287973980E+03  0.80749446794E+02 0.  0.
         23    2    4    4    0    0 -0.35098176281E+02 -0.29073073760E+03  0.78741750464E+02  0.31657006049E+03  0.90885071193E+02 0.  0.
          3    1    3    3  502    0 -0.28469845643E+03  0.77972296910E+03 -0.51269033709E+03  0.97563953455E+03  0.00000000000E+00 0. -1.
         -3    1    3    3    0  502 -0.10710331821E+03  0.16795007700E+03 -0.13815980487E+03  0.24241798782E+03  0.00000000000E+00 0.  1.
         13    1    5    5    0    0  0.26487005256E+03 -0.46381157460E+03 -0.34910940296E+03  0.63808674702E+03  0.00000000000E+00 0.  1.
        -13    1    5    5    0    0  0.16202989836E+03 -0.19313073390E+03 -0.20478603425E+03  0.32479299278E+03  0.00000000000E+00 0. -1.
          1    1    6    6  503    0  0.20805433043E+02 -0.16418496705E+03  0.64004599859E+02  0.17744339450E+03  0.00000000000E+00 0.  1.
         -1    1    6    6    0  503 -0.55903609324E+02 -0.12654577055E+03  0.14737150605E+02  0.13912666599E+03  0.00000000000E+00 0. -1.
<mgrwt>
<rscale>  0 0.10596601E+04</rscale>
<asrwt>0</asrwt>
<pdfrwt beam="1">  1        1 0.27873163E+00 0.10596601E+04</pdfrwt>
<pdfrwt beam="2">  1       -1 0.10550027E+00 0.10596601E+04</pdfrwt>
<totfact> 0.33710012E+00</totfact>
</mgrwt>
</event>
<event>
12    1  0.1338445E-007  0.2472876E+04  0.7818608E-02  0.8412713E-01
          2   -1    0    0  501    0  0.00000000000E+00  0.00000000000E+00  0.21526001308E+04  0.21526001308E+04  0.00000000000E+00 0. -1.
         -2   -1    0    0    0  501 -0.00000000000E+00 -0.00000000000E+00 -0.29964694279E+04  0.29964694279E+04  0.00000000000E+00 0.  1.
         23    2    1    2    0    0  0.24373570807E+04  0.75663664312E+02  0.15795842752E+03  0.24453359950E+04  0.91009528350E+02 0.  0.
    5000000    2    1    2    0    0 -0.24373570807E+04 -0.75663664312E+02 -0.10018277246E+04  0.27037335638E+04  0.60006821697E+03 0.  0.
         23    2    4    4    0    0 -0.18135580441E+04 -0.29448461989E+03 -0.66455763123E+03  0.19560389998E+04  0.93475947365E+02 0.  0.
         23    2    4    4    0    0 -0.62379903666E+03  0.21882095558E+03 -0.33727009335E+03  0.74769456402E+03  0.91039532406E+02 0.  0.
          2    1    3    3  502    0  0.12866885135E+04 -0.22219130113E+01  0.66280664365E+02  0.12883964429E+04  0.00000000000E+00 0. -1.
         -2    1    3    3    0  502  0.11506685673E+04  0.77885577324E+02  0.91677763155E+02  0.11569395521E+04  0.00000000000E+00 0.  1.
         13    1    5    5    0    0 -0.94034650598E+03 -0.11130813702E+03 -0.31805377278E+03  0.99889902145E+03  0.00000000000E+00 0. -1.
        -13    1    5    5    0    0 -0.87321153811E+03 -0.18317648287E+03 -0.34650385845E+03  0.95713997831E+03  0.00000000000E+00 0.  1.
          4    1    6    6  503    0 -0.21288394399E+03  0.11851429708E+03 -0.13954999040E+03  0.28078356797E+03  0.00000000000E+00 0. -1.
         -4    1    6    6    0  503 -0.41091509267E+03  0.10030665849E+03 -0.19772010295E+03  0.46691099605E+03  0.00000000000E+00 0.  1.
<mgrwt>
<rscale>  0 0.24728756E+04</rscale>
<asrwt>0</asrwt>
<pdfrwt beam="1">  1        2 0.33116925E+00 0.24728756E+04</pdfrwt>
<pdfrwt beam="2">  1       -2 0.46099530E+00 0.24728756E+04</pdfrwt>
<totfact> 0.13563717E-02</totfact>
</mgrwt>
</event>
<event>
12    1  0.1338445E-007  0.1022672E+04  0.7818608E-02  0.9284022E-01
         -2   -1    0    0    0  501 -0.00000000000E+00  0.00000000000E+00  0.41292215412E+03  0.41292215412E+03  0.00000000000E+00 0. -1.
          2   -1    0    0  501    0  0.00000000000E+00 -0.00000000000E+00 -0.31766578454E+04  0.31766578454E+04  0.00000000000E+00 0.  1.
         23    2    1    2    0    0  0.12628243883E+03  0.99121254132E+03 -0.71485191015E+03  0.12322386647E+04  0.94600829876E+02 0.  0.
    5000000    2    1    2    0    0 -0.12628243883E+03 -0.99121254132E+03 -0.20488837812E+04  0.23573413348E+04  0.60056961597E+03 0.  0.
         23    2    4    4    0    0  0.56914686868E+02 -0.61152928574E+03 -0.16764643533E+04  0.17874957634E+04  0.86029225414E+02 0.  0.
         23    2    4    4    0    0 -0.18319712570E+03 -0.37968325558E+03 -0.37241942792E+03  0.56984557139E+03  0.91143751874E+02 0.  0.
          2    1    3    3  502    0  0.84744351782E+02  0.50174018913E+03 -0.31144428198E+03  0.59659229238E+03  0.00000000000E+00 0. -1.
         -2    1    3    3    0  502  0.41538087051E+02  0.48947235219E+03 -0.40340762816E+03  0.63564637236E+03  0.00000000000E+00 0.  1.
         13    1    5    5    0    0  0.66130721582E+02 -0.28816996442E+03 -0.85178430368E+03  0.90163834253E+03  0.00000000000E+00 0. -1.
        -13    1    5    5    0    0 -0.92160347138E+01 -0.32335932132E+03 -0.82468004958E+03  0.88585742089E+03  0.00000000000E+00 0.  1.
          2    1    6    6  503    0 -0.86909232699E+02 -0.24941852611E+03 -0.18694261680E+03  0.32358979878E+03  0.00000000000E+00 0. -1.
         -2    1    6    6    0  503 -0.96287893001E+02 -0.13026472947E+03 -0.18547681111E+03  0.24625577261E+03  0.00000000000E+00 0.  1.
<mgrwt>
<rscale>  0 0.10226722E+04</rscale>
<asrwt>0</asrwt>
<pdfrwt beam="1">  1        2 0.48871660E+00 0.10226722E+04</pdfrwt>
<pdfrwt beam="2">  1       -2 0.63526484E-01 0.10226722E+04</pdfrwt>
<totfact> 0.31525094E+00</totfact>
</mgrwt>
</event>
<event>
12    1  0.1338445E-007  0.8917677E+03  0.7818608E-02  0.9435931E-01
         -2   -1    0    0    0  501 -0.00000000000E+00  0.00000000000E+00  0.30672033226E+03  0.30672033226E+03  0.00000000000E+00 0.  1.
          2   -1    0    0  501    0  0.00000000000E+00 -0.00000000000E+00 -0.40335957017E+04  0.40335957017E+04  0.00000000000E+00 0. -1.
         23    2    1    2    0    0 -0.38663454374E+03  0.76314103248E+03 -0.61435371190E+03  0.10570714782E+04  0.89995115560E+02 0.  0.
    5000000    2    1    2    0    0  0.38663454374E+03 -0.76314103248E+03 -0.31125216575E+04  0.32832445558E+04  0.60002769811E+03 0.  0.
         23    2    4    4    0    0 -0.59562496961E+02 -0.12643257024E+03 -0.12757048759E+04  0.12865475311E+04  0.90822539436E+02 0.  0.
         23    2    4    4    0    0  0.44619704070E+03 -0.63670846223E+03 -0.18368167817E+04  0.19966970246E+04  0.91725971236E+02 0.  0.
          2    1    3    3  502    0 -0.32072085492E+03  0.69279392567E+03 -0.53530390092E+03  0.93240310841E+03  0.00000000000E+00 0. -1.
         -2    1    3    3    0  502 -0.65913688812E+02  0.70347106804E+02 -0.79049810978E+02  0.12466836978E+03  0.00000000000E+00 0.  1.
         13    1    5    5    0    0 -0.25337159064E+02 -0.24511073236E+02 -0.70014324772E+03  0.70103019312E+03  0.00000000000E+00 0. -1.
        -13    1    5    5    0    0 -0.34225337897E+02 -0.10192149701E+03 -0.57556162813E+03  0.58551733799E+03  0.00000000000E+00 0.  1.
          2    1    6    6  503    0  0.31638433907E+03 -0.39032050185E+03 -0.11130820998E+04  0.12212292598E+04  0.00000000000E+00 0. -1.
         -2    1    6    6    0  503  0.12981270163E+03 -0.24638796039E+03 -0.72373468186E+03  0.77546776480E+03  0.00000000000E+00 0.  1.
<mgrwt>
<rscale>  0 0.89176771E+03</rscale>
<asrwt>0</asrwt>
<pdfrwt beam="1">  1        2 0.62055321E+00 0.89176771E+03</pdfrwt>
<pdfrwt beam="2">  1       -2 0.47187742E-01 0.89176771E+03</pdfrwt>
<totfact> 0.14741345E+00</totfact>
</mgrwt>
</event>
<event>
12    1  0.1338445E-007  0.6598404E+03  0.7818608E-02  0.9788488E-01
          2   -1    0    0  501    0  0.00000000000E+00  0.00000000000E+00  0.16798190873E+04  0.16798190873E+04  0.00000000000E+00 0.  1.
         -2   -1    0    0    0  501 -0.00000000000E+00 -0.00000000000E+00 -0.37954239655E+03  0.37954239655E+03  0.00000000000E+00 0. -1.
         23    2    1    2    0    0 -0.49621195285E+03  0.36725388719E+03  0.18602921034E+03  0.65132065280E+03  0.92249692981E+02 0.  0.
    5000000    2    1    2    0    0  0.49621195285E+03 -0.36725388719E+03  0.11142474805E+04  0.14080408311E+04  0.59994150923E+03 0.  0.
         23    2    4    4    0    0  0.13211043298E+03  0.19880210229E+02  0.72690985203E+03  0.74456799931E+03  0.90195251312E+02 0.  0.
         23    2    4    4    0    0  0.36410151988E+03 -0.38713409741E+03  0.38733762842E+03  0.66347283177E+03  0.87880793985E+02 0.  0.
          1    1    3    3  502    0 -0.39478389440E+03  0.26129525340E+03  0.10968844011E+03  0.48596407956E+03  0.00000000000E+00 0. -1.
         -1    1    3    3    0  502 -0.10142805845E+03  0.10595863378E+03  0.76340770221E+02  0.16535657324E+03  0.00000000000E+00 0.  1.
         13    1    5    5    0    0  0.11397730797E+03 -0.21524483001E+02  0.52422044771E+03  0.53689962554E+03  0.00000000000E+00 0. -1.
        -13    1    5    5    0    0  0.18133125011E+02  0.41404693230E+02  0.20268940432E+03  0.20766837378E+03  0.00000000000E+00 0.  1.
          1    1    6    6  503    0  0.33648698768E+03 -0.31410882360E+03  0.32341436526E+03  0.56256972688E+03  0.00000000000E+00 0. -1.
         -1    1    6    6    0  503  0.27614532195E+02 -0.73025273819E+02  0.63923263162E+02  0.10090310490E+03  0.00000000000E+00 0.  1.
<mgrwt>
<rscale>  0 0.65984043E+03</rscale>
<asrwt>0</asrwt>
<pdfrwt beam="1">  1        2 0.25843370E+00 0.65984043E+03</pdfrwt>
<pdfrwt beam="2">  1       -2 0.58391139E-01 0.65984043E+03</pdfrwt>
<totfact> 0.28671942E+01</totfact>
</mgrwt>
</event>
<event>
12    1  0.1338445E-007  0.3676521E+03  0.7818608E-02  0.1055594E+00
         -1   -1    0    0    0  501 -0.00000000000E+00  0.00000000000E+00  0.33227173933E+03  0.33227173933E+03  0.00000000000E+00 0.  1.
          1   -1    0    0  501    0  0.00000000000E+00 -0.00000000000E+00 -0.90953811055E+03  0.90953811055E+03  0.00000000000E+00 0. -1.
         23    2    1    2    0    0  0.32448467130E+02 -0.17367980911E+03  0.17284327157E+03  0.26513513488E+03  0.95938856099E+02 0.  0.
    5000000    2    1    2    0    0 -0.32448467130E+02  0.17367980911E+03 -0.75010964278E+03  0.97667471500E+03  0.60000953628E+03 0.  0.
         23    2    4    4    0    0  0.16291381011E+03  0.25467922211E+03 -0.18879863764E+03  0.36844178586E+03  0.93284555489E+02 0.  0.
         23    2    4    4    0    0 -0.19536227724E+03 -0.80999413002E+02 -0.56131100513E+03  0.60823292914E+03  0.10074684773E+03 0.  0.
          4    1    3    3  502    0 -0.67842511409E+01 -0.15384231673E+03  0.15238887573E+03  0.21664684149E+03  0.00000000000E+00 0. -1.
         -4    1    3    3    0  502  0.39232718270E+02 -0.19837492381E+02  0.20454395834E+02  0.48488293389E+02  0.00000000000E+00 0.  1.
         13    1    5    5    0    0  0.86322854015E+02  0.55612253027E+02 -0.70271198288E+02  0.12442828907E+03  0.00000000000E+00 0.  1.
        -13    1    5    5    0    0  0.76590956095E+02  0.19906696909E+03 -0.11852743936E+03  0.24401349679E+03  0.00000000000E+00 0. -1.
          3    1    6    6  503    0 -0.16418402026E+03 -0.92128599032E+02 -0.38178900405E+03  0.42568405523E+03  0.00000000000E+00 0. -1.
         -3    1    6    6    0  503 -0.31178256984E+02  0.11129186030E+02 -0.17952200108E+03  0.18254887390E+03  0.00000000000E+00 0.  1.
<mgrwt>
<rscale>  0 0.36765211E+03</rscale>
<asrwt>0</asrwt>
<pdfrwt beam="1">  1        1 0.13992894E+00 0.36765211E+03</pdfrwt>
<pdfrwt beam="2">  1       -1 0.51118730E-01 0.36765211E+03</pdfrwt>
<totfact> 0.73588583E+01</totfact>
</mgrwt>
</event>
<event>
12    1  0.1338445E-007  0.1210711E+04  0.7818608E-02  0.9103533E-01
         -2   -1    0    0    0  501 -0.00000000000E+00  0.00000000000E+00  0.78515529668E+03  0.78515529668E+03  0.00000000000E+00 0.  1.
          2   -1    0    0  501    0  0.00000000000E+00 -0.00000000000E+00 -0.19928498136E+04  0.19928498136E+04  0.00000000000E+00 0. -1.
         23    2    1    2    0    0  0.15439942805E+03 -0.11406088464E+04 -0.29650971701E+03  0.11920944083E+04  0.91341897535E+02 0.  0.
    5000000    2    1    2    0    0 -0.15439942805E+03  0.11406088464E+04 -0.91118479994E+03  0.15859107020E+04  0.60002274230E+03 0.  0.
         23    2    4    4    0    0 -0.32144977607E+03  0.93423442637E+03 -0.56454210674E+03  0.11416687612E+04  0.92605875510E+02 0.  0.
         23    2    4    4    0    0  0.16705034802E+03  0.20637442000E+03 -0.34664269320E+03  0.44424194075E+03  0.81813966837E+02 0.  0.
          2    1    3    3  502    0  0.49529100605E+02 -0.14446033040E+03 -0.30675261082E+02  0.15576549845E+03  0.00000000000E+00 0. -1.
         -2    1    3    3    0  502  0.10487032745E+03 -0.99614851597E+03 -0.26583445593E+03  0.10363289099E+04  0.00000000000E+00 0.  1.
         11    1    5    5    0    0 -0.23803422572E+03  0.75463748606E+03 -0.41491396572E+03  0.89347167103E+03  0.00000000000E+00 0. -1.
        -11    1    5    5    0    0 -0.83415550344E+02  0.17959694030E+03 -0.14962814101E+03  0.24819709021E+03  0.00000000000E+00 0.  1.
          1    1    6    6  503    0  0.11867670343E+02 -0.70944812810E+01 -0.14897533780E+02  0.20325102133E+02  0.00000000000E+00 0. -1.
         -1    1    6    6    0  503  0.15518267767E+03  0.21346890128E+03 -0.33174515942E+03  0.42391683861E+03  0.00000000000E+00 0.  1.
<mgrwt>
<rscale>  0 0.12107107E+04</rscale>
<asrwt>0</asrwt>
<pdfrwt beam="1">  1        2 0.30659228E+00 0.12107107E+04</pdfrwt>
<pdfrwt beam="2">  1       -2 0.12079312E+00 0.12107107E+04</pdfrwt>
<totfact> 0.34344031E+00</totfact>
</mgrwt>
</event>
<event>
12    1  0.1338445E-007  0.1387237E+04  0.7818608E-02  0.8963109E-01
         -1   -1    0    0    0  501 -0.00000000000E+00  0.00000000000E+00  0.18499442155E+04  0.18499442155E+04  0.00000000000E+00 0.  1.
          1   -1    0    0  501    0  0.00000000000E+00 -0.00000000000E+00 -0.14462887372E+04  0.14462887372E+04  0.00000000000E+00 0. -1.
         23    2    1    2    0    0 -0.10161977318E+03 -0.13784358588E+04  0.96517648301E+03  0.16882622348E+04  0.90839060721E+02 0.  0.
    5000000    2    1    2    0    0  0.10161977318E+03  0.13784358588E+04 -0.56152100468E+03  0.16079707179E+04  0.59987665032E+03 0.  0.
         23    2    4    4    0    0 -0.29933959166E+02  0.94217595188E+02  0.87162428295E+02  0.16038111006E+03  0.91388261845E+02 0.  0.
         23    2    4    4    0    0  0.13155373235E+03  0.12842182636E+04 -0.64868343297E+03  0.14475896078E+04  0.90567893015E+02 0.  0.
          1    1    3    3  502    0 -0.30748535877E+02 -0.88697624762E+03  0.58633716299E+03  0.10637027804E+04  0.00000000000E+00 0. -1.
         -1    1    3    3    0  502 -0.70871237303E+02 -0.49145961120E+03  0.37883932001E+03  0.62455945442E+03  0.00000000000E+00 0.  1.
         11    1    5    5    0    0 -0.46250504961E+01  0.10762431846E+02 -0.19412489853E+02  0.22673019067E+02  0.00000000000E+00 0. -1.
        -11    1    5    5    0    0 -0.25308908670E+02  0.83455163342E+02  0.10657491815E+03  0.13770809099E+03  0.00000000000E+00 0.  1.
          3    1    6    6  503    0  0.53373762942E+02  0.70683085363E+03 -0.31015586746E+03  0.77372816695E+03  0.00000000000E+00 0. -1.
         -3    1    6    6    0  503  0.78179969404E+02  0.57738741000E+03 -0.33852756551E+03  0.67386144084E+03  0.00000000000E+00 0.  1.
<mgrwt>
<rscale>  0 0.13872372E+04</rscale>
<asrwt>0</asrwt>
<pdfrwt beam="1">  1        1 0.22250596E+00 0.13872372E+04</pdfrwt>
<pdfrwt beam="2">  1       -1 0.28460680E+00 0.13872372E+04</pdfrwt>
<totfact> 0.28405024E-01</totfact>
</mgrwt>
</event>
<event>
12    1  0.1526610E-007  0.1193351E+04  0.7818608E-02  0.9118697E-01
          2   -1    0    0  501    0  0.00000000000E+00  0.00000000000E+00  0.11169816167E+04  0.11169816167E+04  0.00000000000E+00 0.  1.
         -2   -1    0    0    0  501 -0.00000000000E+00 -0.00000000000E+00 -0.15227841575E+04  0.15227841575E+04  0.00000000000E+00 0. -1.
         23    2    1    2    0    0 -0.11752600190E+03 -0.11213489412E+04  0.31404907118E+03  0.11739320928E+04  0.90851145042E+02 0.  0.
    5000000    2    1    2    0    0  0.11752600190E+03  0.11213489412E+04 -0.71985161191E+03  0.14658336814E+04  0.59937152863E+03 0.  0.
         23    2    4    4    0    0 -0.11815199207E+02 -0.43454848320E+02 -0.50694398023E+02  0.11312237211E+03  0.90547370504E+02 0.  0.
         23    2    4    4    0    0  0.12934120111E+03  0.11648037895E+04 -0.66915721389E+03  0.13527113093E+04  0.92517539156E+02 0.  0.
          4    1    3    3  502    0 -0.67800721200E+02 -0.30639578880E+03  0.66694282970E+02  0.32081683960E+03  0.00000000000E+00 0.  1.
         -4    1    3    3    0  502 -0.49725280704E+02 -0.81495315236E+03  0.24735478821E+03  0.85311525325E+03  0.00000000000E+00 0. -1.
         13    1    5    5    0    0 -0.39675218518E+02 -0.11484357947E+02 -0.56851261326E+02  0.70271469006E+02  0.00000000000E+00 0.  1.
        -13    1    5    5    0    0  0.27860019311E+02 -0.31970490373E+02  0.61568633037E+01  0.42850903099E+02  0.00000000000E+00 0. -1.
          3    1    6    6  503    0  0.54929950406E+02  0.68216794800E+03 -0.43700353166E+03  0.81199907353E+03  0.00000000000E+00 0. -1.
         -3    1    6    6    0  503  0.74411250704E+02  0.48263584147E+03 -0.23215368222E+03  0.54071223574E+03  0.00000000000E+00 0.  1.
<mgrwt>
<rscale>  0 0.11933505E+04</rscale>
<asrwt>0</asrwt>
<pdfrwt beam="1">  1        2 0.17184333E+00 0.11933505E+04</pdfrwt>
<pdfrwt beam="2">  1       -2 0.23427449E+00 0.11933505E+04</pdfrwt>
<totfact> 0.16638735E+00</totfact>
</mgrwt>
</event>
<event>
12    1  0.1338445E-007  0.1175887E+04  0.7818608E-02  0.9134229E-01
         -1   -1    0    0    0  501 -0.00000000000E+00  0.00000000000E+00  0.19669111804E+04  0.19669111804E+04  0.00000000000E+00 0.  1.
          1   -1    0    0  501    0  0.00000000000E+00 -0.00000000000E+00 -0.83168149280E+03  0.83168149280E+03  0.00000000000E+00 0. -1.
         23    2    1    2    0    0 -0.99583399782E+03 -0.48165051620E+03  0.10650284588E+04  0.15382378992E+04  0.90651229016E+02 0.  0.
    5000000    2    1    2    0    0  0.99583399782E+03  0.48165051620E+03  0.70201228813E+02  0.12603547741E+04  0.59991113764E+03 0.  0.
         23    2    4    4    0    0  0.41664836172E+03  0.51303985658E+03  0.87940239410E+02  0.67291637747E+03  0.90979193226E+02 0.  0.
         23    2    4    4    0    0  0.57918563610E+03 -0.31389340381E+02 -0.17739010597E+02  0.58743839661E+03  0.91257358960E+02 0.  0.
          3    1    3    3  502    0 -0.65658888496E+03 -0.31245638885E+03  0.75825692217E+03  0.10505672367E+04  0.00000000000E+00 0. -1.
         -3    1    3    3    0  502 -0.33924511286E+03 -0.16919412735E+03  0.30677153666E+03  0.48767066247E+03  0.00000000000E+00 0.  1.
         13    1    5    5    0    0  0.21097427850E+03  0.19860085905E+03  0.14731191338E+02  0.29011972598E+03  0.00000000000E+00 0. -1.
        -13    1    5    5    0    0  0.20567408322E+03  0.31443899753E+03  0.73209048072E+02  0.38279665149E+03  0.00000000000E+00 0.  1.
          4    1    6    6  503    0  0.25025918024E+03 -0.16055787107E+02 -0.52868908433E+02  0.25628610394E+03  0.00000000000E+00 0.  1.
         -4    1    6    6    0  503  0.32892645586E+03 -0.15333553274E+02  0.35129897836E+02  0.33115229267E+03  0.00000000000E+00 0. -1.
<mgrwt>
<rscale>  0 0.11758868E+04</rscale>
<asrwt>0</asrwt>
<pdfrwt beam="1">  1        1 0.12795100E+00 0.11758868E+04</pdfrwt>
<pdfrwt beam="2">  1       -1 0.30260172E+00 0.11758868E+04</pdfrwt>
<totfact> 0.65272143E-01</totfact>
</mgrwt>
</event>
<event>
12    1  0.1338445E-007  0.6567916E+03  0.7818608E-02  0.9794118E-01
          2   -1    0    0  501    0  0.00000000000E+00  0.00000000000E+00  0.68210506613E+03  0.68210506613E+03  0.00000000000E+00 0. -1.
         -2   -1    0    0    0  501 -0.00000000000E+00 -0.00000000000E+00 -0.95527279310E+03  0.95527279310E+03  0.00000000000E+00 0.  1.
         23    2    1    2    0    0  0.24094303574E+03 -0.57370860002E+03 -0.42580747864E+03  0.75957663642E+03  0.91921453009E+02 0.  0.
    5000000    2    1    2    0    0 -0.24094303574E+03  0.57370860002E+03  0.15263975166E+03  0.87780122281E+03  0.60003415634E+03 0.  0.
         23    2    4    4    0    0 -0.19872547581E+03  0.12186085716E+03 -0.18031657815E+03  0.30730941810E+03  0.87081150950E+02 0.  0.
         23    2    4    4    0    0 -0.42217559931E+02  0.45184774286E+03  0.33295632981E+03  0.57049180471E+03  0.93017614430E+02 0.  0.
          4    1    3    3  502    0  0.22385280716E+03 -0.47989227144E+03 -0.39025869450E+03  0.65780583769E+03  0.00000000000E+00 0.  1.
         -4    1    3    3    0  502  0.17090228581E+02 -0.93816328580E+02 -0.35548784134E+02  0.10177079873E+03  0.00000000000E+00 0. -1.
         13    1    5    5    0    0 -0.14745558366E+03  0.76069361275E+02 -0.17043493057E+03  0.23786080475E+03  0.00000000000E+00 0.  1.
        -13    1    5    5    0    0 -0.51269892145E+02  0.45791495890E+02 -0.98816475755E+01  0.69448613343E+02  0.00000000000E+00 0. -1.
          1    1    6    6  503    0 -0.41199946482E+02  0.39009985319E+03  0.32257711866E+03  0.50786940106E+03  0.00000000000E+00 0.  1.
         -1    1    6    6    0  503 -0.10176134490E+01  0.61747889664E+02  0.10379211148E+02  0.62622403652E+02  0.00000000000E+00 0. -1.
<mgrwt>
<rscale>  0 0.65679157E+03</rscale>
<asrwt>0</asrwt>
<pdfrwt beam="1">  1        2 0.10493924E+00 0.65679157E+03</pdfrwt>
<pdfrwt beam="2">  1       -2 0.14696504E+00 0.65679157E+03</pdfrwt>
<totfact> 0.13727695E+01</totfact>
</mgrwt>
</event>
<event>
12    1  0.1338445E-007  0.5964961E+03  0.7818608E-02  0.9912702E-01
          2   -1    0    0  501    0  0.00000000000E+00  0.00000000000E+00  0.18963088697E+04  0.18963088697E+04  0.00000000000E+00 0. -1.
         -2   -1    0    0    0  501 -0.00000000000E+00 -0.00000000000E+00 -0.20956074686E+03  0.20956074686E+03  0.00000000000E+00 0.  1.
         23    2    1    2    0    0 -0.50433740298E+02 -0.47305698474E+03  0.58441034904E+03  0.76363376676E+03  0.12359045551E+03 0.  0.
    5000000    2    1    2    0    0  0.50433740298E+02  0.47305698474E+03  0.11023377738E+04  0.13422358498E+04  0.60010168805E+03 0.  0.
         23    2    4    4    0    0 -0.15747385399E+03  0.47001337552E+03  0.55774162833E+03  0.75217261743E+03  0.94748797228E+02 0.  0.
         23    2    4    4    0    0  0.20790759428E+03  0.30436092125E+01  0.54459614545E+03  0.59006323236E+03  0.91404733111E+02 0.  0.
          4    1    3    3  502    0 -0.42148443362E+02 -0.38526639867E+03  0.54059106890E+03  0.66516568838E+03  0.00000000000E+00 0. -1.
         -4    1    3    3    0  502 -0.82852969357E+01 -0.87790586066E+02  0.43819280142E+02  0.98468078377E+02  0.00000000000E+00 0.  1.
         13    1    5    5    0    0 -0.71468813212E+02  0.11042290548E+03  0.18655592591E+03  0.22826327520E+03  0.00000000000E+00 0. -1.
        -13    1    5    5    0    0 -0.86005040774E+02  0.35959047005E+03  0.37118570243E+03  0.52390934223E+03  0.00000000000E+00 0.  1.
          1    1    6    6  503    0  0.80019293929E+01 -0.13178726390E+02  0.11413229184E+03  0.11516896172E+03  0.00000000000E+00 0. -1.
         -1    1    6    6    0  503  0.19990566489E+03  0.16222335603E+02  0.43046385361E+03  0.47489427064E+03  0.00000000000E+00 0.  1.
<mgrwt>
<rscale>  0 0.59649614E+03</rscale>
<asrwt>0</asrwt>
<pdfrwt beam="1">  1        2 0.29173981E+00 0.59649614E+03</pdfrwt>
<pdfrwt beam="2">  1       -2 0.32240116E-01 0.59649614E+03</pdfrwt>
<totfact> 0.71444470E+01</totfact>
</mgrwt>
</event>
<event>
12    1  0.1338445E-007  0.7597693E+03  0.7818608E-02  0.9620147E-01
         -1   -1    0    0    0  501 -0.00000000000E+00  0.00000000000E+00  0.31806253869E+03  0.31806253869E+03  0.00000000000E+00 0.  1.
          1   -1    0    0  501    0  0.00000000000E+00 -0.00000000000E+00 -0.21293475364E+04  0.21293475364E+04  0.00000000000E+00 0. -1.
         23    2    1    2    0    0  0.65861531431E+03 -0.23695811254E+02 -0.39461881791E+03  0.77364849368E+03  0.92045405179E+02 0.  0.
    5000000    2    1    2    0    0 -0.65861531431E+03  0.23695811254E+02 -0.14166661798E+04  0.16737615814E+04  0.60016592927E+03 0.  0.
         23    2    4    4    0    0 -0.51981048156E+03 -0.22103485389E+03 -0.74777023242E+03  0.94150227792E+03  0.90591806733E+02 0.  0.
         23    2    4    4    0    0 -0.13880483275E+03  0.24473066515E+03 -0.66889594733E+03  0.73225930344E+03  0.98091890918E+02 0.  0.
          4    1    3    3  502    0  0.73811357496E+02 -0.25941796313E+02 -0.26394584447E+02  0.82569772795E+02  0.00000000000E+00 0. -1.
         -4    1    3    3    0  502  0.58480395682E+03  0.22459850598E+01 -0.36822423346E+03  0.69107872089E+03  0.00000000000E+00 0.  1.
         13    1    5    5    0    0 -0.33780080348E+03 -0.16213995626E+03 -0.55727215115E+03  0.67152885172E+03  0.00000000000E+00 0. -1.
        -13    1    5    5    0    0 -0.18200967808E+03 -0.58894897633E+02 -0.19049808127E+03  0.26997342619E+03  0.00000000000E+00 0.  1.
          2    1    6    6  503    0 -0.83611284853E+02  0.76091733766E+02 -0.34352679695E+03  0.36165101842E+03  0.00000000000E+00 0. -1.
         -2    1    6    6    0  503 -0.55193547893E+02  0.16863893138E+03 -0.32536915038E+03  0.37060828502E+03  0.00000000000E+00 0.  1.
<mgrwt>
<rscale>  0 0.75976928E+03</rscale>
<asrwt>0</asrwt>
<pdfrwt beam="1">  1        1 0.32759194E+00 0.75976928E+03</pdfrwt>
<pdfrwt beam="2">  1       -1 0.48932697E-01 0.75976928E+03</pdfrwt>
<totfact> 0.10645407E+01</totfact>
</mgrwt>
</event>
<event>
12    1  0.1692057E-007  0.7628661E+03  0.7818608E-02  0.9615379E-01
         -2   -1    0    0    0  501 -0.00000000000E+00  0.00000000000E+00  0.41029982976E+03  0.41029982976E+03  0.00000000000E+00 0.  1.
          2   -1    0    0  501    0  0.00000000000E+00 -0.00000000000E+00 -0.16773941221E+04  0.16773941221E+04  0.00000000000E+00 0. -1.
         23    2    1    2    0    0 -0.50377009740E+03 -0.50075223363E+03 -0.68320264000E+03  0.98972151045E+03  0.90805894181E+02 0.  0.
    5000000    2    1    2    0    0  0.50377009740E+03  0.50075223363E+03 -0.58389165236E+03  0.10979724414E+04  0.60006408819E+03 0.  0.
         23    2    4    4    0    0  0.49752588872E+03  0.25985388289E+03 -0.61608644114E+03  0.83812743540E+03  0.88538379369E+02 0.  0.
         23    2    4    4    0    0  0.62442086823E+01  0.24089835074E+03  0.32194788782E+02  0.25984500604E+03  0.91716504531E+02 0.  0.
          1    1    3    3  502    0 -0.31514087657E+03 -0.24998894700E+03 -0.37822655819E+03  0.55214452367E+03  0.00000000000E+00 0. -1.
         -1    1    3    3    0  502 -0.18862922083E+03 -0.25076328664E+03 -0.30497608182E+03  0.43757698678E+03  0.00000000000E+00 0.  1.
         11    1    5    5    0    0  0.96218766890E+02  0.13288312706E+02 -0.99324326732E+02  0.13892426799E+03  0.00000000000E+00 0.  1.
        -11    1    5    5    0    0  0.40130712183E+03  0.24656557018E+03 -0.51676211441E+03  0.69920316741E+03  0.00000000000E+00 0. -1.
          1    1    6    6  503    0  0.95419802365E+01  0.72409949906E+02  0.52724523232E+02  0.90078441274E+02  0.00000000000E+00 0.  1.
         -1    1    6    6    0  503 -0.32977715542E+01  0.16848840084E+03 -0.20529734451E+02  0.16976656476E+03  0.00000000000E+00 0. -1.
<mgrwt>
<rscale>  0 0.76286606E+03</rscale>
<asrwt>0</asrwt>
<pdfrwt beam="1">  1        2 0.25806064E+00 0.76286606E+03</pdfrwt>
<pdfrwt beam="2">  1       -2 0.63123050E-01 0.76286606E+03</pdfrwt>
<totfact> 0.24063892E+01</totfact>
</mgrwt>
</event>
<event>
12    1  0.1338445E-007  0.6303316E+03  0.7818608E-02  0.9844402E-01
         -2   -1    0    0    0  501 -0.00000000000E+00  0.00000000000E+00  0.67476495196E+03  0.67476495196E+03  0.00000000000E+00 0.  1.
          2   -1    0    0  501    0  0.00000000000E+00 -0.00000000000E+00 -0.68778452996E+03  0.68778452996E+03  0.00000000000E+00 0. -1.
         23    2    1    2    0    0  0.43094543620E+03 -0.24923890281E+03  0.21580943436E+03  0.54994259147E+03  0.89605481422E+02 0.  0.
    5000000    2    1    2    0    0 -0.43094543620E+03  0.24923890281E+03 -0.22882901236E+03  0.81260689045E+03  0.60011102461E+03 0.  0.
         23    2    4    4    0    0 -0.50564095546E+02 -0.16521136563E+03 -0.12878800541E+03  0.23401420260E+03  0.91240197230E+02 0.  0.
         23    2    4    4    0    0 -0.38038134065E+03  0.41445026844E+03 -0.10004100696E+03  0.57859268785E+03  0.91116990919E+02 0.  0.
          2    1    3    3  502    0  0.17604363952E+03 -0.14848585183E+03  0.11920908939E+03  0.25932647030E+03  0.00000000000E+00 0. -1.
         -2    1    3    3    0  502  0.25490179668E+03 -0.10075305099E+03  0.96600344965E+02  0.29061612117E+03  0.00000000000E+00 0.  1.
         13    1    5    5    0    0 -0.43166001163E+01 -0.12538715422E+03 -0.11761154290E+03  0.17196815549E+03  0.00000000000E+00 0. -1.
        -13    1    5    5    0    0 -0.46247495429E+02 -0.39824211407E+02 -0.11176462512E+02  0.62046047110E+02  0.00000000000E+00 0.  1.
          1    1    6    6  503    0 -0.20727323215E+03  0.15916897506E+03 -0.40434856812E+02  0.26444646535E+03  0.00000000000E+00 0. -1.
         -1    1    6    6    0  503 -0.17310810850E+03  0.25528129338E+03 -0.59606150144E+02  0.31414622250E+03  0.00000000000E+00 0.  1.
<mgrwt>
<rscale>  0 0.63033163E+03</rscale>
<asrwt>0</asrwt>
<pdfrwt beam="1">  1        2 0.10581300E+00 0.63033163E+03</pdfrwt>
<pdfrwt beam="2">  1       -2 0.10380999E+00 0.63033163E+03</pdfrwt>
<totfact> 0.32420996E+01</totfact>
</mgrwt>
</event>
<event>
12    1  0.1338445E-007  0.9540492E+03  0.7818608E-02  0.9360430E-01
         -1   -1    0    0    0  501 -0.00000000000E+00  0.00000000000E+00  0.11740084512E+04  0.11740084512E+04  0.00000000000E+00 0.  1.
          1   -1    0    0  501    0  0.00000000000E+00 -0.00000000000E+00 -0.21587266700E+04  0.21587266700E+04  0.00000000000E+00 0. -1.
         23    2    1    2    0    0 -0.91964202030E+03 -0.59399319496E+02  0.80827911299E+03  0.12293620154E+04  0.93520670111E+02 0.  0.
    5000000    2    1    2    0    0  0.91964202030E+03  0.59399319496E+02 -0.17929973318E+04  0.21033731058E+04  0.60005771858E+03 0.  0.
         23    2    4    4    0    0  0.18448235841E+03  0.14124713923E+03 -0.13118136138E+03  0.28208329449E+03  0.91531090622E+02 0.  0.
         23    2    4    4    0    0  0.73515966189E+03 -0.81847819734E+02 -0.16618159704E+04  0.18212898113E+04  0.91134313555E+02 0.  0.
          4    1    3    3  502    0 -0.68011395119E+02  0.13866809980E+02  0.40307477682E+02  0.80265378851E+02  0.00000000000E+00 0. -1.
         -4    1    3    3    0  502 -0.85163062518E+03 -0.73266129476E+02  0.76797163531E+03  0.11490966365E+04  0.00000000000E+00 0.  1.
         11    1    5    5    0    0  0.12554913800E+03  0.55601002160E+02 -0.11010900546E+03  0.17600582541E+03  0.00000000000E+00 0. -1.
        -11    1    5    5    0    0  0.58933220411E+02  0.85646137070E+02 -0.21072355922E+02  0.10607746908E+03  0.00000000000E+00 0.  1.
          2    1    6    6  503    0  0.16674316244E+03  0.91011565282E+01 -0.31268919309E+03  0.35448645213E+03  0.00000000000E+00 0. -1.
         -2    1    6    6    0  503  0.56841649945E+03 -0.90948976262E+02 -0.13491267773E+04  0.14668033592E+04  0.00000000000E+00 0.  1.
<mgrwt>
<rscale>  0 0.95404923E+03</rscale>
<asrwt>0</asrwt>
<pdfrwt beam="1">  1        1 0.33211180E+00 0.95404923E+03</pdfrwt>
<pdfrwt beam="2">  1       -1 0.18061668E+00 0.95404923E+03</pdfrwt>
<totfact> 0.48949667E-01</totfact>
</mgrwt>
</event>
<event>
12    1  0.1338445E-007  0.5518224E+03  0.7818608E-02  0.1001073E+00
          2   -1    0    0  501    0  0.00000000000E+00  0.00000000000E+00  0.61014395611E+03  0.61014395611E+03  0.00000000000E+00 0. -1.
         -2   -1    0    0    0  501 -0.00000000000E+00 -0.00000000000E+00 -0.60260198187E+03  0.60260198187E+03  0.00000000000E+00 0.  1.
         23    2    1    2    0    0 -0.23439671958E+03  0.36156794850E+03 -0.13470755005E+03  0.46048408834E+03  0.90698776388E+02 0.  0.
    5000000    2    1    2    0    0  0.23439671958E+03 -0.36156794850E+03  0.14224952429E+03  0.75226184964E+03  0.59999146638E+03 0.  0.
         23    2    4    4    0    0 -0.27865727750E+02 -0.39137315091E+03 -0.61918716692E+02  0.40735515771E+03  0.90304235747E+02 0.  0.
         23    2    4    4    0    0  0.26226244733E+03  0.29805202414E+02  0.20416824098E+03  0.34490669193E+03  0.87212465524E+02 0.  0.
          1    1    3    3  502    0 -0.16283983825E+03  0.30896962673E+03 -0.12583902357E+03  0.37123375791E+03  0.00000000000E+00 0.  1.
         -1    1    3    3    0  502 -0.71556881328E+02  0.52598321774E+02 -0.88685264808E+01  0.89250330424E+02  0.00000000000E+00 0. -1.
         11    1    5    5    0    0 -0.27236554416E+02 -0.53984339903E+02  0.12764916760E+02  0.61798721274E+02  0.00000000000E+00 0. -1.
        -11    1    5    5    0    0 -0.62917333431E+00 -0.33738881101E+03 -0.74683633452E+02  0.34555643643E+03  0.00000000000E+00 0.  1.
          1    1    6    6  503    0  0.29109658739E+01  0.67507761867E+01  0.31821883328E+02  0.32660051439E+02  0.00000000000E+00 0. -1.
         -1    1    6    6    0  503  0.25935148146E+03  0.23054426227E+02  0.17234635765E+03  0.31224664049E+03  0.00000000000E+00 0.  1.
<mgrwt>
<rscale>  0 0.55182240E+03</rscale>
<asrwt>0</asrwt>
<pdfrwt beam="1">  1        2 0.93868301E-01 0.55182240E+03</pdfrwt>
<pdfrwt beam="2">  1       -2 0.92707997E-01 0.55182240E+03</pdfrwt>
<totfact> 0.49347432E+01</totfact>
</mgrwt>
</event>
<event>
12    1  0.1338445E-007  0.7534078E+03  0.7818608E-02  0.9630019E-01
          2   -1    0    0  501    0  0.00000000000E+00  0.00000000000E+00  0.34179102387E+04  0.34179102387E+04  0.00000000000E+00 0.  1.
         -2   -1    0    0    0  501 -0.00000000000E+00 -0.00000000000E+00 -0.21514438300E+03  0.21514438300E+03  0.00000000000E+00 0. -1.
         23    2    1    2    0    0  0.23892762670E+03  0.70447305489E+03  0.12183393075E+04  0.14304803273E+04  0.92491095039E+02 0.  0.
    5000000    2    1    2    0    0 -0.23892762670E+03 -0.70447305489E+03  0.19844265482E+04  0.22025742944E+04  0.60001341764E+03 0.  0.
         23    2    4    4    0    0 -0.15043537941E+03 -0.47876508892E+03  0.57005048705E+03  0.76453785979E+03  0.87828056542E+02 0.  0.
         23    2    4    4    0    0 -0.88492247293E+02 -0.22570796596E+03  0.14143760611E+04  0.14380364346E+04  0.93349778920E+02 0.  0.
          1    1    3    3  502    0  0.10240841404E+03  0.20429848880E+03  0.31931893052E+03  0.39267026267E+03  0.00000000000E+00 0. -1.
         -1    1    3    3    0  502  0.13651921266E+03  0.50017456608E+03  0.89902037697E+03  0.10378100646E+04  0.00000000000E+00 0.  1.
         11    1    5    5    0    0  0.11693593879E+02 -0.41276625115E+02  0.49025049137E+02  0.65145647296E+02  0.00000000000E+00 0.  1.
        -11    1    5    5    0    0 -0.16212897328E+03 -0.43748846381E+03  0.52102543791E+03  0.69939221249E+03  0.00000000000E+00 0. -1.
          4    1    6    6  503    0 -0.98354319463E+02 -0.20194210075E+03  0.11054014526E+04  0.11279922675E+04  0.00000000000E+00 0. -1.
         -4    1    6    6    0  503  0.98620721693E+01 -0.23765865209E+02  0.30897460853E+03  0.31004416707E+03  0.00000000000E+00 0.  1.
<mgrwt>
<rscale>  0 0.75340779E+03</rscale>
<asrwt>0</asrwt>
<pdfrwt beam="1">  1        2 0.52583230E+00 0.75340779E+03</pdfrwt>
<pdfrwt beam="2">  1       -2 0.33099138E-01 0.75340779E+03</pdfrwt>
<totfact> 0.85059186E+00</totfact>
</mgrwt>
</event>
<event>
12    1  0.1338445E-007  0.4333950E+03  0.7818608E-02  0.1032793E+00
         -2   -1    0    0    0  501 -0.00000000000E+00  0.00000000000E+00  0.11554406495E+04  0.11554406495E+04  0.00000000000E+00 0.  1.
          2   -1    0    0  501    0  0.00000000000E+00 -0.00000000000E+00 -0.22813432326E+03  0.22813432326E+03  0.00000000000E+00 0. -1.
         23    2    1    2    0    0 -0.14058458599E+03 -0.28222768153E+03  0.43878602938E+03  0.54794362123E+03  0.91063397865E+02 0.  0.
    5000000    2    1    2    0    0  0.14058458599E+03  0.28222768153E+03  0.48852029681E+03  0.83563135149E+03  0.60017596183E+03 0.  0.
         23    2    4    4    0    0  0.24608823327E+03  0.67320926713E+01  0.45082975172E+03  0.52153945170E+03  0.90283968780E+02 0.  0.
         23    2    4    4    0    0 -0.10550364729E+03  0.27549558886E+03  0.37690545093E+02  0.31409189979E+03  0.10101636131E+03 0.  0.
          3    1    3    3  502    0 -0.45650197158E+02 -0.39771540915E+02  0.13423973353E+03  0.14726174665E+03  0.00000000000E+00 0. -1.
         -3    1    3    3    0  502 -0.94934388829E+02 -0.24245614062E+03  0.30454629585E+03  0.40068187458E+03  0.00000000000E+00 0.  1.
         11    1    5    5    0    0  0.10165674965E+03  0.22949831005E+02  0.27082490914E+03  0.29018428783E+03  0.00000000000E+00 0.  1.
        -11    1    5    5    0    0  0.14443148362E+03 -0.16217738334E+02  0.18000484257E+03  0.23135516387E+03  0.00000000000E+00 0. -1.
          2    1    6    6  503    0 -0.46681815447E+02  0.85442052325E+02 -0.33235270184E+02  0.10287914941E+03  0.00000000000E+00 0. -1.
         -2    1    6    6    0  503 -0.58821831839E+02  0.19005353653E+03  0.70925815277E+02  0.21121275038E+03  0.00000000000E+00 0.  1.
<mgrwt>
<rscale>  0 0.43339501E+03</rscale>
<asrwt>0</asrwt>
<pdfrwt beam="1">  1        2 0.35097589E-01 0.43339501E+03</pdfrwt>
<pdfrwt beam="2">  1       -2 0.17776010E+00 0.43339501E+03</pdfrwt>
<totfact> 0.29230040E+01</totfact>
</mgrwt>
</event>
<event>
12    1  0.1338445E-007  0.6401738E+03  0.7818608E-02  0.9825394E-01
          2   -1    0    0  501    0  0.00000000000E+00  0.00000000000E+00  0.66140986888E+03  0.66140986888E+03  0.00000000000E+00 0.  1.
         -2   -1    0    0    0  501 -0.00000000000E+00 -0.00000000000E+00 -0.67575412017E+03  0.67575412017E+03  0.00000000000E+00 0. -1.
         23    2    1    2    0    0 -0.14113805919E+03  0.50434567605E+03  0.71509453740E+02  0.53621208915E+03  0.90140389816E+02 0.  0.
    5000000    2    1    2    0    0  0.14113805919E+03 -0.50434567605E+03 -0.85853705030E+02  0.80095189990E+03  0.59989046883E+03 0.  0.
         23    2    4    4    0    0 -0.16701066603E+03 -0.38129393348E+02  0.82034021633E+02  0.21038238360E+03  0.90469627049E+02 0.  0.
         23    2    4    4    0    0  0.30814872522E+03 -0.46621628270E+03 -0.16788772666E+03  0.59056951631E+03  0.90954965334E+02 0.  0.
          2    1    3    3  502    0 -0.57818462453E+02  0.11755655365E+03 -0.12924720802E+02  0.13164181067E+03  0.00000000000E+00 0. -1.
         -2    1    3    3    0  502 -0.83319596738E+02  0.38678912239E+03  0.84434174541E+02  0.40457027848E+03  0.00000000000E+00 0.  1.
         11    1    5    5    0    0 -0.55931645219E+02  0.29930159350E+02  0.25384379507E+02  0.68326642670E+02  0.00000000000E+00 0. -1.
        -11    1    5    5    0    0 -0.11107902081E+03 -0.68059552698E+02  0.56649642126E+02  0.14205574093E+03  0.00000000000E+00 0.  1.
          3    1    6    6  503    0  0.12613225966E+03 -0.22285309871E+03 -0.12046002338E+03  0.28299022556E+03  0.00000000000E+00 0. -1.
         -3    1    6    6    0  503  0.18201646556E+03 -0.24336318399E+03 -0.47427703284E+02  0.30757929074E+03  0.00000000000E+00 0.  1.
<mgrwt>
<rscale>  0 0.64017382E+03</rscale>
<asrwt>0</asrwt>
<pdfrwt beam="1">  1        2 0.10175536E+00 0.64017382E+03</pdfrwt>
<pdfrwt beam="2">  1       -2 0.10396217E+00 0.64017382E+03</pdfrwt>
<totfact> 0.33882402E+01</totfact>
</mgrwt>
</event>
<event>
12    1  0.1338445E-007  0.6702054E+03  0.7818608E-02  0.9769587E-01
         -2   -1    0    0    0  501 -0.00000000000E+00  0.00000000000E+00  0.28852801163E+03  0.28852801163E+03  0.00000000000E+00 0.  1.
          2   -1    0    0  501    0  0.00000000000E+00 -0.00000000000E+00 -0.19498830963E+04  0.19498830963E+04  0.00000000000E+00 0. -1.
         23    2    1    2    0    0  0.26248853968E+03  0.51137617849E+03 -0.10723044719E+04  0.12200640726E+04  0.91179116283E+02 0.  0.
    5000000    2    1    2    0    0 -0.26248853968E+03 -0.51137617849E+03 -0.58905061270E+03  0.10183470353E+04  0.59970345227E+03 0.  0.
         23    2    4    4    0    0  0.13649790292E+03 -0.19723360878E+03 -0.38609023992E+03  0.46376050591E+03  0.92061715963E+02 0.  0.
         23    2    4    4    0    0 -0.39898644260E+03 -0.31414256971E+03 -0.20296037278E+03  0.55458652943E+03  0.92182266312E+02 0.  0.
          4    1    3    3  502    0  0.90718975282E+02  0.25789749261E+03 -0.45066486791E+03  0.52710518147E+03  0.00000000000E+00 0. -1.
         -4    1    3    3    0  502  0.17176956439E+03  0.25347868588E+03 -0.62163960402E+03  0.69295889108E+03  0.00000000000E+00 0.  1.
         13    1    5    5    0    0  0.60593208859E+01 -0.69176269254E+02 -0.69861117253E+02  0.98502016738E+02  0.00000000000E+00 0. -1.
        -13    1    5    5    0    0  0.13043858203E+03 -0.12805733953E+03 -0.31622912267E+03  0.36525848917E+03  0.00000000000E+00 0.  1.
          3    1    6    6  503    0 -0.17728996999E+03 -0.15745090026E+03 -0.47761541004E+02  0.24187534858E+03  0.00000000000E+00 0. -1.
         -3    1    6    6    0  503 -0.22169647260E+03 -0.15669166945E+03 -0.15519883178E+03  0.31271118085E+03  0.00000000000E+00 0.  1.
<mgrwt>
<rscale>  0 0.67020544E+03</rscale>
<asrwt>0</asrwt>
<pdfrwt beam="1">  1        2 0.29998201E+00 0.67020544E+03</pdfrwt>
<pdfrwt beam="2">  1       -2 0.44388925E-01 0.67020544E+03</pdfrwt>
<totfact> 0.35722242E+01</totfact>
</mgrwt>
</event>
<event>
12    1  0.1338445E-007  0.8586563E+03  0.7818608E-02  0.9478792E-01
          2   -1    0    0  501    0  0.00000000000E+00  0.00000000000E+00  0.13735231691E+04  0.13735231691E+04  0.00000000000E+00 0. -1.
         -2   -1    0    0    0  501 -0.00000000000E+00 -0.00000000000E+00 -0.66026664155E+03  0.66026664155E+03  0.00000000000E+00 0.  1.
         23    2    1    2    0    0  0.81765440346E+03 -0.24984972369E+03  0.30202121438E+03  0.91149487284E+03  0.92857317184E+02 0.  0.
    5000000    2    1    2    0    0 -0.81765440346E+03  0.24984972369E+03  0.41123531318E+03  0.11222949378E+04  0.59953968736E+03 0.  0.
         23    2    4    4    0    0 -0.45979684908E+03  0.13748886591E+03  0.52571734221E+03  0.71757560529E+03  0.90662532205E+02 0.  0.
         23    2    4    4    0    0 -0.35785755438E+03  0.11236085779E+03 -0.11448202903E+03  0.40471933253E+03  0.10002305513E+03 0.  0.
          2    1    3    3  502    0  0.23650822207E+03 -0.78562404801E+02  0.13306415009E+03  0.28251417414E+03  0.00000000000E+00 0. -1.
         -2    1    3    3    0  502  0.58114618139E+03 -0.17128731889E+03  0.16895706429E+03  0.62898069869E+03  0.00000000000E+00 0.  1.
         13    1    5    5    0    0 -0.29287842720E+03  0.73288326319E+02  0.26683062730E+03  0.40292373417E+03  0.00000000000E+00 0.  1.
        -13    1    5    5    0    0 -0.16691842188E+03  0.64200539587E+02  0.25888671491E+03  0.31465187112E+03  0.00000000000E+00 0. -1.
          3    1    6    6  503    0 -0.28503843129E+03  0.58671406810E+02 -0.11836323805E+03  0.31416412496E+03  0.00000000000E+00 0. -1.
         -3    1    6    6    0  503 -0.72819123091E+02  0.53689450978E+02  0.38812090179E+01  0.90555207567E+02  0.00000000000E+00 0.  1.
<mgrwt>
<rscale>  0 0.85865629E+03</rscale>
<asrwt>0</asrwt>
<pdfrwt beam="1">  1        2 0.21131126E+00 0.85865629E+03</pdfrwt>
<pdfrwt beam="2">  1       -2 0.10157948E+00 0.85865629E+03</pdfrwt>
<totfact> 0.12034145E+01</totfact>
</mgrwt>
</event>
<event>
12    1  0.1338445E-007  0.1247775E+04  0.7818608E-02  0.9072037E-01
         -1   -1    0    0    0  501 -0.00000000000E+00  0.00000000000E+00  0.89041917251E+03  0.89041917251E+03  0.00000000000E+00 0.  1.
          1   -1    0    0  501    0  0.00000000000E+00 -0.00000000000E+00 -0.20737212184E+04  0.20737212184E+04  0.00000000000E+00 0. -1.
         23    2    1    2    0    0 -0.10997529101E+04  0.56263215374E+03 -0.15621424587E+03  0.12492149092E+04  0.10061607824E+03 0.  0.
    5000000    2    1    2    0    0  0.10997529101E+04 -0.56263215374E+03 -0.10270878000E+04  0.17149254817E+04  0.60004054453E+03 0.  0.
         23    2    4    4    0    0  0.82057958756E+03 -0.30842788082E+03 -0.37786443782E+03  0.95848066486E+03  0.86168639013E+02 0.  0.
         23    2    4    4    0    0  0.27917332252E+03 -0.25420427292E+03 -0.64922336217E+03  0.75644481679E+03  0.90333994108E+02 0.  0.
          2    1    3    3  502    0 -0.41196489674E+02  0.27084562211E+02 -0.26091822341E+02  0.55780887988E+02  0.00000000000E+00 0. -1.
         -2    1    3    3    0  502 -0.10585564204E+04  0.53554759153E+03 -0.13012242353E+03  0.11934340212E+04  0.00000000000E+00 0.  1.
         13    1    5    5    0    0  0.27805382922E+03 -0.10542916045E+03 -0.17316610944E+03  0.34411588350E+03  0.00000000000E+00 0. -1.
        -13    1    5    5    0    0  0.54252575834E+03 -0.20299872037E+03 -0.20469832839E+03  0.61436478136E+03  0.00000000000E+00 0.  1.
          1    1    6    6  503    0  0.13656641785E+03 -0.80397942194E+02 -0.32901686699E+03  0.36519353001E+03  0.00000000000E+00 0. -1.
         -1    1    6    6    0  503  0.14260690466E+03 -0.17380633072E+03 -0.32020649518E+03  0.39125128679E+03  0.00000000000E+00 0.  1.
<mgrwt>
<rscale>  0 0.12477750E+04</rscale>
<asrwt>0</asrwt>
<pdfrwt beam="1">  1        1 0.31903403E+00 0.12477750E+04</pdfrwt>
<pdfrwt beam="2">  1       -1 0.13698757E+00 0.12477750E+04</pdfrwt>
<totfact> 0.11522307E+00</totfact>
</mgrwt>
</event>
<event>
12    1  0.1338445E-007  0.8533104E+03  0.7818608E-02  0.9485905E-01
         -2   -1    0    0    0  501 -0.00000000000E+00  0.00000000000E+00  0.56284808072E+03  0.56284808072E+03  0.00000000000E+00 0. -1.
          2   -1    0    0  501    0  0.00000000000E+00 -0.00000000000E+00 -0.14559422190E+04  0.14559422190E+04  0.00000000000E+00 0.  1.
         23    2    1    2    0    0 -0.74537161101E+03  0.20667495537E+03 -0.63755761583E+03  0.10070140779E+04  0.96458611992E+02 0.  0.
    5000000    2    1    2    0    0  0.74537161101E+03 -0.20667495537E+03 -0.25553652250E+03  0.10117762219E+04  0.60008235535E+03 0.  0.
         23    2    4    4    0    0  0.75210856701E+03 -0.28180179548E+03 -0.99752428427E+02  0.81454566625E+03  0.91948610237E+02 0.  0.
         23    2    4    4    0    0 -0.67369559969E+01  0.75126840113E+02 -0.15578409407E+03  0.19723055566E+03  0.94560982640E+02 0.  0.
          2    1    3    3  502    0 -0.57332788680E+03  0.11928729519E+03 -0.45810562227E+03  0.74350190701E+03  0.00000000000E+00 0. -1.
         -2    1    3    3    0  502 -0.17204372421E+03  0.87387660181E+02 -0.17945199356E+03  0.26351217085E+03  0.00000000000E+00 0.  1.
         13    1    5    5    0    0  0.28673828890E+03 -0.15183780353E+03 -0.22571202580E+02  0.32524302312E+03  0.00000000000E+00 0.  1.
        -13    1    5    5    0    0  0.46537027811E+03 -0.12996399195E+03 -0.77181225847E+02  0.48930264313E+03  0.00000000000E+00 0. -1.
          4    1    6    6  503    0  0.19194425219E+02  0.88971021800E+02 -0.12544870421E+03  0.15498918049E+03  0.00000000000E+00 0. -1.
         -4    1    6    6    0  503 -0.25931381216E+02 -0.13844181687E+02 -0.30335389859E+02  0.42241375170E+02  0.00000000000E+00 0.  1.
<mgrwt>
<rscale>  0 0.85331043E+03</rscale>
<asrwt>0</asrwt>
<pdfrwt beam="1">  1        2 0.22399111E+00 0.85331043E+03</pdfrwt>
<pdfrwt beam="2">  1       -2 0.86592014E-01 0.85331043E+03</pdfrwt>
<totfact> 0.15700498E+01</totfact>
</mgrwt>
</event>
<event>
12    1  0.1338445E-007  0.5450223E+03  0.7818608E-02  0.1002653E+00
         -1   -1    0    0    0  501 -0.00000000000E+00  0.00000000000E+00  0.51560258018E+03  0.51560258018E+03  0.00000000000E+00 0.  1.
          1   -1    0    0  501    0  0.00000000000E+00 -0.00000000000E+00 -0.60128956003E+03  0.60128956003E+03  0.00000000000E+00 0. -1.
         23    2    1    2    0    0 -0.15217369790E+03 -0.35444801094E+03  0.13891276962E+02  0.39641271150E+03  0.90331851937E+02 0.  0.
    5000000    2    1    2    0    0  0.15217369790E+03  0.35444801094E+03 -0.99578256809E+02  0.72047942870E+03  0.60032037377E+03 0.  0.
         23    2    4    4    0    0  0.90849792263E+02 -0.14937356103E+03 -0.37950907836E+02  0.20123018226E+03  0.92125834368E+02 0.  0.
         23    2    4    4    0    0  0.61323905635E+02  0.50382157197E+03 -0.61627348973E+02  0.51924924644E+03  0.90692072479E+02 0.  0.
          2    1    3    3  502    0 -0.61840800862E+02 -0.19907610639E+03 -0.32052760969E+02  0.21090983920E+03  0.00000000000E+00 0.  1.
         -2    1    3    3    0  502 -0.90332897036E+02 -0.15537190455E+03  0.45944037931E+02  0.18550287230E+03  0.00000000000E+00 0. -1.
         13    1    5    5    0    0  0.99331014254E+02 -0.98777932458E+02 -0.48340187446E+01  0.14016810647E+03  0.00000000000E+00 0.  1.
        -13    1    5    5    0    0 -0.84812219915E+01 -0.50595628570E+02 -0.33116889092E+02  0.61062075791E+02  0.00000000000E+00 0. -1.
          1    1    6    6  503    0  0.11273508497E+02  0.31287117535E+03 -0.73170806068E+02  0.32151116811E+03  0.00000000000E+00 0. -1.
         -1    1    6    6    0  503  0.50050397138E+02  0.19095039662E+03  0.11543457095E+02  0.19773807834E+03  0.00000000000E+00 0.  1.
<mgrwt>
<rscale>  0 0.54502233E+03</rscale>
<asrwt>0</asrwt>
<pdfrwt beam="1">  1        1 0.92506086E-01 0.54502233E+03</pdfrwt>
<pdfrwt beam="2">  1       -1 0.79323474E-01 0.54502233E+03</pdfrwt>
<totfact> 0.56518532E+01</totfact>
</mgrwt>
</event>
<event>
12    1  0.1338445E-007  0.1084826E+04  0.7818608E-02  0.9220109E-01
         -2   -1    0    0    0  501 -0.00000000000E+00  0.00000000000E+00  0.26271178338E+04  0.26271178338E+04  0.00000000000E+00 0. -1.
          2   -1    0    0  501    0  0.00000000000E+00 -0.00000000000E+00 -0.19919916571E+04  0.19919916571E+04  0.00000000000E+00 0.  1.
         23    2    1    2    0    0  0.67928920692E+03 -0.73497131233E+03  0.23436663006E+04  0.25500846481E+04  0.92430121377E+02 0.  0.
    5000000    2    1    2    0    0 -0.67928920692E+03  0.73497131233E+03 -0.17085401239E+04  0.20690248427E+04  0.60011481241E+03 0.  0.
         23    2    4    4    0    0  0.71251033273E+02  0.23044818208E+03 -0.37164781870E+03  0.45255032814E+03  0.92177133769E+02 0.  0.
         23    2    4    4    0    0 -0.75054024019E+03  0.50452313025E+03 -0.13368923052E+04  0.16164745146E+04  0.88626064728E+02 0.  0.
          4    1    3    3  502    0  0.37291116339E+03 -0.34446096500E+03  0.12434617341E+04  0.13430983495E+04  0.00000000000E+00 0. -1.
         -4    1    3    3    0  502  0.30637804352E+03 -0.39051034734E+03  0.11002045665E+04  0.12069862986E+04  0.00000000000E+00 0.  1.
         11    1    5    5    0    0 -0.15584635620E+02  0.10004758407E+03 -0.13530217852E+03  0.16899431783E+03  0.00000000000E+00 0.  1.
        -11    1    5    5    0    0  0.86835668892E+02  0.13040059802E+03 -0.23634564018E+03  0.28355601032E+03  0.00000000000E+00 0. -1.
          3    1    6    6  503    0 -0.18738773365E+03  0.86575034373E+02 -0.27355817986E+03  0.34270027293E+03  0.00000000000E+00 0. -1.
         -3    1    6    6    0  503 -0.56315250654E+03  0.41794809588E+03 -0.10633341254E+04  0.12737742416E+04  0.00000000000E+00 0.  1.
<mgrwt>
<rscale>  0 0.10848260E+04</rscale>
<asrwt>0</asrwt>
<pdfrwt beam="1">  1        2 0.30646025E+00 0.10848260E+04</pdfrwt>
<pdfrwt beam="2">  1       -2 0.40417198E+00 0.10848260E+04</pdfrwt>
<totfact> 0.47330507E-02</totfact>
</mgrwt>
</event>
<event>
12    1  0.1338445E-007  0.5621275E+03  0.7818608E-02  0.9987252E-01
         -2   -1    0    0    0  501 -0.00000000000E+00  0.00000000000E+00  0.27429506368E+03  0.27429506368E+03  0.00000000000E+00 0.  1.
          2   -1    0    0  501    0  0.00000000000E+00 -0.00000000000E+00 -0.21565048847E+04  0.21565048847E+04  0.00000000000E+00 0. -1.
         23    2    1    2    0    0  0.24190471463E+03  0.33447917648E+03 -0.15916977069E+04  0.16467952350E+04  0.89659051731E+02 0.  0.
    5000000    2    1    2    0    0 -0.24190471463E+03 -0.33447917648E+03 -0.29051211414E+03  0.78400471336E+03  0.59989323354E+03 0.  0.
         23    2    4    4    0    0 -0.38041610832E+03 -0.44599472474E+02 -0.13298290117E+03  0.41566888339E+03  0.91600437763E+02 0.  0.
         23    2    4    4    0    0  0.13851139369E+03 -0.28987970401E+03 -0.15752921297E+03  0.36833582997E+03  0.87408133035E+02 0.  0.
          1    1    3    3  502    0  0.89556223958E+02  0.15034688858E+03 -0.83946477209E+03  0.85751128724E+03  0.00000000000E+00 0. -1.
         -1    1    3    3    0  502  0.15234849067E+03  0.18413228790E+03 -0.75223293479E+03  0.78928394779E+03  0.00000000000E+00 0.  1.
         11    1    5    5    0    0 -0.15604290383E+03 -0.18263546116E+02 -0.75958448608E+01  0.15729158214E+03  0.00000000000E+00 0.  1.
        -11    1    5    5    0    0 -0.22437320449E+03 -0.26335926358E+02 -0.12538705631E+03  0.25837730125E+03  0.00000000000E+00 0. -1.
          1    1    6    6  503    0  0.96548631059E+02 -0.25505393509E+03 -0.10385961498E+03  0.29182352131E+03  0.00000000000E+00 0. -1.
         -1    1    6    6    0  503  0.41962762633E+02 -0.34825768919E+02 -0.53669597983E+02  0.76512308659E+02  0.00000000000E+00 0.  1.
<mgrwt>
<rscale>  0 0.56212753E+03</rscale>
<asrwt>0</asrwt>
<pdfrwt beam="1">  1        2 0.33176999E+00 0.56212753E+03</pdfrwt>
<pdfrwt beam="2">  1       -2 0.42199240E-01 0.56212753E+03</pdfrwt>
<totfact> 0.31010754E+01</totfact>
</mgrwt>
</event>
<event>
12    1  0.1338445E-007  0.1553019E+04  0.7818608E-02  0.8849942E-01
         -1   -1    0    0    0  501 -0.00000000000E+00  0.00000000000E+00  0.85928245131E+03  0.85928245131E+03  0.00000000000E+00 0.  1.
          1   -1    0    0  501    0  0.00000000000E+00 -0.00000000000E+00 -0.29501521059E+04  0.29501521059E+04  0.00000000000E+00 0. -1.
         23    2    1    2    0    0  0.85278567520E+03 -0.12752190286E+04 -0.10253588432E+04  0.18475990384E+04  0.93991865507E+02 0.  0.
    5000000    2    1    2    0    0 -0.85278567520E+03  0.12752190286E+04 -0.10655108114E+04  0.19618355188E+04  0.60004861049E+03 0.  0.
         23    2    4    4    0    0 -0.78649212695E+03  0.94792700786E+03 -0.57704835225E+03  0.13631333047E+04  0.89510488895E+02 0.  0.
         23    2    4    4    0    0 -0.66293548255E+02  0.32729202070E+03 -0.48846245912E+03  0.59870221406E+03  0.91290009277E+02 0.  0.
          1    1    3    3  502    0  0.32213499271E+03 -0.41366285212E+03 -0.32180826664E+03  0.61518165547E+03  0.00000000000E+00 0. -1.
         -1    1    3    3    0  502  0.53065068249E+03 -0.86155617644E+03 -0.70355057658E+03  0.12324173830E+04  0.00000000000E+00 0.  1.
         13    1    5    5    0    0 -0.69303197991E+03  0.80527032789E+03 -0.52334358666E+03  0.11843319365E+04  0.00000000000E+00 0. -1.
        -13    1    5    5    0    0 -0.93460147038E+02  0.14265667997E+03 -0.53704765596E+02  0.17880136820E+03  0.00000000000E+00 0.  1.
          3    1    6    6  503    0 -0.10825470572E+02  0.16575138742E+03 -0.17213598554E+03  0.23921018114E+03  0.00000000000E+00 0.  1.
         -3    1    6    6    0  503 -0.55468077683E+02  0.16154063328E+03 -0.31632647358E+03  0.35949203291E+03  0.00000000000E+00 0. -1.
<mgrwt>
<rscale>  0 0.15530191E+04</rscale>
<asrwt>0</asrwt>
<pdfrwt beam="1">  1        1 0.45386956E+00 0.15530191E+04</pdfrwt>
<pdfrwt beam="2">  1       -1 0.13219730E+00 0.15530191E+04</pdfrwt>
<totfact> 0.29942041E-01</totfact>
</mgrwt>
</event>
<event>
12    1  0.1338445E-007  0.8005531E+03  0.7818608E-02  0.9559217E-01
         -1   -1    0    0    0  501 -0.00000000000E+00  0.00000000000E+00  0.12557567791E+04  0.12557567791E+04  0.00000000000E+00 0.  1.
          1   -1    0    0  501    0  0.00000000000E+00 -0.00000000000E+00 -0.52017273508E+03  0.52017273508E+03  0.00000000000E+00 0. -1.
         23    2    1    2    0    0  0.44191421200E+03 -0.52927035268E+03  0.23625536235E+03  0.73441647222E+03  0.90198012342E+02 0.  0.
    5000000    2    1    2    0    0 -0.44191421200E+03  0.52927035268E+03  0.49932868165E+03  0.10415130419E+04  0.60000417267E+03 0.  0.
         23    2    4    4    0    0  0.11910433689E+03  0.20921611899E+03  0.95320386500E+02  0.27426614582E+03  0.90436249078E+02 0.  0.
         23    2    4    4    0    0 -0.56101854889E+03  0.32005423369E+03  0.40400829515E+03  0.76724689613E+03  0.90931690615E+02 0.  0.
          4    1    3    3  502    0  0.36510330563E+02 -0.16358411587E+02  0.24400933634E+01  0.40081865265E+02  0.00000000000E+00 0. -1.
         -4    1    3    3    0  502  0.40540388143E+03 -0.51291194110E+03  0.23381526899E+03  0.69433460695E+03  0.00000000000E+00 0.  1.
         13    1    5    5    0    0  0.13054085577E+03  0.16834578086E+03  0.67285312301E+02  0.22340217145E+03  0.00000000000E+00 0. -1.
        -13    1    5    5    0    0 -0.11436518876E+02  0.40870338129E+02  0.28035074200E+02  0.50863974365E+02  0.00000000000E+00 0.  1.
          2    1    6    6  503    0 -0.52096214609E+03  0.26708104531E+03  0.37091782993E+03  0.69304680865E+03  0.00000000000E+00 0. -1.
         -2    1    6    6    0  503 -0.40056402803E+02  0.52973188379E+02  0.33090465226E+02  0.74200087475E+02  0.00000000000E+00 0.  1.
<mgrwt>
<rscale>  0 0.80055310E+03</rscale>
<asrwt>0</asrwt>
<pdfrwt beam="1">  1        1 0.80026575E-01 0.80055310E+03</pdfrwt>
<pdfrwt beam="2">  1       -1 0.19319335E+00 0.80055310E+03</pdfrwt>
<totfact> 0.72277619E+00</totfact>
</mgrwt>
</event>
<event>
12    1  0.1338445E-007  0.5883830E+03  0.7818608E-02  0.9929805E-01
         -1   -1    0    0    0  501 -0.00000000000E+00  0.00000000000E+00  0.72564175808E+03  0.72564175808E+03  0.00000000000E+00 0.  1.
          1   -1    0    0  501    0  0.00000000000E+00 -0.00000000000E+00 -0.57210343683E+03  0.57210343683E+03  0.00000000000E+00 0. -1.
         23    2    1    2    0    0 -0.42908065941E+03 -0.25533017486E+03  0.70183363537E+02  0.51257933146E+03  0.92239666366E+02 0.  0.
    5000000    2    1    2    0    0  0.42908065941E+03  0.25533017486E+03  0.83354957709E+02  0.78516586345E+03  0.60019469648E+03 0.  0.
         23    2    4    4    0    0  0.36826603632E+03  0.38042759578E+03 -0.89869846317E+02  0.54515964302E+03  0.93687875221E+02 0.  0.
         23    2    4    4    0    0  0.60814623087E+02 -0.12509742091E+03  0.17322480403E+03  0.24000622043E+03  0.90820537411E+02 0.  0.
          1    1    3    3  502    0 -0.22283712803E+03 -0.15024020747E+03  0.81468455151E+02  0.28083022408E+03  0.00000000000E+00 0. -1.
         -1    1    3    3    0  502 -0.20624353138E+03 -0.10508996739E+03 -0.11285091613E+02  0.23174910739E+03  0.00000000000E+00 0.  1.
         11    1    5    5    0    0  0.32396395254E+03  0.36332545807E+03 -0.63688144830E+02  0.49093198186E+03  0.00000000000E+00 0. -1.
        -11    1    5    5    0    0  0.44302083781E+02  0.17102137710E+02 -0.26181701487E+02  0.54227661155E+02  0.00000000000E+00 0.  1.
          3    1    6    6  503    0  0.25232513699E+02 -0.22984406528E+02  0.10903998815E+03  0.11425708602E+03  0.00000000000E+00 0. -1.
         -3    1    6    6    0  503  0.35582109389E+02 -0.10211301439E+03  0.64184815878E+02  0.12574913441E+03  0.00000000000E+00 0.  1.
<mgrwt>
<rscale>  0 0.58838304E+03</rscale>
<asrwt>0</asrwt>
<pdfrwt beam="1">  1        1 0.88015913E-01 0.58838304E+03</pdfrwt>
<pdfrwt beam="2">  1       -1 0.11163719E+00 0.58838304E+03</pdfrwt>
<totfact> 0.28205858E+01</totfact>
</mgrwt>
</event>
<event>
12    1  0.1338445E-007  0.4709708E+03  0.7818608E-02  0.1021647E+00
         -2   -1    0    0    0  501 -0.00000000000E+00  0.00000000000E+00  0.43804646500E+03  0.43804646500E+03  0.00000000000E+00 0.  1.
          2   -1    0    0  501    0  0.00000000000E+00 -0.00000000000E+00 -0.95805319791E+03  0.95805319791E+03  0.00000000000E+00 0. -1.
         23    2    1    2    0    0  0.22494847641E+02 -0.33592642345E+03 -0.60951824330E+03  0.70233129487E+03  0.91674307741E+02 0.  0.
    5000000    2    1    2    0    0 -0.22494847641E+02  0.33592642345E+03  0.89511510396E+02  0.69376836804E+03  0.59995804675E+03 0.  0.
         23    2    4    4    0    0  0.21978513658E+03  0.20514689353E+03 -0.11880680257E+03  0.33629357787E+03  0.92669088667E+02 0.  0.
         23    2    4    4    0    0 -0.24227998422E+03  0.13077952992E+03  0.20831831297E+03  0.35747479017E+03  0.92675940201E+02 0.  0.
          1    1    3    3  502    0  0.28546216149E+02 -0.27879144255E+02 -0.87508893957E+02  0.96176606627E+02  0.00000000000E+00 0. -1.
         -1    1    3    3    0  502 -0.60513685077E+01 -0.30804727919E+03 -0.52200934934E+03  0.60615468824E+03  0.00000000000E+00 0.  1.
         11    1    5    5    0    0  0.11226539051E+03  0.49682020382E+02 -0.68954725236E+02  0.14080687195E+03  0.00000000000E+00 0. -1.
        -11    1    5    5    0    0  0.10751974606E+03  0.15546487315E+03 -0.49852077335E+02  0.19548670592E+03  0.00000000000E+00 0.  1.
          3    1    6    6  503    0 -0.20966032474E+03  0.85700344237E+02  0.12922742406E+03  0.26077140929E+03  0.00000000000E+00 0. -1.
         -3    1    6    6    0  503 -0.32619659474E+02  0.45079185678E+02  0.79090888905E+02  0.96703380879E+02  0.00000000000E+00 0.  1.
<mgrwt>
<rscale>  0 0.47097084E+03</rscale>
<asrwt>0</asrwt>
<pdfrwt beam="1">  1        2 0.14739280E+00 0.47097084E+03</pdfrwt>
<pdfrwt beam="2">  1       -2 0.67391764E-01 0.47097084E+03</pdfrwt>
<totfact> 0.56583167E+01</totfact>
</mgrwt>
</event>
<event>
12    1  0.1338445E-007  0.9456742E+03  0.7818608E-02  0.9370221E-01
         -2   -1    0    0    0  501 -0.00000000000E+00  0.00000000000E+00  0.15322990039E+04  0.15322990039E+04  0.00000000000E+00 0.  1.
          2   -1    0    0  501    0  0.00000000000E+00 -0.00000000000E+00 -0.84600164922E+03  0.84600164922E+03  0.00000000000E+00 0. -1.
         23    2    1    2    0    0 -0.49133838302E+03 -0.75341144855E+03 -0.26062645021E+03  0.94105616953E+03  0.92835070058E+02 0.  0.
    5000000    2    1    2    0    0  0.49133838302E+03  0.75341144855E+03  0.94692380485E+03  0.14372444835E+04  0.59997066251E+03 0.  0.
         23    2    4    4    0    0  0.39797865270E+02 -0.91557339348E+01  0.35118665243E+03  0.36546439553E+03  0.92544378616E+02 0.  0.
         23    2    4    4    0    0  0.45154051775E+03  0.76256718248E+03  0.59573715242E+03  0.10717800880E+04  0.91718347808E+02 0.  0.
          2    1    3    3  502    0 -0.27216907238E+03 -0.48897519368E+03 -0.18467797908E+03  0.58930357199E+03  0.00000000000E+00 0. -1.
         -2    1    3    3    0  502 -0.21916931064E+03 -0.26443625487E+03 -0.75948471127E+02  0.35175259755E+03  0.00000000000E+00 0.  1.
         11    1    5    5    0    0  0.69613463801E+02 -0.12276097449E+02  0.22950585479E+03  0.24014511091E+03  0.00000000000E+00 0.  1.
        -11    1    5    5    0    0 -0.29815598531E+02  0.31203635147E+01  0.12168079764E+03  0.12531928462E+03  0.00000000000E+00 0. -1.
          3    1    6    6  503    0  0.25754471327E+03  0.38641046658E+03  0.35795876171E+03  0.58632482729E+03  0.00000000000E+00 0. -1.
         -3    1    6    6    0  503  0.19399580449E+03  0.37615671590E+03  0.23777839071E+03  0.48545526072E+03  0.00000000000E+00 0.  1.
<mgrwt>
<rscale>  0 0.94567424E+03</rscale>
<asrwt>0</asrwt>
<pdfrwt beam="1">  1        2 0.13015410E+00 0.94567424E+03</pdfrwt>
<pdfrwt beam="2">  1       -2 0.23573831E+00 0.94567424E+03</pdfrwt>
<totfact> 0.25200031E+00</totfact>
</mgrwt>
</event>
<event>
12    1  0.1338445E-007  0.5467868E+03  0.7818608E-02  0.1002240E+00
         -1   -1    0    0    0  501 -0.00000000000E+00  0.00000000000E+00  0.35276583068E+03  0.35276583068E+03  0.00000000000E+00 0.  1.
          1   -1    0    0  501    0  0.00000000000E+00 -0.00000000000E+00 -0.12495618013E+04  0.12495618013E+04  0.00000000000E+00 0. -1.
         23    2    1    2    0    0  0.24443485449E+03  0.30847903160E+03  0.57969177634E+02  0.40807264822E+03  0.90857854071E+02 0.  0.
    5000000    2    1    2    0    0 -0.24443485449E+03 -0.30847903160E+03 -0.95476514827E+03  0.11942549838E+04  0.59980060593E+03 0.  0.
         23    2    4    4    0    0  0.81160696779E+02 -0.35351221159E+03 -0.46107205381E+03  0.59424736235E+03  0.94786847270E+02 0.  0.
         23    2    4    4    0    0 -0.32559555127E+03  0.45033179984E+02 -0.49369309446E+03  0.60000762141E+03  0.90751440388E+02 0.  0.
          3    1    3    3  502    0  0.78308614737E+02  0.54074957568E+02  0.41400396693E+02  0.10378021499E+03  0.00000000000E+00 0. -1.
         -3    1    3    3    0  502  0.16612623975E+03  0.25440407403E+03  0.16568780941E+02  0.30429243323E+03  0.00000000000E+00 0.  1.
         11    1    5    5    0    0 -0.23711403513E+01 -0.76107724168E+02 -0.49077247404E+02  0.90590199235E+02  0.00000000000E+00 0.  1.
        -11    1    5    5    0    0  0.83531837130E+02 -0.27740448742E+03 -0.41199480640E+03  0.50365716311E+03  0.00000000000E+00 0. -1.
          2    1    6    6  503    0 -0.13870396754E+03  0.17379826758E+02 -0.29150283892E+03  0.32328741715E+03  0.00000000000E+00 0. -1.
         -2    1    6    6    0  503 -0.18689158373E+03  0.27653353225E+02 -0.20219025554E+03  0.27672020427E+03  0.00000000000E+00 0.  1.
<mgrwt>
<rscale>  0 0.54678679E+03</rscale>
<asrwt>0</asrwt>
<pdfrwt beam="1">  1        1 0.19224027E+00 0.54678679E+03</pdfrwt>
<pdfrwt beam="2">  1       -1 0.54271667E-01 0.54678679E+03</pdfrwt>
<totfact> 0.35621782E+01</totfact>
</mgrwt>
</event>
<event>
12    1  0.1338445E-007  0.3349340E+03  0.7818608E-02  0.1068974E+00
         -2   -1    0    0    0  501 -0.00000000000E+00  0.00000000000E+00  0.17795576567E+03  0.17795576567E+03  0.00000000000E+00 0.  1.
          2   -1    0    0  501    0  0.00000000000E+00 -0.00000000000E+00 -0.11868704568E+04  0.11868704568E+04  0.00000000000E+00 0. -1.
         23    2    1    2    0    0  0.18598824788E+03  0.10062131357E+03 -0.49978387681E+03  0.55003610872E+03  0.89663372018E+02 0.  0.
    5000000    2    1    2    0    0 -0.18598824788E+03 -0.10062131357E+03 -0.50913081429E+03  0.81479011373E+03  0.59996038725E+03 0.  0.
         23    2    4    4    0    0 -0.55385245638E+01 -0.22390036978E+03 -0.52379115968E+03  0.57688099303E+03  0.90953011615E+02 0.  0.
         23    2    4    4    0    0 -0.18044972331E+03  0.12327905621E+03  0.14660345385E+02  0.23790912070E+03  0.92876238292E+02 0.  0.
          1    1    3    3  502    0  0.19981337147E+02  0.36590473886E+02 -0.17300309010E+03  0.17795557254E+03  0.00000000000E+00 0. -1.
         -1    1    3    3    0  502  0.16600691073E+03  0.64030839687E+02 -0.32678078671E+03  0.37208053618E+03  0.00000000000E+00 0.  1.
         13    1    5    5    0    0 -0.29033239750E+01 -0.14626331664E+03 -0.22671821655E+03  0.26981945222E+03  0.00000000000E+00 0.  1.
        -13    1    5    5    0    0 -0.26352005888E+01 -0.77637053145E+02 -0.29707294313E+03  0.30706154081E+03  0.00000000000E+00 0. -1.
          1    1    6    6  503    0 -0.68549659215E+02  0.82298084183E+02 -0.29050393993E+02  0.11097727619E+03  0.00000000000E+00 0. -1.
         -1    1    6    6    0  503 -0.11190006410E+03  0.40980972030E+02  0.43710739378E+02  0.12693184451E+03  0.00000000000E+00 0.  1.
<mgrwt>
<rscale>  0 0.33493402E+03</rscale>
<asrwt>0</asrwt>
<pdfrwt beam="1">  1        2 0.18259546E+00 0.33493402E+03</pdfrwt>
<pdfrwt beam="2">  1       -2 0.27377810E-01 0.33493402E+03</pdfrwt>
<totfact> 0.24543967E+02</totfact>
</mgrwt>
</event>
<event>
12    1  0.1338445E-007  0.7313961E+03  0.7818608E-02  0.9664998E-01
          2   -1    0    0  501    0  0.00000000000E+00  0.00000000000E+00  0.59663911279E+03  0.59663911279E+03  0.00000000000E+00 0.  1.
         -2   -1    0    0    0  501 -0.00000000000E+00 -0.00000000000E+00 -0.13551951415E+04  0.13551951415E+04  0.00000000000E+00 0. -1.
         23    2    1    2    0    0 -0.35560261924E+03  0.57955329558E+03  0.11188131508E+03  0.69486143995E+03  0.89329428701E+02 0.  0.
    5000000    2    1    2    0    0  0.35560261924E+03 -0.57955329558E+03 -0.87043734381E+03  0.12569728144E+04  0.59998686761E+03 0.  0.
         23    2    4    4    0    0  0.81043872850E+02  0.19687626354E+02 -0.45615253074E+03  0.47336579495E+03  0.95101695964E+02 0.  0.
         23    2    4    4    0    0  0.27455874639E+03 -0.59924092194E+03 -0.41428481307E+03  0.78360701940E+03  0.89083482044E+02 0.  0.
          4    1    3    3  502    0 -0.25573758260E+03  0.45346896754E+03  0.51870904199E+02  0.52318869099E+03  0.00000000000E+00 0.  1.
         -4    1    3    3    0  502 -0.99865036640E+02  0.12608432804E+03  0.60010410881E+02  0.17167274896E+03  0.00000000000E+00 0. -1.
         13    1    5    5    0    0 -0.12045237076E+02  0.25740516526E+02 -0.17090710179E+03  0.17325385817E+03  0.00000000000E+00 0. -1.
        -13    1    5    5    0    0  0.93089109927E+02 -0.60528901718E+01 -0.28524542895E+03  0.30011193678E+03  0.00000000000E+00 0.  1.
          2    1    6    6  503    0  0.46678574726E+02 -0.12644487613E+03 -0.12741323024E+03  0.18547594798E+03  0.00000000000E+00 0. -1.
         -2    1    6    6    0  503  0.22788017167E+03 -0.47279604581E+03 -0.28687158283E+03  0.59813107142E+03  0.00000000000E+00 0.  1.
<mgrwt>
<rscale>  0 0.73139615E+03</rscale>
<asrwt>0</asrwt>
<pdfrwt beam="1">  1        2 0.91790632E-01 0.73139615E+03</pdfrwt>
<pdfrwt beam="2">  1       -2 0.20849156E+00 0.73139615E+03</pdfrwt>
<totfact> 0.59870144E+00</totfact>
</mgrwt>
</event>
<event>
12    1  0.1338445E-007  0.1378629E+04  0.7818608E-02  0.8969435E-01
          2   -1    0    0  501    0  0.00000000000E+00  0.00000000000E+00  0.27148688509E+04  0.27148688509E+04  0.00000000000E+00 0.  1.
         -2   -1    0    0    0  501 -0.00000000000E+00 -0.00000000000E+00 -0.76791257571E+03  0.76791257571E+03  0.00000000000E+00 0. -1.
         23    2    1    2    0    0 -0.27590388801E+03 -0.13141260700E+04  0.54769980666E+03  0.14528261779E+04  0.87627289480E+02 0.  0.
    5000000    2    1    2    0    0  0.27590388801E+03  0.13141260700E+04  0.13992564686E+04  0.20299552487E+04  0.59979110005E+03 0.  0.
         23    2    4    4    0    0 -0.12221607192E+03  0.32611138202E+03  0.57763966002E+03  0.68138622879E+03  0.96613737281E+02 0.  0.
         23    2    4    4    0    0  0.39811995993E+03  0.98801468796E+03  0.82161680853E+03  0.13485690199E+04  0.94401775814E+02 0.  0.
          3    1    3    3  502    0 -0.13122548260E+03 -0.57460801597E+03  0.28611239457E+03  0.65517539760E+03  0.00000000000E+00 0. -1.
         -3    1    3    3    0  502 -0.14467840541E+03 -0.73951805401E+03  0.26158741209E+03  0.79765078033E+03  0.00000000000E+00 0.  1.
         11    1    5    5    0    0 -0.99074241198E+02  0.28550086240E+03  0.42316786801E+03  0.51999758866E+03  0.00000000000E+00 0. -1.
        -11    1    5    5    0    0 -0.23141830721E+02  0.40610519616E+02  0.15447179201E+03  0.16138864012E+03  0.00000000000E+00 0.  1.
          2    1    6    6  503    0  0.82929563464E+02  0.22676677348E+03  0.13896272982E+03  0.27858772825E+03  0.00000000000E+00 0. -1.
         -2    1    6    6    0  503  0.31519039646E+03  0.76124791448E+03  0.68265407871E+03  0.10699812917E+04  0.00000000000E+00 0.  1.
<mgrwt>
<rscale>  0 0.13786289E+04</rscale>
<asrwt>0</asrwt>
<pdfrwt beam="1">  1        2 0.41767213E+00 0.13786289E+04</pdfrwt>
<pdfrwt beam="2">  1       -2 0.11814040E+00 0.13786289E+04</pdfrwt>
<totfact> 0.13833599E+00</totfact>
</mgrwt>
</event>
<event>
12    1  0.1338445E-007  0.3638150E+03  0.7818608E-02  0.1057083E+00
          2   -1    0    0  501    0  0.00000000000E+00  0.00000000000E+00  0.52654682515E+03  0.52654682515E+03  0.00000000000E+00 0. -1.
         -2   -1    0    0    0  501 -0.00000000000E+00 -0.00000000000E+00 -0.39709953739E+03  0.39709953739E+03  0.00000000000E+00 0.  1.
         23    2    1    2    0    0 -0.15714857793E+03  0.30830540776E+02 -0.15521681427E+03  0.24052400725E+03  0.90074085290E+02 0.  0.
    5000000    2    1    2    0    0  0.15714857793E+03 -0.30830540776E+02  0.28466410204E+03  0.68312235529E+03  0.59998025261E+03 0.  0.
         23    2    4    4    0    0  0.35547926234E+03 -0.42841165471E+02  0.27921744497E+03  0.46311905455E+03  0.91192136214E+02 0.  0.
         23    2    4    4    0    0 -0.19833068440E+03  0.12010624696E+02  0.54466570722E+01  0.22000330074E+03  0.94299898099E+02 0.  0.
          3    1    3    3  502    0 -0.87137695485E+02  0.33400230614E+02 -0.14092682840E+03  0.16902344318E+03  0.00000000000E+00 0. -1.
         -3    1    3    3    0  502 -0.70010882449E+02 -0.25696898382E+01 -0.14289985871E+02  0.71500564077E+02  0.00000000000E+00 0.  1.
         11    1    5    5    0    0  0.20119246854E+03 -0.38497186118E+02  0.10439399796E+03  0.22990987266E+03  0.00000000000E+00 0.  1.
        -11    1    5    5    0    0  0.15428679380E+03 -0.43439793535E+01  0.17482344701E+03  0.23320918190E+03  0.00000000000E+00 0. -1.
          3    1    6    6  503    0 -0.13494112103E+03  0.31833666487E+02  0.41117371209E+02  0.14461371540E+03  0.00000000000E+00 0. -1.
         -3    1    6    6    0  503 -0.63389563377E+02 -0.19823041792E+02 -0.35670714137E+02  0.75389585342E+02  0.00000000000E+00 0.  1.
<mgrwt>
<rscale>  0 0.36381503E+03</rscale>
<asrwt>0</asrwt>
<pdfrwt beam="1">  1        2 0.81007204E-01 0.36381503E+03</pdfrwt>
<pdfrwt beam="2">  1       -2 0.61092236E-01 0.36381503E+03</pdfrwt>
<totfact> 0.14961150E+02</totfact>
</mgrwt>
</event>
<event>
12    1  0.1338445E-007  0.8638524E+03  0.7818608E-02  0.9471931E-01
          1   -1    0    0  501    0  0.00000000000E+00  0.00000000000E+00  0.72973864393E+03  0.72973864393E+03  0.00000000000E+00 0. -1.
         -1   -1    0    0    0  501 -0.00000000000E+00 -0.00000000000E+00 -0.12382090316E+04  0.12382090316E+04  0.00000000000E+00 0.  1.
         23    2    1    2    0    0  0.44792967601E+03  0.69804406334E+03 -0.23280566219E+02  0.83505442313E+03  0.94166850887E+02 0.  0.
    5000000    2    1    2    0    0 -0.44792967601E+03 -0.69804406334E+03 -0.48518982147E+03  0.11328932524E+04  0.60010953126E+03 0.  0.
         23    2    4    4    0    0 -0.46209999381E+03 -0.71062924452E+03 -0.26267732565E+03  0.89273149053E+03  0.97158681224E+02 0.  0.
         23    2    4    4    0    0  0.14170317795E+02  0.12585181178E+02 -0.22251249583E+03  0.24016176189E+03  0.88355398166E+02 0.  0.
          1    1    3    3  502    0  0.88698644268E+02  0.21384396477E+03  0.37823571311E+01  0.23154048671E+03  0.00000000000E+00 0. -1.
         -1    1    3    3    0  502  0.35923103174E+03  0.48420009858E+03 -0.27062923350E+02  0.60351393642E+03  0.00000000000E+00 0.  1.
         13    1    5    5    0    0 -0.24255882318E+03 -0.28508454828E+03 -0.10987300754E+03  0.39010262772E+03  0.00000000000E+00 0. -1.
        -13    1    5    5    0    0 -0.21954117063E+03 -0.42554469624E+03 -0.15280431810E+03  0.50262886281E+03  0.00000000000E+00 0.  1.
          1    1    6    6  503    0 -0.10429886167E+02  0.11485801265E+02 -0.21331028080E+03  0.21387375260E+03  0.00000000000E+00 0. -1.
         -1    1    6    6    0  503  0.24600203961E+02  0.10993799129E+01 -0.92022150241E+01  0.26288009291E+02  0.00000000000E+00 0.  1.
<mgrwt>
<rscale>  0 0.86385237E+03</rscale>
<asrwt>0</asrwt>
<pdfrwt beam="1">  1        1 0.11226749E+00 0.86385237E+03</pdfrwt>
<pdfrwt beam="2">  1       -1 0.19049369E+00 0.86385237E+03</pdfrwt>
<totfact> 0.45702849E+00</totfact>
</mgrwt>
</event>
<event>
12    1  0.1338445E-007  0.1362192E+04  0.7818608E-02  0.8981650E-01
         -2   -1    0    0    0  501 -0.00000000000E+00  0.00000000000E+00  0.28251959741E+04  0.28251959741E+04  0.00000000000E+00 0. -1.
          2   -1    0    0  501    0  0.00000000000E+00 -0.00000000000E+00 -0.11334157105E+04  0.11334157105E+04  0.00000000000E+00 0.  1.
         23    2    1    2    0    0  0.99870005240E+03 -0.87377552043E+03  0.20636083246E+04  0.24551101336E+04  0.90559348695E+02 0.  0.
    5000000    2    1    2    0    0 -0.99870005240E+03  0.87377552043E+03 -0.37182806107E+03  0.15035015510E+04  0.60114503409E+03 0.  0.
         23    2    4    4    0    0 -0.86426583658E+03  0.89482957372E+03 -0.19498735573E+03  0.12625291039E+04  0.91017948770E+02 0.  0.
         23    2    4    4    0    0 -0.13443421582E+03 -0.21054053294E+02 -0.17684070533E+03  0.24097244708E+03  0.90990404130E+02 0.  0.
          4    1    3    3  502    0  0.40868260228E+03 -0.30195068448E+03  0.76359723731E+03  0.91721122218E+03  0.00000000000E+00 0. -1.
         -4    1    3    3    0  502  0.59001745012E+03 -0.57182483595E+03  0.13000110873E+04  0.15378989114E+04  0.00000000000E+00 0.  1.
         11    1    5    5    0    0 -0.58351487825E+03  0.66320283410E+03 -0.13282212343E+03  0.89329128999E+03  0.00000000000E+00 0. -1.
        -11    1    5    5    0    0 -0.28075095832E+03  0.23162673962E+03 -0.62165232302E+02  0.36923781390E+03  0.00000000000E+00 0.  1.
          2    1    6    6  503    0 -0.46160830912E+02 -0.34975123169E+02 -0.21529707960E+02  0.61786809887E+02  0.00000000000E+00 0. -1.
         -2    1    6    6    0  503 -0.88273384909E+02  0.13921069876E+02 -0.15531099737E+03  0.17918563719E+03  0.00000000000E+00 0.  1.
<mgrwt>
<rscale>  0 0.13621921E+04</rscale>
<asrwt>0</asrwt>
<pdfrwt beam="1">  1        2 0.17437165E+00 0.13621921E+04</pdfrwt>
<pdfrwt beam="2">  1       -2 0.43464553E+00 0.13621921E+04</pdfrwt>
<totfact> 0.87758985E-02</totfact>
</mgrwt>
</event>
<event>
12    1  0.1338445E-007  0.5173016E+03  0.7818608E-02  0.1009359E+00
         -2   -1    0    0    0  501 -0.00000000000E+00  0.00000000000E+00  0.92520998906E+03  0.92520998906E+03  0.00000000000E+00 0.  1.
          2   -1    0    0  501    0  0.00000000000E+00 -0.00000000000E+00 -0.50075062819E+03  0.50075062819E+03  0.00000000000E+00 0. -1.
         23    2    1    2    0    0 -0.44527799792E+03  0.22045813599E+03 -0.59577294847E+02  0.50888857667E+03  0.92432917507E+02 0.  0.
    5000000    2    1    2    0    0  0.44527799792E+03 -0.22045813599E+03  0.48403665572E+03  0.91707204058E+03  0.59987945320E+03 0.  0.
         23    2    4    4    0    0  0.34842489022E+03 -0.23885730573E+03  0.59955189603E+03  0.73915394494E+03  0.91833336402E+02 0.  0.
         23    2    4    4    0    0  0.96853107708E+02  0.18399169740E+02 -0.11551524031E+03  0.17791809563E+03  0.92693171756E+02 0.  0.
          1    1    3    3  502    0 -0.16987855817E+03  0.13422732214E+03 -0.16905327448E+02  0.21716696027E+03  0.00000000000E+00 0. -1.
         -1    1    3    3    0  502 -0.27539943975E+03  0.86230813856E+02 -0.42671967400E+02  0.29172161640E+03  0.00000000000E+00 0.  1.
         13    1    5    5    0    0  0.35052074274E+03 -0.23047376426E+03  0.59784813541E+03  0.73034604135E+03  0.00000000000E+00 0.  1.
        -13    1    5    5    0    0 -0.20958525250E+01 -0.83835414771E+01  0.17037606164E+01  0.88079035953E+01  0.00000000000E+00 0. -1.
          1    1    6    6  503    0  0.37760979168E+02  0.18999831033E+02 -0.11085304000E+03  0.11863929199E+03  0.00000000000E+00 0. -1.
         -1    1    6    6    0  503  0.59092128540E+02 -0.60066129334E+00 -0.46622003083E+01  0.59278803641E+02  0.00000000000E+00 0.  1.
<mgrwt>
<rscale>  0 0.51730163E+03</rscale>
<asrwt>0</asrwt>
<pdfrwt beam="1">  1        2 0.77038558E-01 0.51730163E+03</pdfrwt>
<pdfrwt beam="2">  1       -2 0.14234000E+00 0.51730163E+03</pdfrwt>
<totfact> 0.21936082E+01</totfact>
</mgrwt>
</event>
<event>
12    1  0.1338445E-007  0.6813607E+03  0.7818608E-02  0.9749650E-01
         -2   -1    0    0    0  501 -0.00000000000E+00  0.00000000000E+00  0.64939411460E+03  0.64939411460E+03  0.00000000000E+00 0.  1.
          2   -1    0    0  501    0  0.00000000000E+00 -0.00000000000E+00 -0.77744657271E+03  0.77744657271E+03  0.00000000000E+00 0. -1.
         23    2    1    2    0    0  0.19598622521E+03  0.53434872745E+03  0.57812517455E+02  0.57921209242E+03  0.90582547030E+02 0.  0.
    5000000    2    1    2    0    0 -0.19598622521E+03 -0.53434872745E+03 -0.18586497557E+03  0.84762859490E+03  0.59999106888E+03 0.  0.
         23    2    4    4    0    0 -0.37459783276E+03 -0.25737892558E+03 -0.85110724327E+01  0.46375651990E+03  0.91816249967E+02 0.  0.
         23    2    4    4    0    0  0.17861160755E+03 -0.27696980188E+03 -0.17735390314E+03  0.38387207500E+03  0.85375555628E+02 0.  0.
          4    1    3    3  502    0  0.15905303275E+03  0.32007451956E+03  0.15852323135E+02  0.35776649012E+03  0.00000000000E+00 0. -1.
         -4    1    3    3    0  502  0.36933192460E+02  0.21427420789E+03  0.41960194320E+02  0.22144560230E+03  0.00000000000E+00 0.  1.
         13    1    5    5    0    0 -0.10348616965E+03 -0.73971153212E+02 -0.43806382400E+02  0.13453667885E+03  0.00000000000E+00 0.  1.
        -13    1    5    5    0    0 -0.27111166311E+03 -0.18340777236E+03  0.35295309968E+02  0.32921984105E+03  0.00000000000E+00 0. -1.
          4    1    6    6  503    0  0.11999307014E+03 -0.22504271108E+03 -0.10041783039E+03  0.27409177177E+03  0.00000000000E+00 0. -1.
         -4    1    6    6    0  503  0.58618537409E+02 -0.51927090802E+02 -0.76936072745E+02  0.10978030323E+03  0.00000000000E+00 0.  1.
<mgrwt>
<rscale>  0 0.68136074E+03</rscale>
<asrwt>0</asrwt>
<pdfrwt beam="1">  1        2 0.11960716E+00 0.68136074E+03</pdfrwt>
<pdfrwt beam="2">  1       -2 0.99906787E-01 0.68136074E+03</pdfrwt>
<totfact> 0.30222813E+01</totfact>
</mgrwt>
</event>
<event>
12    1  0.1338445E-007  0.1154010E+04  0.7818608E-02  0.9154092E-01
          2   -1    0    0  501    0  0.00000000000E+00  0.00000000000E+00  0.16514680639E+04  0.16514680639E+04  0.00000000000E+00 0. -1.
         -2   -1    0    0    0  501 -0.00000000000E+00 -0.00000000000E+00 -0.94221078402E+03  0.94221078402E+03  0.00000000000E+00 0.  1.
         23    2    1    2    0    0 -0.72386858423E+03  0.82943352674E+03 -0.87524308736E+02  0.11081405521E+04  0.91483747408E+02 0.  0.
    5000000    2    1    2    0    0  0.72386858423E+03 -0.82943352674E+03  0.79678158859E+03  0.14855382958E+04  0.60001452142E+03 0.  0.
         23    2    4    4    0    0  0.26761571718E+03 -0.90205832107E+01  0.32493153110E+03  0.43085683513E+03  0.91419743341E+02 0.  0.
         23    2    4    4    0    0  0.45625286705E+03 -0.82041294353E+03  0.47185005749E+03  0.10546814607E+04  0.92013206496E+02 0.  0.
          3    1    3    3  502    0 -0.63253312207E+03  0.73919123929E+03 -0.10510939670E+03  0.97854474810E+03  0.00000000000E+00 0. -1.
         -3    1    3    3    0  502 -0.91335462160E+02  0.90242287449E+02  0.17585087959E+02  0.12959580399E+03  0.00000000000E+00 0.  1.
         11    1    5    5    0    0  0.47685453401E+02  0.25125920439E+01  0.13870646316E+02  0.49725349814E+02  0.00000000000E+00 0. -1.
        -11    1    5    5    0    0  0.21993026377E+03 -0.11533175255E+02  0.31106088478E+03  0.38113148532E+03  0.00000000000E+00 0.  1.
          1    1    6    6  503    0  0.35489844309E+02 -0.61600429603E+02  0.10111727870E+02  0.71808001064E+02  0.00000000000E+00 0. -1.
         -1    1    6    6    0  503  0.42076302274E+03 -0.75881251392E+03  0.46173832962E+03  0.98287345963E+03  0.00000000000E+00 0.  1.
<mgrwt>
<rscale>  0 0.11540097E+04</rscale>
<asrwt>0</asrwt>
<pdfrwt beam="1">  1        2 0.25407201E+00 0.11540097E+04</pdfrwt>
<pdfrwt beam="2">  1       -2 0.14495551E+00 0.11540097E+04</pdfrwt>
<totfact> 0.33442401E+00</totfact>
</mgrwt>
</event>
<event>
12    1  0.1338445E-007  0.1005621E+04  0.7818608E-02  0.9302402E-01
         -2   -1    0    0    0  501 -0.00000000000E+00  0.00000000000E+00  0.37581498201E+03  0.37581498201E+03  0.00000000000E+00 0.  1.
          2   -1    0    0  501    0  0.00000000000E+00 -0.00000000000E+00 -0.31003808510E+04  0.31003808510E+04  0.00000000000E+00 0. -1.
         23    2    1    2    0    0  0.63057931443E+03  0.72743111147E+03 -0.86040878297E+03  0.12942130921E+04  0.88870468306E+02 0.  0.
    5000000    2    1    2    0    0 -0.63057931443E+03 -0.72743111147E+03 -0.18641570860E+04  0.21819827410E+04  0.59931690012E+03 0.  0.
         23    2    4    4    0    0 -0.29873661695E+03 -0.86640406291E+02 -0.24310208889E+03  0.40524091800E+03  0.91495626598E+02 0.  0.
         23    2    4    4    0    0 -0.33184269748E+03 -0.64079070517E+03 -0.16210549971E+04  0.17767418230E+04  0.90883981231E+02 0.  0.
          3    1    3    3  502    0  0.28741632728E+03  0.38838595699E+03 -0.46303563025E+03  0.66921879207E+03  0.00000000000E+00 0. -1.
         -3    1    3    3    0  502  0.34316298715E+03  0.33904515447E+03 -0.39737315272E+03  0.62499429999E+03  0.00000000000E+00 0.  1.
         13    1    5    5    0    0 -0.53324523672E+00  0.10412951688E+02 -0.54487566980E+01  0.11764474612E+02  0.00000000000E+00 0. -1.
        -13    1    5    5    0    0 -0.29820337171E+03 -0.97053357980E+02 -0.23765333220E+03  0.39347644338E+03  0.00000000000E+00 0.  1.
          1    1    6    6  503    0 -0.12911452118E+02 -0.22460916823E+02 -0.11304947303E+03  0.11598009197E+03  0.00000000000E+00 0. -1.
         -1    1    6    6    0  503 -0.31893124537E+03 -0.61832978835E+03 -0.15080055241E+04  0.16607617310E+04  0.00000000000E+00 0.  1.
<mgrwt>
<rscale>  0 0.10056205E+04</rscale>
<asrwt>0</asrwt>
<pdfrwt beam="1">  1        2 0.47698168E+00 0.10056205E+04</pdfrwt>
<pdfrwt beam="2">  1       -2 0.57817688E-01 0.10056205E+04</pdfrwt>
<totfact> 0.43153888E+00</totfact>
</mgrwt>
</event>
<event>
12    1  0.1338445E-007  0.7033937E+03  0.7818608E-02  0.9711446E-01
          1   -1    0    0  501    0  0.00000000000E+00  0.00000000000E+00  0.15158810172E+04  0.15158810172E+04  0.00000000000E+00 0. -1.
         -1   -1    0    0    0  501 -0.00000000000E+00 -0.00000000000E+00 -0.38492165188E+03  0.38492165188E+03  0.00000000000E+00 0.  1.
         23    2    1    2    0    0  0.16010609104E+03  0.61381474675E+03  0.35173228657E+03  0.73101794142E+03  0.90934732332E+02 0.  0.
    5000000    2    1    2    0    0 -0.16010609104E+03 -0.61381474675E+03  0.77922707875E+03  0.11697847277E+04  0.59899830141E+03 0.  0.
         23    2    4    4    0    0 -0.20217132995E+03 -0.69100339975E+02  0.49877599213E+03  0.54967383440E+03  0.87839229630E+02 0.  0.
         23    2    4    4    0    0  0.42065238911E+02 -0.54471440677E+03  0.28045108662E+03  0.62011089326E+03  0.86031614429E+02 0.  0.
          1    1    3    3  502    0  0.95296373492E+02  0.39385464647E+03  0.27285864580E+03  0.48852300042E+03  0.00000000000E+00 0. -1.
         -1    1    3    3    0  502  0.64809717551E+02  0.21996010027E+03  0.78873640768E+02  0.24249494100E+03  0.00000000000E+00 0.  1.
         11    1    5    5    0    0 -0.92184274573E+02 -0.57373905343E+02  0.33407639934E+03  0.35127872991E+03  0.00000000000E+00 0. -1.
        -11    1    5    5    0    0 -0.10998705538E+03 -0.11726434633E+02  0.16469959279E+03  0.19839510449E+03  0.00000000000E+00 0.  1.
          4    1    6    6  503    0  0.61464677318E+02 -0.24031556949E+03  0.12528982205E+03  0.27789749730E+03  0.00000000000E+00 0. -1.
         -4    1    6    6    0  503 -0.19399438407E+02 -0.30439883728E+03  0.15516126457E+03  0.34221339595E+03  0.00000000000E+00 0.  1.
<mgrwt>
<rscale>  0 0.70339369E+03</rscale>
<asrwt>0</asrwt>
<pdfrwt beam="1">  1        1 0.23321246E+00 0.70339369E+03</pdfrwt>
<pdfrwt beam="2">  1       -1 0.59218716E-01 0.70339369E+03</pdfrwt>
<totfact> 0.19204973E+01</totfact>
</mgrwt>
</event>
<event>
12    1  0.1707547E-007  0.1711964E+04  0.7818608E-02  0.8754570E-01
          2   -1    0    0  501    0  0.00000000000E+00  0.00000000000E+00  0.20991224528E+04  0.20991224528E+04  0.00000000000E+00 0. -1.
         -2   -1    0    0    0  501 -0.00000000000E+00 -0.00000000000E+00 -0.14736421496E+04  0.14736421496E+04  0.00000000000E+00 0.  1.
         23    2    1    2    0    0 -0.10143447896E+04  0.13608389388E+04  0.48256776072E+03  0.17668935723E+04  0.90902599236E+02 0.  0.
    5000000    2    1    2    0    0  0.10143447896E+04 -0.13608389388E+04  0.14291254251E+03  0.18058710301E+04  0.59997351028E+03 0.  0.
         23    2    4    4    0    0  0.32144553709E+03 -0.67732062844E+03  0.30588415623E+03  0.81481310729E+03  0.90911032094E+02 0.  0.
         23    2    4    4    0    0  0.69289925251E+03 -0.68351831035E+03 -0.16297161371E+03  0.99105792281E+03  0.91265572814E+02 0.  0.
          4    1    3    3  502    0 -0.54206154107E+03  0.69599924426E+03  0.20769531487E+03  0.90630182949E+03  0.00000000000E+00 0. -1.
         -4    1    3    3    0  502 -0.47228324854E+03  0.66483969453E+03  0.27487244585E+03  0.86059174279E+03  0.00000000000E+00 0.  1.
         13    1    5    5    0    0  0.21211976849E+03 -0.50953050222E+03  0.19158367018E+03  0.58422635301E+03  0.00000000000E+00 0.  1.
        -13    1    5    5    0    0  0.10932576860E+03 -0.16779012622E+03  0.11430048605E+03  0.23058675428E+03  0.00000000000E+00 0. -1.
          2    1    6    6  503    0  0.35514669051E+03 -0.37713550300E+03 -0.12856027324E+03  0.53374910141E+03  0.00000000000E+00 0. -1.
         -2    1    6    6    0  503  0.33775256200E+03 -0.30638280735E+03 -0.34411340475E+02  0.45730882140E+03  0.00000000000E+00 0.  1.
<mgrwt>
<rscale>  0 0.17119641E+04</rscale>
<asrwt>0</asrwt>
<pdfrwt beam="1">  1        2 0.32294192E+00 0.17119641E+04</pdfrwt>
<pdfrwt beam="2">  1       -2 0.22671418E+00 0.17119641E+04</pdfrwt>
<totfact> 0.48426497E-01</totfact>
</mgrwt>
</event>
<event>
12    1  0.1338445E-007  0.9954021E+03  0.7818608E-02  0.9313602E-01
         -2   -1    0    0    0  501 -0.00000000000E+00  0.00000000000E+00  0.59640482543E+03  0.59640482543E+03  0.00000000000E+00 0.  1.
          2   -1    0    0  501    0  0.00000000000E+00 -0.00000000000E+00 -0.26470789330E+04  0.26470789330E+04  0.00000000000E+00 0. -1.
         23    2    1    2    0    0 -0.80382774766E+03 -0.50461390807E+03 -0.18799249595E+04  0.21078080552E+04  0.89233961376E+02 0.  0.
    5000000    2    1    2    0    0  0.80382774766E+03  0.50461390807E+03 -0.17074914803E+03  0.11356757032E+04  0.59985813929E+03 0.  0.
         23    2    4    4    0    0 -0.24197907849E+02  0.11777695608E+03 -0.15447781904E+03  0.21785052882E+03  0.95595534433E+02 0.  0.
         23    2    4    4    0    0  0.82802565551E+03  0.38683695198E+03 -0.16271328992E+02  0.91782517443E+03  0.82879316297E+02 0.  0.
          3    1    3    3  502    0 -0.31505130271E+03 -0.19123060822E+03 -0.82715727402E+03  0.90554714114E+03  0.00000000000E+00 0. -1.
         -3    1    3    3    0  502 -0.48877644494E+03 -0.31338329985E+03 -0.10527676855E+04  0.12022609140E+04  0.00000000000E+00 0.  1.
         11    1    5    5    0    0 -0.26481972296E+02  0.49086032685E+02 -0.83879989820E+01  0.56401170098E+02  0.00000000000E+00 0.  1.
        -11    1    5    5    0    0  0.22840644463E+01  0.68690923396E+02 -0.14608982005E+03  0.16144935872E+03  0.00000000000E+00 0. -1.
          2    1    6    6  503    0  0.18982858195E+03  0.53961805464E+02  0.94223049580E+01  0.19757415521E+03  0.00000000000E+00 0. -1.
         -2    1    6    6    0  503  0.63819707355E+03  0.33287514652E+03 -0.25693633950E+02  0.72025101922E+03  0.00000000000E+00 0.  1.
<mgrwt>
<rscale>  0 0.99540212E+03</rscale>
<asrwt>0</asrwt>
<pdfrwt beam="1">  1        2 0.40724290E+00 0.99540212E+03</pdfrwt>
<pdfrwt beam="2">  1       -2 0.91754592E-01 0.99540212E+03</pdfrwt>
<totfact> 0.29222900E+00</totfact>
</mgrwt>
</event>
<event>
12    1  0.1338445E-007  0.7567379E+03  0.7818608E-02  0.9624839E-01
         -1   -1    0    0    0  501 -0.00000000000E+00  0.00000000000E+00  0.13321675815E+04  0.13321675815E+04  0.00000000000E+00 0.  1.
          1   -1    0    0  501    0  0.00000000000E+00 -0.00000000000E+00 -0.45729027814E+03  0.45729027814E+03  0.00000000000E+00 0. -1.
         23    2    1    2    0    0 -0.20877257888E+03  0.61831464810E+03  0.49933039497E+03  0.82672176601E+03  0.90769165014E+02 0.  0.
    5000000    2    1    2    0    0  0.20877257888E+03 -0.61831464810E+03  0.37554690842E+03  0.96273609366E+03  0.59993859008E+03 0.  0.
         23    2    4    4    0    0  0.27640303140E+03 -0.67560591764E+02  0.24130674453E+02  0.29964556101E+03  0.90786031194E+02 0.  0.
         23    2    4    4    0    0 -0.67630452516E+02 -0.55075405633E+03  0.35141623397E+03  0.66309053265E+03  0.91059191293E+02 0.  0.
          3    1    3    3  502    0 -0.13698099974E+03  0.26629145865E+03  0.21780679613E+03  0.37029006965E+03  0.00000000000E+00 0. -1.
         -3    1    3    3    0  502 -0.71791579141E+02  0.35202318944E+03  0.28152359884E+03  0.45643169636E+03  0.00000000000E+00 0.  1.
         11    1    5    5    0    0  0.51727276779E+02 -0.44028306168E+02  0.28583763623E+02  0.73696909364E+02  0.00000000000E+00 0. -1.
        -11    1    5    5    0    0  0.22467575462E+03 -0.23532285596E+02 -0.44530891692E+01  0.22594865165E+03  0.00000000000E+00 0.  1.
          1    1    6    6  503    0 -0.41983629533E+02 -0.51609516318E+03  0.31114665067E+03  0.60409360271E+03  0.00000000000E+00 0. -1.
         -1    1    6    6    0  503 -0.25646822983E+02 -0.34658893149E+02  0.40269583300E+02  0.58996929942E+02  0.00000000000E+00 0.  1.
<mgrwt>
<rscale>  0 0.75673786E+03</rscale>
<asrwt>0</asrwt>
<pdfrwt beam="1">  1        1 0.70352351E-01 0.75673786E+03</pdfrwt>
<pdfrwt beam="2">  1       -1 0.20494886E+00 0.75673786E+03</pdfrwt>
<totfact> 0.72017260E+00</totfact>
</mgrwt>
</event>
<event>
12    1  0.1338445E-007  0.7233160E+03  0.7818608E-02  0.9678169E-01
         -2   -1    0    0    0  501 -0.00000000000E+00  0.00000000000E+00  0.76974746039E+03  0.76974746039E+03  0.00000000000E+00 0. -1.
          2   -1    0    0  501    0  0.00000000000E+00 -0.00000000000E+00 -0.12807592312E+04  0.12807592312E+04  0.00000000000E+00 0.  1.
         23    2    1    2    0    0  0.65257743574E+03  0.49874129256E+02 -0.87031268065E+03  0.10926388341E+04  0.89837193641E+02 0.  0.
    5000000    2    1    2    0    0 -0.65257743574E+03 -0.49874129256E+02  0.35930090986E+03  0.95786785743E+03  0.60005745564E+03 0.  0.
         23    2    4    4    0    0 -0.89201849798E+01  0.98540582448E+02 -0.79704949257E+02  0.15939419017E+03  0.96248703036E+02 0.  0.
         23    2    4    4    0    0 -0.64365725076E+03 -0.14841471170E+03  0.43900585912E+03  0.79847366725E+03  0.92263047074E+02 0.  0.
          2    1    3    3  502    0  0.17248152676E+03  0.50200540547E+02 -0.26265395984E+03  0.31820916700E+03  0.00000000000E+00 0.  1.
         -2    1    3    3    0  502  0.48009590898E+03 -0.32641129132E+00 -0.60765872081E+03  0.77442966713E+03  0.00000000000E+00 0. -1.
         13    1    5    5    0    0  0.27100947288E+02  0.73282216278E+02 -0.12583588924E+02  0.79139694697E+02  0.00000000000E+00 0.  1.
        -13    1    5    5    0    0 -0.36021132268E+02  0.25258366170E+02 -0.67121360333E+02  0.80254495477E+02  0.00000000000E+00 0. -1.
          1    1    6    6  503    0 -0.24610710641E+03 -0.94295553521E+02  0.20596545171E+03  0.33448785709E+03  0.00000000000E+00 0. -1.
         -1    1    6    6    0  503 -0.39755014435E+03 -0.54119158183E+02  0.23304040741E+03  0.46398581017E+03  0.00000000000E+00 0.  1.
<mgrwt>
<rscale>  0 0.72331598E+03</rscale>
<asrwt>0</asrwt>
<pdfrwt beam="1">  1        2 0.19703988E+00 0.72331598E+03</pdfrwt>
<pdfrwt beam="2">  1       -2 0.11842269E+00 0.72331598E+03</pdfrwt>
<totfact> 0.95390372E+00</totfact>
</mgrwt>
</event>
<event>
12    1  0.1338445E-007  0.7663334E+03  0.7818608E-02  0.9610069E-01
          1   -1    0    0  501    0  0.00000000000E+00  0.00000000000E+00  0.18765644731E+04  0.18765644731E+04  0.00000000000E+00 0. -1.
         -1   -1    0    0    0  501 -0.00000000000E+00 -0.00000000000E+00 -0.92608345280E+03  0.92608345280E+03  0.00000000000E+00 0.  1.
         23    2    1    2    0    0 -0.23555361470E+03  0.61576777554E+03  0.15779060978E+04  0.17125336940E+04  0.91260838446E+02 0.  0.
    5000000    2    1    2    0    0  0.23555361470E+03 -0.61576777554E+03 -0.62742507750E+03  0.10901142320E+04  0.60002612613E+03 0.  0.
         23    2    4    4    0    0 -0.62316652965E+02 -0.55715517446E+03 -0.43809012848E+03  0.71799491105E+03  0.96376750089E+02 0.  0.
         23    2    4    4    0    0  0.29787026767E+03 -0.58612601080E+02 -0.18933494902E+03  0.37211932091E+03  0.10228847787E+03 0.  0.
          2    1    3    3  502    0 -0.11088742967E+03  0.24358852721E+03  0.53496869276E+03  0.59818299448E+03  0.00000000000E+00 0. -1.
         -2    1    3    3    0  502 -0.12466618503E+03  0.37217924833E+03  0.10429374050E+04  0.11143506995E+04  0.00000000000E+00 0.  1.
         11    1    5    5    0    0 -0.17292057938E+02 -0.25510397554E+03 -0.14124326833E+03  0.29210736802E+03  0.00000000000E+00 0. -1.
        -11    1    5    5    0    0 -0.45024595027E+02 -0.30205119893E+03 -0.29684686015E+03  0.42588754303E+03  0.00000000000E+00 0.  1.
          3    1    6    6  503    0  0.88395107302E+02 -0.50520308071E+02 -0.22665529845E+02  0.10430590954E+03  0.00000000000E+00 0. -1.
         -3    1    6    6    0  503  0.20947516036E+03 -0.80922930091E+01 -0.16666941918E+03  0.26781341136E+03  0.00000000000E+00 0.  1.
<mgrwt>
<rscale>  0 0.76633340E+03</rscale>
<asrwt>0</asrwt>
<pdfrwt beam="1">  1        1 0.28870223E+00 0.76633340E+03</pdfrwt>
<pdfrwt beam="2">  1       -1 0.14247438E+00 0.76633340E+03</pdfrwt>
<totfact> 0.15199541E+00</totfact>
</mgrwt>
</event>
<event>
12    1  0.1338445E-007  0.6904950E+03  0.7818608E-02  0.9733626E-01
          2   -1    0    0  501    0  0.00000000000E+00  0.00000000000E+00  0.10306615691E+04  0.10306615691E+04  0.00000000000E+00 0. -1.
         -2   -1    0    0    0  501 -0.00000000000E+00 -0.00000000000E+00 -0.60264041196E+03  0.60264041196E+03  0.00000000000E+00 0.  1.
         23    2    1    2    0    0  0.39618467868E+03 -0.47765836777E+03 -0.79764437009E+02  0.63209793125E+03  0.89808759956E+02 0.  0.
    5000000    2    1    2    0    0 -0.39618467868E+03  0.47765836777E+03  0.50778559419E+03  0.10012040498E+04  0.59953609052E+03 0.  0.
         23    2    4    4    0    0 -0.28766545112E+03  0.37891628656E+02  0.43930125500E+03  0.53431585154E+03  0.91217593036E+02 0.  0.
         23    2    4    4    0    0 -0.10851922756E+03  0.43976673911E+03  0.68484339190E+02  0.46688819830E+03  0.90129226216E+02 0.  0.
          2    1    3    3  502    0  0.75338189152E+02 -0.15319587172E+03 -0.23786349636E+02  0.17236765441E+03  0.00000000000E+00 0. -1.
         -2    1    3    3    0  502  0.32084648953E+03 -0.32446249605E+03 -0.55978087373E+02  0.45973027685E+03  0.00000000000E+00 0.  1.
         11    1    5    5    0    0 -0.36020033684E+02  0.24738783764E+02  0.11902329153E+03  0.12679114392E+03  0.00000000000E+00 0.  1.
        -11    1    5    5    0    0 -0.25164541743E+03  0.13152844892E+02  0.32027796346E+03  0.40752470762E+03  0.00000000000E+00 0. -1.
          2    1    6    6  503    0 -0.71204597893E+02  0.14916866307E+03  0.52658466383E+02  0.17347708461E+03  0.00000000000E+00 0. -1.
         -2    1    6    6    0  503 -0.37314629668E+02  0.29059807604E+03  0.15825872807E+02  0.29341111369E+03  0.00000000000E+00 0.  1.
<mgrwt>
<rscale>  0 0.69049502E+03</rscale>
<asrwt>0</asrwt>
<pdfrwt beam="1">  1        2 0.15856332E+00 0.69049502E+03</pdfrwt>
<pdfrwt beam="2">  1       -2 0.92713910E-01 0.69049502E+03</pdfrwt>
<totfact> 0.24301851E+01</totfact>
</mgrwt>
</event>
<event>
12    1  0.1338445E-007  0.5884588E+03  0.7818608E-02  0.9929644E-01
         -2   -1    0    0    0  501 -0.00000000000E+00  0.00000000000E+00  0.37927495837E+03  0.37927495837E+03  0.00000000000E+00 0.  1.
          2   -1    0    0  501    0  0.00000000000E+00 -0.00000000000E+00 -0.33481493060E+04  0.33481493060E+04  0.00000000000E+00 0. -1.
         23    2    1    2    0    0  0.32243972179E+03 -0.38574457164E+03 -0.28965157277E+04  0.29413291702E+04  0.94062095475E+02 0.  0.
    5000000    2    1    2    0    0 -0.32243972179E+03  0.38574457164E+03 -0.72358619966E+02  0.78609509422E+03  0.59995289694E+03 0.  0.
         23    2    4    4    0    0  0.97659735067E+02  0.11397190963E+03  0.15107459519E+03  0.23032467985E+03  0.87743403162E+02 0.  0.
         23    2    4    4    0    0 -0.42009945685E+03  0.27177266201E+03 -0.22343321516E+03  0.55577041437E+03  0.92813891155E+02 0.  0.
          3    1    3    3  502    0  0.18069850915E+03 -0.22573253399E+03 -0.19233059930E+04  0.19449198109E+04  0.00000000000E+00 0. -1.
         -3    1    3    3    0  502  0.14174121264E+03 -0.16001203765E+03 -0.97320973470E+03  0.99640935929E+03  0.00000000000E+00 0.  1.
         11    1    5    5    0    0  0.58874246965E+02  0.63611213526E+01  0.45722446722E+02  0.74814323193E+02  0.00000000000E+00 0.  1.
        -11    1    5    5    0    0  0.38785488102E+02  0.10761078828E+03  0.10535214847E+03  0.15551035666E+03  0.00000000000E+00 0. -1.
          2    1    6    6  503    0 -0.15641012300E+03  0.96799801425E+02 -0.13187701285E+03  0.22633133820E+03  0.00000000000E+00 0. -1.
         -2    1    6    6    0  503 -0.26368933385E+03  0.17497286058E+03 -0.91556202309E+02  0.32943907617E+03  0.00000000000E+00 0.  1.
<mgrwt>
<rscale>  0 0.58845878E+03</rscale>
<asrwt>0</asrwt>
<pdfrwt beam="1">  1        2 0.51509989E+00 0.58845878E+03</pdfrwt>
<pdfrwt beam="2">  1       -2 0.58349994E-01 0.58845878E+03</pdfrwt>
<totfact> 0.31893509E+00</totfact>
</mgrwt>
</event>
<event>
12    1  0.1338445E-007  0.1191870E+04  0.7818608E-02  0.9120003E-01
          2   -1    0    0  501    0  0.00000000000E+00  0.00000000000E+00  0.28599549950E+04  0.28599549950E+04  0.00000000000E+00 0. -1.
         -2   -1    0    0    0  501 -0.00000000000E+00 -0.00000000000E+00 -0.54765144173E+03  0.54765144173E+03  0.00000000000E+00 0.  1.
         23    2    1    2    0    0  0.85314372582E+03  0.80532044090E+03  0.94720396208E+03  0.15102440026E+04  0.85125625280E+02 0.  0.
    5000000    2    1    2    0    0 -0.85314372582E+03 -0.80532044090E+03  0.13650995912E+04  0.18973624341E+04  0.60007673111E+03 0.  0.
         23    2    4    4    0    0 -0.80473883595E+03 -0.67469730838E+03  0.84354165588E+03  0.13500756194E+04  0.91217328337E+02 0.  0.
         23    2    4    4    0    0 -0.48404889869E+02 -0.13062313252E+03  0.52155793529E+03  0.54728681469E+03  0.89970781692E+02 0.  0.
          3    1    3    3  502    0  0.48669273918E+03  0.44932617374E+03  0.48107443105E+03  0.81865526383E+03  0.00000000000E+00 0. -1.
         -3    1    3    3    0  502  0.36645098664E+03  0.35599426716E+03  0.46612953103E+03  0.69158873874E+03  0.00000000000E+00 0.  1.
         11    1    5    5    0    0 -0.56693692649E+03 -0.50594671238E+03  0.56584456549E+03  0.94740679050E+03  0.00000000000E+00 0. -1.
        -11    1    5    5    0    0 -0.23780190947E+03 -0.16875059600E+03  0.27769709039E+03  0.40266882895E+03  0.00000000000E+00 0.  1.
          3    1    6    6  503    0  0.60633834475E+01 -0.92033501333E+02  0.22230495730E+03  0.24067908930E+03  0.00000000000E+00 0. -1.
         -3    1    6    6    0  503 -0.54468273316E+02 -0.38589631187E+02  0.29925297799E+03  0.30660772539E+03  0.00000000000E+00 0.  1.
<mgrwt>
<rscale>  0 0.11918695E+04</rscale>
<asrwt>0</asrwt>
<pdfrwt beam="1">  1        2 0.43999307E+00 0.11918695E+04</pdfrwt>
<pdfrwt beam="2">  1       -2 0.84254070E-01 0.11918695E+04</pdfrwt>
<totfact> 0.25916058E+00</totfact>
</mgrwt>
</event>
<event>
12    1  0.1338445E-007  0.1547745E+04  0.7818608E-02  0.8853309E-01
         -2   -1    0    0    0  501 -0.00000000000E+00  0.00000000000E+00  0.21781712840E+04  0.21781712840E+04  0.00000000000E+00 0. -1.
          2   -1    0    0  501    0  0.00000000000E+00 -0.00000000000E+00 -0.11207745013E+04  0.11207745013E+04  0.00000000000E+00 0.  1.
         23    2    1    2    0    0 -0.11022750917E+04 -0.10086057455E+04  0.33294300921E+03  0.15334139008E+04  0.90615761748E+02 0.  0.
    5000000    2    1    2    0    0  0.11022750917E+04  0.10086057455E+04  0.72445377352E+03  0.17655318845E+04  0.59997803107E+03 0.  0.
         23    2    4    4    0    0  0.94824879520E+03  0.10585417606E+04  0.66114570252E+03  0.15696314524E+04  0.83323585087E+02 0.  0.
         23    2    4    4    0    0  0.15402629646E+03 -0.49936015133E+02  0.63308071000E+02  0.19590043212E+03  0.90284892650E+02 0.  0.
          2    1    3    3  502    0 -0.10325224009E+04 -0.92621280928E+03  0.32810857415E+03  0.14253518558E+04  0.00000000000E+00 0. -1.
         -2    1    3    3    0  502 -0.69752690763E+02 -0.82392936238E+02  0.48344350569E+01  0.10806204502E+03  0.00000000000E+00 0.  1.
         11    1    5    5    0    0  0.75727267688E+03  0.80253887115E+03  0.53435915426E+03  0.12259976560E+04  0.00000000000E+00 0. -1.
        -11    1    5    5    0    0  0.19097611832E+03  0.25600288950E+03  0.12678654826E+03  0.34363379638E+03  0.00000000000E+00 0.  1.
          4    1    6    6  503    0  0.14757018651E+03 -0.22262917042E+02  0.30191357020E+02  0.15226330964E+03  0.00000000000E+00 0.  1.
         -4    1    6    6    0  503  0.64561099490E+01 -0.27673098091E+02  0.33116713979E+02  0.43637122481E+02  0.00000000000E+00 0. -1.
<mgrwt>
<rscale>  0 0.15477451E+04</rscale>
<asrwt>0</asrwt>
<pdfrwt beam="1">  1        2 0.17242685E+00 0.15477451E+04</pdfrwt>
<pdfrwt beam="2">  1       -2 0.33510327E+00 0.15477451E+04</pdfrwt>
<totfact> 0.38450730E-01</totfact>
</mgrwt>
</event>
<event>
12    1  0.1338445E-007  0.4931007E+03  0.7818608E-02  0.1015596E+00
          2   -1    0    0  501    0  0.00000000000E+00  0.00000000000E+00  0.31022135322E+04  0.31022135322E+04  0.00000000000E+00 0. -1.
         -2   -1    0    0    0  501 -0.00000000000E+00 -0.00000000000E+00 -0.86405316117E+02  0.86405316117E+02  0.00000000000E+00 0.  1.
         23    2    1    2    0    0 -0.19752325363E+03  0.27094196795E+03  0.10384060756E+04  0.10950399362E+04  0.91653142105E+02 0.  0.
    5000000    2    1    2    0    0  0.19752325363E+03 -0.27094196795E+03  0.19774021405E+04  0.20935789120E+04  0.60044021356E+03 0.  0.
         23    2    4    4    0    0 -0.59941144147E+02  0.13452098260E+03  0.79561017692E+03  0.81428871216E+03  0.91551720901E+02 0.  0.
         23    2    4    4    0    0  0.25746439778E+03 -0.40546295055E+03  0.11817919636E+04  0.12792901999E+04  0.96244740179E+02 0.  0.
          1    1    3    3  502    0 -0.50899819685E+02  0.49353409718E+02  0.12427941481E+03  0.14308013014E+03  0.00000000000E+00 0. -1.
         -1    1    3    3    0  502 -0.14662343395E+03  0.22158855823E+03  0.91412666075E+03  0.95195980610E+03  0.00000000000E+00 0.  1.
         11    1    5    5    0    0  0.16609401586E+02  0.47575183283E+02  0.14654051321E+03  0.15496255127E+03  0.00000000000E+00 0. -1.
        -11    1    5    5    0    0 -0.76550545733E+02  0.86945799314E+02  0.64906966372E+03  0.65932616089E+03  0.00000000000E+00 0.  1.
          4    1    6    6  503    0  0.20825454050E+02 -0.11492222449E+02  0.24794995092E+02  0.34359314527E+02  0.00000000000E+00 0. -1.
         -4    1    6    6    0  503  0.23663894373E+03 -0.39397072810E+03  0.11569969685E+04  0.12449308854E+04  0.00000000000E+00 0.  1.
<mgrwt>
<rscale>  0 0.49310072E+03</rscale>
<asrwt>0</asrwt>
<pdfrwt beam="1">  1        2 0.47726354E+00 0.49310072E+03</pdfrwt>
<pdfrwt beam="2">  1       -2 0.13293128E-01 0.49310072E+03</pdfrwt>
<totfact> 0.71265036E+01</totfact>
</mgrwt>
</event>
<event>
12    1  0.1338445E-007  0.3742431E+03  0.7818608E-02  0.1053082E+00
         -2   -1    0    0    0  501 -0.00000000000E+00  0.00000000000E+00  0.16770291790E+03  0.16770291790E+03  0.00000000000E+00 0.  1.
          2   -1    0    0  501    0  0.00000000000E+00 -0.00000000000E+00 -0.19104644617E+04  0.19104644617E+04  0.00000000000E+00 0. -1.
         23    2    1    2    0    0  0.27665367629E+03  0.15261869618E+03 -0.10837112205E+04  0.11325951173E+04  0.92260322892E+02 0.  0.
    5000000    2    1    2    0    0 -0.27665367629E+03 -0.15261869618E+03 -0.65905032330E+03  0.94557226234E+03  0.59994154019E+03 0.  0.
         23    2    4    4    0    0 -0.17693182469E+03 -0.22007424747E+03 -0.28072650745E+02  0.29704018742E+03  0.87790968989E+02 0.  0.
         23    2    4    4    0    0 -0.99721851601E+02  0.67455551292E+02 -0.63097767255E+03  0.64853207492E+03  0.89254298814E+02 0.  0.
          1    1    3    3  502    0  0.13768654009E+03  0.73222083380E+02 -0.69387549846E+03  0.71118370635E+03  0.00000000000E+00 0. -1.
         -1    1    3    3    0  502  0.13896713620E+03  0.79396612799E+02 -0.38983572205E+03  0.42141141092E+03  0.00000000000E+00 0.  1.
         11    1    5    5    0    0 -0.33415165790E+02 -0.82152003770E+02 -0.40726162429E+02  0.97591727797E+02  0.00000000000E+00 0. -1.
        -11    1    5    5    0    0 -0.14351665890E+03 -0.13792224370E+03  0.12653511684E+02  0.19944845962E+03  0.00000000000E+00 0.  1.
          3    1    6    6  503    0 -0.19036923251E+02 -0.18724060543E+02 -0.19631721136E+03  0.19812481512E+03  0.00000000000E+00 0. -1.
         -3    1    6    6    0  503 -0.80684928350E+02  0.86179611835E+02 -0.43466046119E+03  0.45040725980E+03  0.00000000000E+00 0.  1.
<mgrwt>
<rscale>  0 0.37424306E+03</rscale>
<asrwt>0</asrwt>
<pdfrwt beam="1">  1        2 0.29391761E+00 0.37424306E+03</pdfrwt>
<pdfrwt beam="2">  1       -2 0.25800449E-01 0.37424306E+03</pdfrwt>
<totfact> 0.10956158E+02</totfact>
</mgrwt>
</event>
<event>
12    1  0.1338445E-007  0.7215378E+03  0.7818608E-02  0.9681093E-01
          2   -1    0    0  501    0  0.00000000000E+00  0.00000000000E+00  0.98853461280E+03  0.98853461280E+03  0.00000000000E+00 0. -1.
         -2   -1    0    0    0  501 -0.00000000000E+00 -0.00000000000E+00 -0.11145006484E+04  0.11145006484E+04  0.00000000000E+00 0.  1.
         23    2    1    2    0    0  0.13389558546E+03 -0.60046084238E+03  0.68235992720E+03  0.92327335828E+03  0.91309215380E+02 0.  0.
    5000000    2    1    2    0    0 -0.13389558546E+03  0.60046084238E+03 -0.80832596277E+03  0.11797619029E+04  0.59997169465E+03 0.  0.
         23    2    4    4    0    0  0.14466544978E+03 -0.15335330885E+02 -0.22378075778E+03  0.28155042090E+03  0.89607740868E+02 0.  0.
         23    2    4    4    0    0 -0.27856103524E+03  0.61579617326E+03 -0.58454520498E+03  0.89821148198E+03  0.91047198419E+02 0.  0.
          3    1    3    3  502    0  0.47080618761E+02 -0.27424720125E+03  0.37327411858E+03  0.46557671726E+03  0.00000000000E+00 0. -1.
         -3    1    3    3    0  502  0.86814966697E+02 -0.32621364113E+03  0.30908580862E+03  0.45769664101E+03  0.00000000000E+00 0.  1.
         11    1    5    5    0    0  0.87364951665E+02  0.11301667744E+02 -0.61598210191E+02  0.10749279963E+03  0.00000000000E+00 0.  1.
        -11    1    5    5    0    0  0.57300498114E+02 -0.26636998629E+02 -0.16218254759E+03  0.17405762127E+03  0.00000000000E+00 0. -1.
          3    1    6    6  503    0 -0.17961732925E+03  0.38372705543E+03 -0.42266232335E+03  0.59845825052E+03  0.00000000000E+00 0. -1.
         -3    1    6    6    0  503 -0.98943705991E+02  0.23206911783E+03 -0.16188288163E+03  0.29975323146E+03  0.00000000000E+00 0.  1.
<mgrwt>
<rscale>  0 0.72153777E+03</rscale>
<asrwt>0</asrwt>
<pdfrwt beam="1">  1        2 0.15208225E+00 0.72153777E+03</pdfrwt>
<pdfrwt beam="2">  1       -2 0.17146164E+00 0.72153777E+03</pdfrwt>
<totfact> 0.54607869E+00</totfact>
</mgrwt>
</event>
<event>
12    1  0.1338445E-007  0.1295837E+04  0.7818608E-02  0.9032873E-01
         -1   -1    0    0    0  501 -0.00000000000E+00  0.00000000000E+00  0.12819611786E+04  0.12819611786E+04  0.00000000000E+00 0.  1.
          1   -1    0    0  501    0  0.00000000000E+00 -0.00000000000E+00 -0.13711489450E+04  0.13711489450E+04  0.00000000000E+00 0. -1.
         23    2    1    2    0    0  0.68143985588E+03 -0.10441176471E+04 -0.19512181446E+03  0.12653577556E+04  0.92281032030E+02 0.  0.
    5000000    2    1    2    0    0 -0.68143985588E+03  0.10441176471E+04  0.10593404806E+03  0.13877523680E+04  0.60007722352E+03 0.  0.
         23    2    4    4    0    0  0.12788290067E+01  0.37156199307E+03 -0.11617860292E+03  0.39975557866E+03  0.90813571639E+02 0.  0.
         23    2    4    4    0    0 -0.68271868489E+03  0.67255565407E+03  0.22211265097E+03  0.98799678938E+03  0.91475218360E+02 0.  0.
          2    1    3    3  502    0  0.34979800150E+03 -0.45189929417E+03 -0.90619378938E+02  0.57860477510E+03  0.00000000000E+00 0. -1.
         -2    1    3    3    0  502  0.33164185438E+03 -0.59221835297E+03 -0.10450243552E+03  0.68675298048E+03  0.00000000000E+00 0.  1.
         13    1    5    5    0    0  0.40604824632E+02  0.25117246467E+03 -0.61217429892E+02  0.26169434941E+03  0.00000000000E+00 0. -1.
        -13    1    5    5    0    0 -0.39325995625E+02  0.12038952841E+03 -0.54961173026E+02  0.13806122925E+03  0.00000000000E+00 0.  1.
          1    1    6    6  503    0 -0.54108043286E+03  0.56685165528E+03  0.20758835313E+03  0.81066747700E+03  0.00000000000E+00 0. -1.
         -1    1    6    6    0  503 -0.14163825203E+03  0.10570399879E+03  0.14524297849E+02  0.17732931237E+03  0.00000000000E+00 0.  1.
<mgrwt>
<rscale>  0 0.12958374E+04</rscale>
<asrwt>0</asrwt>
<pdfrwt beam="1">  1        1 0.21094599E+00 0.12958374E+04</pdfrwt>
<pdfrwt beam="2">  1       -1 0.19722480E+00 0.12958374E+04</pdfrwt>
<totfact> 0.12273777E+00</totfact>
</mgrwt>
</event>
<event>
12    1  0.1338445E-007  0.7255190E+03  0.7818608E-02  0.9674560E-01
          1   -1    0    0  501    0  0.00000000000E+00  0.00000000000E+00  0.19266571650E+04  0.19266571650E+04  0.00000000000E+00 0. -1.
         -1   -1    0    0    0  501 -0.00000000000E+00 -0.00000000000E+00 -0.38161306785E+03  0.38161306785E+03  0.00000000000E+00 0.  1.
         23    2    1    2    0    0 -0.55867423042E+03  0.37397890456E+03  0.11258477894E+04  0.13143330798E+04  0.89224900449E+02 0.  0.
    5000000    2    1    2    0    0  0.55867423042E+03 -0.37397890456E+03  0.41919630768E+03  0.99393715302E+03  0.60017364402E+03 0.  0.
         23    2    4    4    0    0  0.30204576505E+02 -0.22776471877E+03  0.35724489891E+03  0.43439758349E+03  0.91039876870E+02 0.  0.
         23    2    4    4    0    0  0.52846965392E+03 -0.14621418580E+03  0.61951408768E+02  0.55953956953E+03  0.92670327436E+02 0.  0.
          2    1    3    3  502    0 -0.31047971562E+03  0.19116810327E+03  0.52746660126E+03  0.64122064296E+03  0.00000000000E+00 0. -1.
         -2    1    3    3    0  502 -0.24819451480E+03  0.18281080130E+03  0.59838118818E+03  0.67311243683E+03  0.00000000000E+00 0.  1.
         11    1    5    5    0    0  0.69713016649E+01 -0.46701789249E+02  0.20752802939E+02  0.51578435376E+02  0.00000000000E+00 0. -1.
        -11    1    5    5    0    0  0.23233274840E+02 -0.18106292952E+03  0.33649209597E+03  0.38281914811E+03  0.00000000000E+00 0.  1.
          3    1    6    6  503    0  0.27651288808E+02 -0.98455041501E+01 -0.17902245720E+02  0.34380490494E+02  0.00000000000E+00 0. -1.
         -3    1    6    6    0  503  0.50081836511E+03 -0.13636868165E+03  0.79853654489E+02  0.52515907904E+03  0.00000000000E+00 0.  1.
<mgrwt>
<rscale>  0 0.72551896E+03</rscale>
<asrwt>0</asrwt>
<pdfrwt beam="1">  1        1 0.29640879E+00 0.72551896E+03</pdfrwt>
<pdfrwt beam="2">  1       -1 0.58709704E-01 0.72551896E+03</pdfrwt>
<totfact> 0.10303790E+01</totfact>
</mgrwt>
</event>
<event>
12    1  0.1338445E-007  0.8021443E+03  0.7818608E-02  0.9556918E-01
          2   -1    0    0  501    0  0.00000000000E+00  0.00000000000E+00  0.16506655674E+04  0.16506655674E+04  0.00000000000E+00 0. -1.
         -2   -1    0    0    0  501 -0.00000000000E+00 -0.00000000000E+00 -0.51949671059E+03  0.51949671059E+03  0.00000000000E+00 0.  1.
         23    2    1    2    0    0 -0.73657950802E+03 -0.30279621849E+03  0.76516355609E+03  0.11081002752E+04  0.90421406873E+02 0.  0.
    5000000    2    1    2    0    0  0.73657950802E+03  0.30279621849E+03  0.36600530074E+03  0.10620620028E+04  0.59981738555E+03 0.  0.
         23    2    4    4    0    0  0.45243170806E+03  0.16743044969E+03 -0.90789679991E+02  0.49973167013E+03  0.93603259535E+02 0.  0.
         23    2    4    4    0    0  0.28414779996E+03  0.13536576879E+03  0.45679498073E+03  0.56233033265E+03  0.92140572035E+02 0.  0.
          4    1    3    3  502    0 -0.56102559712E+03 -0.19183787459E+03  0.58937596768E+03  0.83601167577E+03  0.00000000000E+00 0.  1.
         -4    1    3    3    0  502 -0.17555391090E+03 -0.11095834390E+03  0.17578758842E+03  0.27208859945E+03  0.00000000000E+00 0. -1.
         11    1    5    5    0    0  0.19823991160E+03  0.11469637365E+03 -0.16088232502E+02  0.22959344917E+03  0.00000000000E+00 0.  1.
        -11    1    5    5    0    0  0.25419179646E+03  0.52734076047E+02 -0.74701447490E+02  0.27013822095E+03  0.00000000000E+00 0. -1.
          4    1    6    6  503    0  0.14277200762E+03  0.75795697017E+02  0.31195045313E+03  0.35134302192E+03  0.00000000000E+00 0. -1.
         -4    1    6    6    0  503  0.14137579234E+03  0.59570071777E+02  0.14484452759E+03  0.21098731072E+03  0.00000000000E+00 0.  1.
<mgrwt>
<rscale>  0 0.80214432E+03</rscale>
<asrwt>0</asrwt>
<pdfrwt beam="1">  1        2 0.25394855E+00 0.80214432E+03</pdfrwt>
<pdfrwt beam="2">  1       -2 0.79922571E-01 0.80214432E+03</pdfrwt>
<totfact> 0.14768149E+01</totfact>
</mgrwt>
</event>
<event>
12    1  0.1338445E-007  0.3549965E+03  0.7818608E-02  0.1060583E+00
         -1   -1    0    0    0  501 -0.00000000000E+00  0.00000000000E+00  0.15267143954E+03  0.15267143954E+03  0.00000000000E+00 0. -1.
          1   -1    0    0  501    0  0.00000000000E+00 -0.00000000000E+00 -0.16732967824E+04  0.16732967824E+04  0.00000000000E+00 0.  1.
         23    2    1    2    0    0  0.15350021484E+03  0.27546691880E+03 -0.58316935136E+03  0.66906069802E+03  0.90063233155E+02 0.  0.
    5000000    2    1    2    0    0 -0.15350021484E+03 -0.27546691880E+03 -0.93745599153E+03  0.11569075240E+04  0.60013910355E+03 0.  0.
         23    2    4    4    0    0 -0.15888459917E+03 -0.10597850779E+03 -0.94048752008E+03  0.96428383438E+03  0.94078572728E+02 0.  0.
         23    2    4    4    0    0  0.53843843347E+01 -0.16948841100E+03  0.30315285496E+01  0.19262368957E+03  0.91320219891E+02 0.  0.
          3    1    3    3  502    0  0.10268585938E+03  0.98202753945E+02 -0.22277286849E+03  0.26422701893E+03  0.00000000000E+00 0. -1.
         -3    1    3    3    0  502  0.50814355462E+02  0.17726416485E+03 -0.36039648287E+03  0.40483367909E+03  0.00000000000E+00 0.  1.
         11    1    5    5    0    0 -0.41747128542E+02  0.12690976343E+02 -0.26191827809E+03  0.26552790441E+03  0.00000000000E+00 0. -1.
        -11    1    5    5    0    0 -0.11713747063E+03 -0.11866948414E+03 -0.67856924199E+03  0.69875592996E+03  0.00000000000E+00 0.  1.
          2    1    6    6  503    0  0.11662581755E+02 -0.17629620437E+02  0.31556090307E+02  0.37981655644E+02  0.00000000000E+00 0. -1.
         -2    1    6    6    0  503 -0.62781974204E+01 -0.15185879057E+03 -0.28524561757E+02  0.15464203393E+03  0.00000000000E+00 0.  1.
<mgrwt>
<rscale>  0 0.35499650E+03</rscale>
<asrwt>0</asrwt>
<pdfrwt beam="1">  1        1 0.25743028E+00 0.35499650E+03</pdfrwt>
<pdfrwt beam="2">  1       -1 0.23487913E-01 0.35499650E+03</pdfrwt>
<totfact> 0.84106911E+01</totfact>
</mgrwt>
</event>
<event>
12    1  0.1338445E-007  0.6063596E+03  0.7818608E-02  0.9892299E-01
          2   -1    0    0  501    0  0.00000000000E+00  0.00000000000E+00  0.31876562279E+04  0.31876562279E+04  0.00000000000E+00 0. -1.
         -2   -1    0    0    0  501 -0.00000000000E+00 -0.00000000000E+00 -0.12187711646E+03  0.12187711646E+03  0.00000000000E+00 0.  1.
         23    2    1    2    0    0 -0.21273967811E+03  0.40806448834E+03  0.88476340519E+03  0.10011644924E+04  0.88029883137E+02 0.  0.
    5000000    2    1    2    0    0  0.21273967811E+03 -0.40806448834E+03  0.21810157062E+04  0.23083688520E+04  0.59996870638E+03 0.  0.
         23    2    4    4    0    0  0.18541154278E+03 -0.54918473964E+03  0.16888571277E+04  0.17878436971E+04  0.90362431045E+02 0.  0.
         23    2    4    4    0    0  0.27328135328E+02  0.14112025130E+03  0.49215857851E+03  0.52052515487E+03  0.89803219030E+02 0.  0.
          3    1    3    3  502    0 -0.13402748282E+03  0.27526853897E+03  0.49611621753E+03  0.58298150570E+03  0.00000000000E+00 0. -1.
         -3    1    3    3    0  502 -0.78712195287E+02  0.13279594937E+03  0.38864718766E+03  0.41818298666E+03  0.00000000000E+00 0.  1.
         13    1    5    5    0    0  0.42711429358E+02 -0.23099375296E+03  0.59277301948E+03  0.63762232765E+03  0.00000000000E+00 0. -1.
        -13    1    5    5    0    0  0.14270011343E+03 -0.31819098668E+03  0.10960841083E+04  0.11502213695E+04  0.00000000000E+00 0.  1.
          2    1    6    6  503    0  0.42312718629E+02  0.20524708217E+02  0.11396256484E+03  0.12328461376E+03  0.00000000000E+00 0. -1.
         -2    1    6    6    0  503 -0.14984583301E+02  0.12059554309E+03  0.37819601367E+03  0.39724054111E+03  0.00000000000E+00 0.  1.
<mgrwt>
<rscale>  0 0.60635962E+03</rscale>
<asrwt>0</asrwt>
<pdfrwt beam="1">  1        2 0.49040859E+00 0.60635962E+03</pdfrwt>
<pdfrwt beam="2">  1       -2 0.18750328E-01 0.60635962E+03</pdfrwt>
<totfact> 0.34411042E+01</totfact>
</mgrwt>
</event>
<event>
12    1  0.1338445E-007  0.8355657E+03  0.7818608E-02  0.9509918E-01
          2   -1    0    0  501    0  0.00000000000E+00  0.00000000000E+00  0.16359950324E+04  0.16359950324E+04  0.00000000000E+00 0. -1.
         -2   -1    0    0    0  501 -0.00000000000E+00 -0.00000000000E+00 -0.64597201514E+03  0.64597201514E+03  0.00000000000E+00 0.  1.
         23    2    1    2    0    0 -0.40564861375E+03  0.62207931576E+03 -0.18142309236E+03  0.77076931097E+03  0.98170868139E+02 0.  0.
    5000000    2    1    2    0    0  0.40564861375E+03 -0.62207931576E+03  0.11714461096E+04  0.15111977365E+04  0.59991594269E+03 0.  0.
         23    2    4    4    0    0  0.74628397355E+02 -0.57315453914E+03  0.56396856466E+03  0.81211318914E+03  0.85975383783E+02 0.  0.
         23    2    4    4    0    0  0.33102021640E+03 -0.48924776624E+02  0.60747754491E+03  0.69908454739E+03  0.87876159383E+02 0.  0.
          2    1    3    3  502    0 -0.35273028866E+03  0.53430247138E+03 -0.19023270564E+03  0.66789690055E+03  0.00000000000E+00 0.  1.
         -2    1    3    3    0  502 -0.52918325090E+02  0.87776844385E+02  0.88096132817E+01  0.10287241042E+03  0.00000000000E+00 0. -1.
         13    1    5    5    0    0  0.29436068439E+02 -0.55531465924E+02  0.41843149317E+02  0.75505463230E+02  0.00000000000E+00 0. -1.
        -13    1    5    5    0    0  0.45192328916E+02 -0.51762307322E+03  0.52212541534E+03  0.73660772591E+03  0.00000000000E+00 0.  1.
          1    1    6    6  503    0  0.20976935716E+02  0.19295120695E+02  0.50594811027E+02  0.58070374697E+02  0.00000000000E+00 0. -1.
         -1    1    6    6    0  503  0.31004328068E+03 -0.68219897320E+02  0.55688273389E+03  0.64101417269E+03  0.00000000000E+00 0.  1.
<mgrwt>
<rscale>  0 0.83556572E+03</rscale>
<asrwt>0</asrwt>
<pdfrwt beam="1">  1        2 0.25169154E+00 0.83556572E+03</pdfrwt>
<pdfrwt beam="2">  1       -2 0.99380311E-01 0.83556572E+03</pdfrwt>
<totfact> 0.90644145E+00</totfact>
</mgrwt>
</event>
<event>
12    1  0.1338445E-007  0.7365145E+03  0.7818608E-02  0.9656748E-01
         -1   -1    0    0    0  501 -0.00000000000E+00  0.00000000000E+00  0.70540364835E+03  0.70540364835E+03  0.00000000000E+00 0.  1.
          1   -1    0    0  501    0  0.00000000000E+00 -0.00000000000E+00 -0.13625468961E+04  0.13625468961E+04  0.00000000000E+00 0. -1.
         23    2    1    2    0    0  0.58044383833E+03  0.40623481811E+03  0.26238529424E+03  0.76118721167E+03  0.92834000617E+02 0.  0.
    5000000    2    1    2    0    0 -0.58044383833E+03 -0.40623481811E+03 -0.91952854204E+03  0.13067633328E+04  0.60012989553E+03 0.  0.
         23    2    4    4    0    0 -0.94476335213E+02 -0.16854877822E+01  0.53463847138E+02  0.14266024798E+03  0.92546986010E+02 0.  0.
         23    2    4    4    0    0 -0.48596750311E+03 -0.40454933033E+03 -0.97299238918E+03  0.11641030848E+04  0.92721238112E+02 0.  0.
          4    1    3    3  502    0  0.32976152180E+03  0.26233464931E+03  0.19538463558E+03  0.46447527955E+03  0.00000000000E+00 0.  1.
         -4    1    3    3    0  502  0.25068231653E+03  0.14390016880E+03  0.67000658655E+02  0.29671193212E+03  0.00000000000E+00 0. -1.
         11    1    5    5    0    0 -0.91640266617E+02 -0.33047591505E+02  0.25876661145E+02  0.10079525466E+03  0.00000000000E+00 0.  1.
        -11    1    5    5    0    0 -0.28360685966E+01  0.31362103723E+02  0.27587185993E+02  0.41864993324E+02  0.00000000000E+00 0. -1.
          1    1    6    6  503    0 -0.37030467654E+03 -0.28436795374E+03 -0.77959825338E+03  0.90871564488E+03  0.00000000000E+00 0. -1.
         -1    1    6    6    0  503 -0.11566282657E+03 -0.12018137659E+03 -0.19339413580E+03  0.25538743996E+03  0.00000000000E+00 0.  1.
<mgrwt>
<rscale>  0 0.73651447E+03</rscale>
<asrwt>0</asrwt>
<pdfrwt beam="1">  1        1 0.20962260E+00 0.73651447E+03</pdfrwt>
<pdfrwt beam="2">  1       -1 0.10852364E+00 0.73651447E+03</pdfrwt>
<totfact> 0.66959634E+00</totfact>
</mgrwt>
</event>
<event>
12    1  0.1338445E-007  0.8902225E+03  0.7818608E-02  0.9437887E-01
          2   -1    0    0  501    0  0.00000000000E+00  0.00000000000E+00  0.36256782327E+03  0.36256782327E+03  0.00000000000E+00 0.  1.
         -2   -1    0    0    0  501 -0.00000000000E+00 -0.00000000000E+00 -0.22816167288E+04  0.22816167288E+04  0.00000000000E+00 0. -1.
         23    2    1    2    0    0  0.71631439470E+03 -0.35565724452E+03 -0.69199855526E+03  0.10613589157E+04  0.89567626947E+02 0.  0.
    5000000    2    1    2    0    0 -0.71631439470E+03  0.35565724452E+03 -0.12270503503E+04  0.15828256364E+04  0.60007170024E+03 0.  0.
         23    2    4    4    0    0 -0.38734124104E+03  0.48195995693E+03 -0.66151238734E+03  0.91041653116E+03  0.94556779330E+02 0.  0.
         23    2    4    4    0    0 -0.32897315366E+03 -0.12630271241E+03 -0.56553796293E+03  0.67240910521E+03  0.90139371336E+02 0.  0.
          1    1    3    3  502    0  0.10748856181E+03 -0.79587551444E+02 -0.14809818517E+03  0.19955210276E+03  0.00000000000E+00 0. -1.
         -1    1    3    3    0  502  0.60882583289E+03 -0.27606969307E+03 -0.54390037009E+03  0.86180681293E+03  0.00000000000E+00 0.  1.
         11    1    5    5    0    0 -0.14993715564E+03  0.11749284084E+03 -0.20687232557E+03  0.28121500205E+03  0.00000000000E+00 0. -1.
        -11    1    5    5    0    0 -0.23740408540E+03  0.36446711609E+03 -0.45464006177E+03  0.62920152911E+03  0.00000000000E+00 0.  1.
          3    1    6    6  503    0 -0.97287269531E+02 -0.29578141484E+02 -0.24490120272E+03  0.26517216739E+03  0.00000000000E+00 0. -1.
         -3    1    6    6    0  503 -0.23168588413E+03 -0.96724570926E+02 -0.32063676021E+03  0.40723693782E+03  0.00000000000E+00 0.  1.
<mgrwt>
<rscale>  0 0.89022255E+03</rscale>
<asrwt>0</asrwt>
<pdfrwt beam="1">  1        2 0.55779664E-01 0.89022255E+03</pdfrwt>
<pdfrwt beam="2">  1       -2 0.35101796E+00 0.89022255E+03</pdfrwt>
<totfact> 0.14038653E+00</totfact>
</mgrwt>
</event>
<event>
12    1  0.1338445E-007  0.6316269E+03  0.7818608E-02  0.9841879E-01
          2   -1    0    0  501    0  0.00000000000E+00  0.00000000000E+00  0.13012600739E+04  0.13012600739E+04  0.00000000000E+00 0. -1.
         -2   -1    0    0    0  501 -0.00000000000E+00 -0.00000000000E+00 -0.45590355369E+03  0.45590355369E+03  0.00000000000E+00 0.  1.
         23    2    1    2    0    0 -0.17797429457E+03 -0.59480179790E+03  0.14114272158E+03  0.64300562389E+03  0.89838389259E+02 0.  0.
    5000000    2    1    2    0    0  0.17797429457E+03  0.59480179790E+03  0.70421379860E+03  0.11141580037E+04  0.59997246160E+03 0.  0.
         23    2    4    4    0    0  0.59473091704E+02  0.24208948498E+03  0.68032092073E+03  0.73021850813E+03  0.90764238911E+02 0.  0.
         23    2    4    4    0    0  0.11850120287E+03  0.35271231292E+03  0.23892877869E+02  0.38393949553E+03  0.91597793903E+02 0.  0.
          2    1    3    3  502    0 -0.54207103947E+02 -0.30891297898E+03  0.97469980600E+02  0.32842965125E+03  0.00000000000E+00 0. -1.
         -2    1    3    3    0  502 -0.12376719063E+03 -0.28588881892E+03  0.43672740982E+02  0.31457597265E+03  0.00000000000E+00 0.  1.
         11    1    5    5    0    0  0.61847619306E+02  0.11149889681E+03  0.25191256164E+03  0.28234211644E+03  0.00000000000E+00 0. -1.
        -11    1    5    5    0    0 -0.23745276028E+01  0.13059058817E+03  0.42840835909E+03  0.44787639169E+03  0.00000000000E+00 0.  1.
          3    1    6    6  503    0  0.12941752586E+03  0.31087437200E+03  0.36985754525E+02  0.33876203625E+03  0.00000000000E+00 0. -1.
         -3    1    6    6    0  503 -0.10916322987E+02  0.41837940924E+02 -0.13092876656E+02  0.45177459285E+02  0.00000000000E+00 0.  1.
<mgrwt>
<rscale>  0 0.63162692E+03</rscale>
<asrwt>0</asrwt>
<pdfrwt beam="1">  1        2 0.20019386E+00 0.63162692E+03</pdfrwt>
<pdfrwt beam="2">  1       -2 0.70139009E-01 0.63162692E+03</pdfrwt>
<totfact> 0.31591762E+01</totfact>
</mgrwt>
</event>
<event>
12    1  0.1338445E-007  0.4170379E+03  0.7818608E-02  0.1038035E+00
         -1   -1    0    0    0  501 -0.00000000000E+00  0.00000000000E+00  0.31348328128E+03  0.31348328128E+03  0.00000000000E+00 0.  1.
          1   -1    0    0  501    0  0.00000000000E+00 -0.00000000000E+00 -0.74182064615E+03  0.74182064615E+03  0.00000000000E+00 0. -1.
         23    2    1    2    0    0 -0.14803935202E+03 -0.19739272398E+03  0.25032146699E+02  0.26376672194E+03  0.89815021068E+02 0.  0.
    5000000    2    1    2    0    0  0.14803935202E+03  0.19739272398E+03 -0.45336951156E+03  0.79153720549E+03  0.60008974032E+03 0.  0.
         23    2    4    4    0    0  0.33795748260E+03  0.85778487286E+02 -0.11638497594E+03  0.37878779245E+03  0.91441348186E+02 0.  0.
         23    2    4    4    0    0 -0.18991813057E+03  0.11161423669E+03 -0.33698453562E+03  0.41274941304E+03  0.90977286006E+02 0.  0.
          3    1    3    3  502    0 -0.24467393216E+02 -0.78373096503E+02 -0.23619848520E+02  0.85433557987E+02  0.00000000000E+00 0. -1.
         -3    1    3    3    0  502 -0.12357195881E+03 -0.11901962747E+03  0.48651995219E+02  0.17833316396E+03  0.00000000000E+00 0.  1.
         13    1    5    5    0    0  0.27408321538E+03  0.31521676833E+02 -0.99585492789E+02  0.29331296500E+03  0.00000000000E+00 0.  1.
        -13    1    5    5    0    0  0.63874267220E+02  0.54256810453E+02 -0.16799483155E+02  0.85474827450E+02  0.00000000000E+00 0. -1.
          2    1    6    6  503    0 -0.82785018671E+02  0.40878464980E+02 -0.22188864085E+03  0.24033097419E+03  0.00000000000E+00 0.  1.
         -2    1    6    6    0  503 -0.10713311190E+03  0.70735771709E+02 -0.11509589477E+03  0.17241843886E+03  0.00000000000E+00 0. -1.
<mgrwt>
<rscale>  0 0.41703787E+03</rscale>
<asrwt>0</asrwt>
<pdfrwt beam="1">  1        1 0.11412625E+00 0.41703787E+03</pdfrwt>
<pdfrwt beam="2">  1       -1 0.48228198E-01 0.41703787E+03</pdfrwt>
<totfact> 0.11247518E+02</totfact>
</mgrwt>
</event>
<event>
12    1  0.1338445E-007  0.1335844E+04  0.7818608E-02  0.9001614E-01
         -2   -1    0    0    0  501 -0.00000000000E+00  0.00000000000E+00  0.92440058567E+03  0.92440058567E+03  0.00000000000E+00 0. -1.
          2   -1    0    0  501    0  0.00000000000E+00 -0.00000000000E+00 -0.33997027714E+04  0.33997027714E+04  0.00000000000E+00 0.  1.
         23    2    1    2    0    0  0.60059622987E+03  0.11201841400E+04 -0.26176201163E+04  0.29113114892E+04  0.90946001488E+02 0.  0.
    5000000    2    1    2    0    0 -0.60059622987E+03 -0.11201841400E+04  0.14231793061E+03  0.14127918678E+04  0.60016508525E+03 0.  0.
         23    2    4    4    0    0 -0.11145543435E+02 -0.62422647956E+03  0.70907143815E+02  0.63382656736E+03  0.83218829169E+02 0.  0.
         23    2    4    4    0    0 -0.58945068644E+03 -0.49595766043E+03  0.71410786793E+02  0.77896530045E+03  0.90891837639E+02 0.  0.
          4    1    3    3  502    0  0.17417073756E+03  0.29349018863E+03 -0.61959750862E+03  0.70737048944E+03  0.00000000000E+00 0. -1.
         -4    1    3    3    0  502  0.42642549232E+03  0.82669395137E+03 -0.19980226077E+04  0.22039409998E+04  0.00000000000E+00 0.  1.
         11    1    5    5    0    0  0.35339236351E+02 -0.28163386477E+03  0.41265778644E+02  0.28682635845E+03  0.00000000000E+00 0. -1.
        -11    1    5    5    0    0 -0.46484779786E+02 -0.34259261479E+03  0.29641365171E+02  0.34700020892E+03  0.00000000000E+00 0.  1.
          2    1    6    6  503    0 -0.46560314103E+03 -0.38016599896E+03  0.92296820803E+02  0.60813746376E+03  0.00000000000E+00 0. -1.
         -2    1    6    6    0  503 -0.12384754541E+03 -0.11579166147E+03 -0.20886034009E+02  0.17082783669E+03  0.00000000000E+00 0.  1.
<mgrwt>
<rscale>  0 0.13358437E+04</rscale>
<asrwt>0</asrwt>
<pdfrwt beam="1">  1        2 0.52303120E+00 0.13358437E+04</pdfrwt>
<pdfrwt beam="2">  1       -2 0.14221547E+00 0.13358437E+04</pdfrwt>
<totfact> 0.32017556E-01</totfact>
</mgrwt>
</event>
<event>
12    1  0.1338445E-007  0.7818347E+03  0.7818608E-02  0.9586689E-01
          2   -1    0    0  501    0  0.00000000000E+00  0.00000000000E+00  0.37066356009E+04  0.37066356009E+04  0.00000000000E+00 0.  1.
         -2   -1    0    0    0  501 -0.00000000000E+00 -0.00000000000E+00 -0.19547200397E+03  0.19547200397E+03  0.00000000000E+00 0. -1.
         23    2    1    2    0    0 -0.23583644533E+03  0.70011153305E+03  0.13769510466E+04  0.15652971621E+04  0.91575287936E+02 0.  0.
    5000000    2    1    2    0    0  0.23583644533E+03 -0.70011153305E+03  0.21342125504E+04  0.23368104428E+04  0.60003737188E+03 0.  0.
         23    2    4    4    0    0 -0.86101586043E+02 -0.23390088457E+03  0.23921540543E+03  0.35714841938E+03  0.90597330812E+02 0.  0.
         23    2    4    4    0    0  0.32193803137E+03 -0.46621064849E+03  0.18949971450E+04  0.19796620234E+04  0.83970725422E+02 0.  0.
          3    1    3    3  502    0 -0.10825087917E+03  0.34639726234E+03  0.77123048467E+03  0.85235308217E+03  0.00000000000E+00 0. -1.
         -3    1    3    3    0  502 -0.12758556616E+03  0.35371427071E+03  0.60572056191E+03  0.71294407994E+03  0.00000000000E+00 0.  1.
         11    1    5    5    0    0  0.40134375737E+00  0.28919170283E+01 -0.52347757728E+01  0.59939251165E+01  0.00000000000E+00 0. -1.
        -11    1    5    5    0    0 -0.86502929801E+02 -0.23679280160E+03  0.24445018120E+03  0.35115449426E+03  0.00000000000E+00 0.  1.
          3    1    6    6  503    0 -0.53725813593E+00 -0.15551832234E+02  0.95909375018E+02  0.97163554631E+02  0.00000000000E+00 0. -1.
         -3    1    6    6    0  503  0.32247528951E+03 -0.45065881625E+03  0.17990877699E+04  0.18824984688E+04  0.00000000000E+00 0.  1.
<mgrwt>
<rscale>  0 0.78183465E+03</rscale>
<asrwt>0</asrwt>
<pdfrwt beam="1">  1        2 0.57025158E+00 0.78183465E+03</pdfrwt>
<pdfrwt beam="2">  1       -2 0.30072619E-01 0.78183465E+03</pdfrwt>
<totfact> 0.63808953E+00</totfact>
</mgrwt>
</event>
<event>
12    1  0.1338445E-007  0.1589496E+04  0.7818608E-02  0.8827027E-01
         -2   -1    0    0    0  501 -0.00000000000E+00  0.00000000000E+00  0.12257053112E+04  0.12257053112E+04  0.00000000000E+00 0.  1.
          2   -1    0    0  501    0  0.00000000000E+00 -0.00000000000E+00 -0.26295120944E+04  0.26295120944E+04  0.00000000000E+00 0. -1.
         23    2    1    2    0    0 -0.10238186997E+04  0.11620927385E+04 -0.15434640187E+04  0.21884806854E+04  0.92207759089E+02 0.  0.
    5000000    2    1    2    0    0  0.10238186997E+04 -0.11620927385E+04  0.13965723550E+03  0.16667367202E+04  0.59986905916E+03 0.  0.
         23    2    4    4    0    0  0.13453766885E+03  0.32540175634E+02 -0.18284310547E+02  0.16633487775E+03  0.90408673124E+02 0.  0.
         23    2    4    4    0    0  0.88928103084E+03 -0.11946329142E+04  0.15794154605E+03  0.15004018424E+04  0.91058252342E+02 0.  0.
          1    1    3    3  502    0 -0.41580392685E+03  0.50989617721E+03 -0.60194279497E+03  0.89175228934E+03  0.00000000000E+00 0. -1.
         -1    1    3    3    0  502 -0.60801477283E+03  0.65219656133E+03 -0.94152122370E+03  0.12967283961E+04  0.00000000000E+00 0.  1.
         13    1    5    5    0    0  0.10517896776E+03  0.23009993121E+02  0.27494858200E+02  0.11112174526E+03  0.00000000000E+00 0.  1.
        -13    1    5    5    0    0  0.29358701082E+02  0.95301825121E+01 -0.45779168747E+02  0.55213132487E+02  0.00000000000E+00 0. -1.
          3    1    6    6  503    0  0.66449471372E+03 -0.94083470538E+03  0.96734895160E+02  0.11558896173E+04  0.00000000000E+00 0. -1.
         -3    1    6    6    0  503  0.22478631712E+03 -0.25379820880E+03  0.61206650885E+02  0.34451222514E+03  0.00000000000E+00 0.  1.
<mgrwt>
<rscale>  0 0.15894963E+04</rscale>
<asrwt>0</asrwt>
<pdfrwt beam="1">  1        2 0.40454032E+00 0.15894963E+04</pdfrwt>
<pdfrwt beam="2">  1       -2 0.18857005E+00 0.15894963E+04</pdfrwt>
<totfact> 0.43181724E-01</totfact>
</mgrwt>
</event>
<event>
12    1  0.1338445E-007  0.4201165E+03  0.7818608E-02  0.1037028E+00
          1   -1    0    0  501    0  0.00000000000E+00  0.00000000000E+00  0.10682412863E+04  0.10682412863E+04  0.00000000000E+00 0. -1.
         -1   -1    0    0    0  501 -0.00000000000E+00 -0.00000000000E+00 -0.29625658300E+03  0.29625658300E+03  0.00000000000E+00 0.  1.
         23    2    1    2    0    0  0.89856325007E+02  0.27437027356E+03  0.60662691433E+03  0.67830414200E+03  0.93525877161E+02 0.  0.
    5000000    2    1    2    0    0 -0.89856325007E+02 -0.27437027356E+03  0.16535778894E+03  0.68619372727E+03  0.60013783986E+03 0.  0.
         23    2    4    4    0    0  0.77198943909E+02 -0.34637747323E+03  0.27211628259E+03  0.45612196948E+03  0.89793924569E+02 0.  0.
         23    2    4    4    0    0 -0.16705526892E+03  0.72007199668E+02 -0.10675849366E+03  0.23007175779E+03  0.91886550108E+02 0.  0.
          4    1    3    3  502    0  0.79471734709E+02  0.19200760373E+03  0.33446580117E+03  0.39376395043E+03  0.00000000000E+00 0.  1.
         -4    1    3    3    0  502  0.10384590298E+02  0.82362669831E+02  0.27216111316E+03  0.28454019157E+03  0.00000000000E+00 0. -1.
         11    1    5    5    0    0  0.89175156811E+02 -0.20211309016E+03  0.15406551620E+03  0.26932896816E+03  0.00000000000E+00 0.  1.
        -11    1    5    5    0    0 -0.11976212902E+02 -0.14426438306E+03  0.11805076639E+03  0.18679300132E+03  0.00000000000E+00 0. -1.
          4    1    6    6  503    0 -0.10966192561E+03  0.60368312562E+02 -0.22074805550E+02  0.12711163648E+03  0.00000000000E+00 0. -1.
         -4    1    6    6    0  503 -0.57393343307E+02  0.11638887106E+02 -0.84683688105E+02  0.10296012131E+03  0.00000000000E+00 0.  1.
<mgrwt>
<rscale>  0 0.42011655E+03</rscale>
<asrwt>0</asrwt>
<pdfrwt beam="1">  1        1 0.16434481E+00 0.42011655E+03</pdfrwt>
<pdfrwt beam="2">  1       -1 0.45577937E-01 0.42011655E+03</pdfrwt>
<totfact> 0.68244041E+01</totfact>
</mgrwt>
</event>
<event>
12    1  0.1338445E-007  0.7960926E+03  0.7818608E-02  0.9565690E-01
         -2   -1    0    0    0  501 -0.00000000000E+00  0.00000000000E+00  0.37942736482E+03  0.37942736482E+03  0.00000000000E+00 0.  1.
          2   -1    0    0  501    0  0.00000000000E+00 -0.00000000000E+00 -0.21810972831E+04  0.21810972831E+04  0.00000000000E+00 0. -1.
         23    2    1    2    0    0  0.37213891978E+03  0.67288453944E+03 -0.11535361528E+04  0.13894786290E+04  0.93510564041E+02 0.  0.
    5000000    2    1    2    0    0 -0.37213891978E+03 -0.67288453944E+03 -0.64813376547E+03  0.11710460189E+04  0.60000868447E+03 0.  0.
         23    2    4    4    0    0 -0.51924598077E+02  0.59008180318E+01 -0.33685636917E+03  0.35328539109E+03  0.92775915893E+02 0.  0.
         23    2    4    4    0    0 -0.32021432170E+03 -0.67878535747E+03 -0.31127739631E+03  0.81776062782E+03  0.92477314164E+02 0.  0.
          1    1    3    3  502    0  0.23245479094E+03  0.32458478919E+03 -0.58363306732E+03  0.70711956024E+03  0.00000000000E+00 0. -1.
         -1    1    3    3    0  502  0.13968412884E+03  0.34829975024E+03 -0.56990308549E+03  0.68235906876E+03  0.00000000000E+00 0.  1.
         13    1    5    5    0    0 -0.12697060937E+02  0.16551065220E+02 -0.86682173445E+01  0.22589623908E+02  0.00000000000E+00 0.  1.
        -13    1    5    5    0    0 -0.39227537140E+02 -0.10650247188E+02 -0.32818815182E+03  0.33069576718E+03  0.00000000000E+00 0. -1.
          2    1    6    6  503    0 -0.18124635814E+03 -0.27693425679E+03 -0.13961673548E+03  0.35921533619E+03  0.00000000000E+00 0. -1.
         -2    1    6    6    0  503 -0.13896796356E+03 -0.40185110068E+03 -0.17166066082E+03  0.45854529164E+03  0.00000000000E+00 0.  1.
<mgrwt>
<rscale>  0 0.79609261E+03</rscale>
<asrwt>0</asrwt>
<pdfrwt beam="1">  1        2 0.33555343E+00 0.79609261E+03</pdfrwt>
<pdfrwt beam="2">  1       -2 0.58373441E-01 0.79609261E+03</pdfrwt>
<totfact> 0.14991119E+01</totfact>
</mgrwt>
</event>
<event>
12    1  0.1338445E-007  0.1532462E+04  0.7818608E-02  0.8863148E-01
         -2   -1    0    0    0  501 -0.00000000000E+00  0.00000000000E+00  0.11204851388E+04  0.11204851388E+04  0.00000000000E+00 0.  1.
          2   -1    0    0  501    0  0.00000000000E+00 -0.00000000000E+00 -0.22420487575E+04  0.22420487575E+04  0.00000000000E+00 0. -1.
         23    2    1    2    0    0 -0.14559867076E+04 -0.44242896071E+03 -0.40542194231E+03  0.15769441254E+04  0.82128835036E+02 0.  0.
    5000000    2    1    2    0    0  0.14559867076E+04  0.44242896071E+03 -0.71614167648E+03  0.17855897709E+04  0.59985935955E+03 0.  0.
         23    2    4    4    0    0  0.62239745915E+03  0.76829142883E+02 -0.58439297875E+03  0.86197583478E+03  0.90586266976E+02 0.  0.
         23    2    4    4    0    0  0.83358924840E+03  0.36559981782E+03 -0.13174869773E+03  0.92361393611E+03  0.84680114420E+02 0.  0.
          3    1    3    3  502    0 -0.62470177881E+03 -0.17793804307E+03 -0.21346875038E+03  0.68372740694E+03  0.00000000000E+00 0. -1.
         -3    1    3    3    0  502 -0.83128492875E+03 -0.26449091763E+03 -0.19195319192E+03  0.89321671848E+03  0.00000000000E+00 0.  1.
         13    1    5    5    0    0  0.34550255235E+03  0.56731552149E+00 -0.34218762732E+03  0.48627636980E+03  0.00000000000E+00 0.  1.
        -13    1    5    5    0    0  0.27689490680E+03  0.76261827361E+02 -0.24220535143E+03  0.37569946498E+03  0.00000000000E+00 0. -1.
          3    1    6    6  503    0  0.66175054818E+03  0.29559296134E+03 -0.13875049106E+03  0.73793000046E+03  0.00000000000E+00 0. -1.
         -3    1    6    6    0  503  0.17183870022E+03  0.70006856484E+02  0.70017933243E+01  0.18568393565E+03  0.00000000000E+00 0.  1.
<mgrwt>
<rscale>  0 0.15324624E+04</rscale>
<asrwt>0</asrwt>
<pdfrwt beam="1">  1        2 0.34493058E+00 0.15324624E+04</pdfrwt>
<pdfrwt beam="2">  1       -2 0.17238233E+00 0.15324624E+04</pdfrwt>
<totfact> 0.94076702E-01</totfact>
</mgrwt>
</event>
<event>
12    1  0.1338445E-007  0.5414518E+03  0.7818608E-02  0.1003492E+00
          2   -1    0    0  501    0  0.00000000000E+00  0.00000000000E+00  0.18585090629E+04  0.18585090629E+04  0.00000000000E+00 0. -1.
         -2   -1    0    0    0  501 -0.00000000000E+00 -0.00000000000E+00 -0.23897963017E+03  0.23897963017E+03  0.00000000000E+00 0.  1.
         23    2    1    2    0    0  0.21567463976E+03  0.45516685853E+03  0.40964992402E+03  0.65610063698E+03  0.94670831092E+02 0.  0.
    5000000    2    1    2    0    0 -0.21567463976E+03 -0.45516685853E+03  0.12098795087E+04  0.14413880561E+04  0.60008223044E+03 0.  0.
         23    2    4    4    0    0 -0.53813575260E+02  0.15280612885E+02  0.75266129056E+03  0.76057901065E+03  0.94085148300E+02 0.  0.
         23    2    4    4    0    0 -0.16186106450E+03 -0.47044747142E+03  0.45721821815E+03  0.68080904544E+03  0.83262415115E+02 0.  0.
          3    1    3    3  502    0  0.13095122544E+03  0.25154891657E+03  0.28819196194E+03  0.40432621458E+03  0.00000000000E+00 0. -1.
         -3    1    3    3    0  502  0.84723414320E+02  0.20361794196E+03  0.12145796208E+03  0.25177442240E+03  0.00000000000E+00 0.  1.
         13    1    5    5    0    0 -0.20659788321E+02  0.32563436713E+02  0.10531125789E+03  0.11215019083E+03  0.00000000000E+00 0.  1.
        -13    1    5    5    0    0 -0.33153786940E+02 -0.17282823828E+02  0.64735003267E+03  0.64842881983E+03  0.00000000000E+00 0. -1.
          2    1    6    6  503    0 -0.64906381126E+02 -0.29796527447E+03  0.30358906863E+03  0.43030508444E+03  0.00000000000E+00 0. -1.
         -2    1    6    6    0  503 -0.96954683377E+02 -0.17248219695E+03  0.15362914952E+03  0.25050396100E+03  0.00000000000E+00 0.  1.
<mgrwt>
<rscale>  0 0.54145180E+03</rscale>
<asrwt>0</asrwt>
<pdfrwt beam="1">  1        2 0.28592446E+00 0.54145180E+03</pdfrwt>
<pdfrwt beam="2">  1       -2 0.36766098E-01 0.54145180E+03</pdfrwt>
<totfact> 0.58892070E+01</totfact>
</mgrwt>
</event>
<event>
12    1  0.1338445E-007  0.3151267E+03  0.7818608E-02  0.1077914E+00
         -2   -1    0    0    0  501 -0.00000000000E+00  0.00000000000E+00  0.77175113490E+02  0.77175113490E+02  0.00000000000E+00 0.  1.
          2   -1    0    0  501    0  0.00000000000E+00 -0.00000000000E+00 -0.27039075490E+04  0.27039075490E+04  0.00000000000E+00 0. -1.
         23    2    1    2    0    0 -0.18919297198E+03 -0.15084979682E+03 -0.59396160456E+03  0.64786578684E+03  0.91597206395E+02 0.  0.
    5000000    2    1    2    0    0  0.18919297198E+03  0.15084979682E+03 -0.20327708309E+04  0.21332168756E+04  0.59992278299E+03 0.  0.
         23    2    4    4    0    0  0.22532857425E+03  0.35928718248E+02 -0.19328088510E+04  0.19483714049E+04  0.91308475857E+02 0.  0.
         23    2    4    4    0    0 -0.36135602271E+02  0.11492107857E+03 -0.99961979896E+02  0.18484547070E+03  0.98299616278E+02 0.  0.
          4    1    3    3  502    0 -0.14846054399E+03 -0.13337110084E+03 -0.55144440778E+03  0.58644634753E+03  0.00000000000E+00 0. -1.
         -4    1    3    3    0  502 -0.40732427988E+02 -0.17478695980E+02 -0.42517196781E+02  0.61419439309E+02  0.00000000000E+00 0.  1.
         13    1    5    5    0    0  0.41265291434E+02 -0.14874449918E+02 -0.64426805051E+03  0.64575954848E+03  0.00000000000E+00 0.  1.
        -13    1    5    5    0    0  0.18406328282E+03  0.50803168166E+02 -0.12885408005E+04  0.13026118565E+04  0.00000000000E+00 0. -1.
          3    1    6    6  503    0 -0.36991313363E+02  0.13065551143E+03 -0.10072357940E+03  0.16906939220E+03  0.00000000000E+00 0. -1.
         -3    1    6    6    0  503  0.85571109189E+00 -0.15734432861E+02  0.76159950167E+00  0.15776078496E+02  0.00000000000E+00 0.  1.
<mgrwt>
<rscale>  0 0.31512671E+03</rscale>
<asrwt>0</asrwt>
<pdfrwt beam="1">  1        2 0.41598580E+00 0.31512671E+03</pdfrwt>
<pdfrwt beam="2">  1       -2 0.11873094E-01 0.31512671E+03</pdfrwt>
<totfact> 0.15389938E+02</totfact>
</mgrwt>
</event>
<event>
12    1  0.1338445E-007  0.5458538E+03  0.7818608E-02  0.1002458E+00
          1   -1    0    0  501    0  0.00000000000E+00  0.00000000000E+00  0.10444667271E+04  0.10444667271E+04  0.00000000000E+00 0. -1.
         -1   -1    0    0    0  501 -0.00000000000E+00 -0.00000000000E+00 -0.37431837025E+03  0.37431837025E+03  0.00000000000E+00 0.  1.
         23    2    1    2    0    0  0.35999269761E+03 -0.21537013712E+03  0.51482904115E+03  0.67033668143E+03  0.91232047957E+02 0.  0.
    5000000    2    1    2    0    0 -0.35999269761E+03  0.21537013712E+03  0.15531931568E+03  0.74844841590E+03  0.60005991630E+03 0.  0.
         23    2    4    4    0    0 -0.31482287273E+03 -0.99489544936E+02 -0.68253946397E+02  0.34909351923E+03  0.90532166808E+02 0.  0.
         23    2    4    4    0    0 -0.45169824876E+02  0.31485968205E+03  0.22357326207E+03  0.39935489666E+03  0.91227175295E+02 0.  0.
          1    1    3    3  502    0  0.26325459678E+03 -0.19585180797E+03  0.36365494503E+03  0.48980182978E+03  0.00000000000E+00 0. -1.
         -1    1    3    3    0  502  0.96738100825E+02 -0.19518329145E+02  0.15117409612E+03  0.18053485166E+03  0.00000000000E+00 0.  1.
         13    1    5    5    0    0 -0.17577816175E+03 -0.93384394101E+01 -0.24679436821E+02  0.17774769535E+03  0.00000000000E+00 0.  1.
        -13    1    5    5    0    0 -0.13904471098E+03 -0.90151105526E+02 -0.43574509576E+02  0.17134582388E+03  0.00000000000E+00 0. -1.
          2    1    6    6  503    0 -0.29151593835E+02  0.50426868260E+02  0.10066495746E+02  0.59110225869E+02  0.00000000000E+00 0. -1.
         -2    1    6    6    0  503 -0.16018231041E+02  0.26443281379E+03  0.21350676633E+03  0.34024467079E+03  0.00000000000E+00 0.  1.
<mgrwt>
<rscale>  0 0.54585381E+03</rscale>
<asrwt>0</asrwt>
<pdfrwt beam="1">  1        1 0.16068719E+00 0.54585381E+03</pdfrwt>
<pdfrwt beam="2">  1       -1 0.57587442E-01 0.54585381E+03</pdfrwt>
<totfact> 0.44844547E+01</totfact>
</mgrwt>
</event>
<event>
12    1  0.1338445E-007  0.1101234E+04  0.7818608E-02  0.9203990E-01
          2   -1    0    0  501    0  0.00000000000E+00  0.00000000000E+00  0.81387566850E+03  0.81387566850E+03  0.00000000000E+00 0. -1.
         -2   -1    0    0    0  501 -0.00000000000E+00 -0.00000000000E+00 -0.16318898898E+04  0.16318898898E+04  0.00000000000E+00 0.  1.
         23    2    1    2    0    0  0.92947194801E+03 -0.43335606752E+03 -0.71515365964E+03  0.12531700899E+04  0.85293223643E+02 0.  0.
    5000000    2    1    2    0    0 -0.92947194801E+03  0.43335606752E+03 -0.10286056161E+03  0.11925954683E+04  0.59999006037E+03 0.  0.
         23    2    4    4    0    0 -0.87819010079E+03  0.16186002219E+03 -0.84114916017E+02  0.90165045237E+03  0.92096141371E+02 0.  0.
         23    2    4    4    0    0 -0.51281847221E+02  0.27149604533E+03 -0.18745645598E+02  0.29094501595E+03  0.89205787905E+02 0.  0.
          3    1    3    3  502    0  0.21649207457E+03 -0.83872445721E+02 -0.20210010935E+03  0.30781140281E+03  0.00000000000E+00 0.  1.
         -3    1    3    3    0  502  0.71297987344E+03 -0.34948362180E+03 -0.51305355029E+03  0.94535868711E+03  0.00000000000E+00 0. -1.
         13    1    5    5    0    0 -0.58813788704E+03  0.14356522003E+03 -0.82618664251E+02  0.61101799503E+03  0.00000000000E+00 0.  1.
        -13    1    5    5    0    0 -0.29005221376E+03  0.18294802158E+02 -0.14962517655E+01  0.29063245734E+03  0.00000000000E+00 0. -1.
          4    1    6    6  503    0 -0.50263373519E+02  0.14024531016E+03 -0.47900007080E+02  0.15649141963E+03  0.00000000000E+00 0.  1.
         -4    1    6    6    0  503 -0.10184737015E+01  0.13125073517E+03  0.29154361482E+02  0.13445359633E+03  0.00000000000E+00 0. -1.
<mgrwt>
<rscale>  0 0.11012342E+04</rscale>
<asrwt>0</asrwt>
<pdfrwt beam="1">  1        2 0.12521164E+00 0.11012342E+04</pdfrwt>
<pdfrwt beam="2">  1       -2 0.25105998E+00 0.11012342E+04</pdfrwt>
<totfact> 0.21018974E+00</totfact>
</mgrwt>
</event>
<event>
12    1  0.1338445E-007  0.3584129E+03  0.7818608E-02  0.1059214E+00
          2   -1    0    0  501    0  0.00000000000E+00  0.00000000000E+00  0.20408001610E+03  0.20408001610E+03  0.00000000000E+00 0. -1.
         -2   -1    0    0    0  501 -0.00000000000E+00 -0.00000000000E+00 -0.98294927770E+03  0.98294927770E+03  0.00000000000E+00 0.  1.
         23    2    1    2    0    0 -0.16179780232E+03  0.99547911084E+01  0.44499734126E+01  0.18709039326E+03  0.93302659574E+02 0.  0.
    5000000    2    1    2    0    0  0.16179780232E+03 -0.99547911084E+01 -0.78331923501E+03  0.99993890054E+03  0.60000929508E+03 0.  0.
         23    2    4    4    0    0  0.26423374701E+03 -0.18179063761E+03 -0.67782925290E+03  0.75595677190E+03  0.95660001661E+02 0.  0.
         23    2    4    4    0    0 -0.10243594468E+03  0.17183584650E+03 -0.10548998210E+03  0.24398212863E+03  0.91533938318E+02 0.  0.
          3    1    3    3  502    0 -0.12748324367E+03  0.27497915348E+02 -0.31741074329E+02  0.13422223573E+03  0.00000000000E+00 0. -1.
         -3    1    3    3    0  502 -0.34314558654E+02 -0.17543124240E+02  0.36191047742E+02  0.52868157527E+02  0.00000000000E+00 0.  1.
         13    1    5    5    0    0  0.38673601899E+02 -0.63500656204E+02 -0.10113974512E+03  0.12552780117E+03  0.00000000000E+00 0.  1.
        -13    1    5    5    0    0  0.22556014511E+03 -0.11828998140E+03 -0.57668950778E+03  0.63042897074E+03  0.00000000000E+00 0. -1.
          1    1    6    6  503    0 -0.15283488430E+02  0.11216843821E+03 -0.41983682282E+02  0.12073927749E+03  0.00000000000E+00 0. -1.
         -1    1    6    6    0  503 -0.87152456252E+02  0.59667408286E+02 -0.63506299820E+02  0.12324285115E+03  0.00000000000E+00 0.  1.
<mgrwt>
<rscale>  0 0.35841292E+03</rscale>
<asrwt>0</asrwt>
<pdfrwt beam="1">  1        2 0.31396926E-01 0.35841292E+03</pdfrwt>
<pdfrwt beam="2">  1       -2 0.15122296E+00 0.35841292E+03</pdfrwt>
<totfact> 0.51602829E+01</totfact>
</mgrwt>
</event>
<event>
12    1  0.1338445E-007  0.8627919E+03  0.7818608E-02  0.9473327E-01
         -2   -1    0    0    0  501 -0.00000000000E+00  0.00000000000E+00  0.94767322288E+03  0.94767322288E+03  0.00000000000E+00 0.  1.
          2   -1    0    0  501    0  0.00000000000E+00 -0.00000000000E+00 -0.84220482950E+03  0.84220482950E+03  0.00000000000E+00 0. -1.
         23    2    1    2    0    0 -0.45457262611E+03  0.62265858071E+03  0.21838729436E+03  0.80616502376E+03  0.88707692197E+02 0.  0.
    5000000    2    1    2    0    0  0.45457262611E+03 -0.62265858071E+03 -0.11291890098E+03  0.98371302863E+03  0.60050034468E+03 0.  0.
         23    2    4    4    0    0 -0.48561764664E+02 -0.38162192326E+03 -0.13527507127E+03  0.41804805775E+03  0.92039645716E+02 0.  0.
         23    2    4    4    0    0  0.50313439077E+03 -0.24103665745E+03  0.22356170293E+02  0.56566497088E+03  0.90742357884E+02 0.  0.
          4    1    3    3  502    0 -0.30906599384E+03  0.47265454998E+03  0.13150746291E+03  0.57984336244E+03  0.00000000000E+00 0. -1.
         -4    1    3    3    0  502 -0.14550663227E+03  0.15000403073E+03  0.86879831446E+02  0.22632166132E+03  0.00000000000E+00 0.  1.
         13    1    5    5    0    0 -0.45413322994E+02 -0.91277706142E+02 -0.12194479060E+02  0.10267762591E+03  0.00000000000E+00 0.  1.
        -13    1    5    5    0    0 -0.31484416701E+01 -0.29034421712E+03 -0.12308059221E+03  0.31537043184E+03  0.00000000000E+00 0. -1.
          1    1    6    6  503    0  0.25421505711E+03 -0.14567200160E+03  0.51601659996E+02  0.29750354389E+03  0.00000000000E+00 0. -1.
         -1    1    6    6    0  503  0.24891933366E+03 -0.95364655846E+02 -0.29245489704E+02  0.26816142699E+03  0.00000000000E+00 0.  1.
<mgrwt>
<rscale>  0 0.86279191E+03</rscale>
<asrwt>0</asrwt>
<pdfrwt beam="1">  1        2 0.12956997E+00 0.86279191E+03</pdfrwt>
<pdfrwt beam="2">  1       -2 0.14579588E+00 0.86279191E+03</pdfrwt>
<totfact> 0.10425888E+01</totfact>
</mgrwt>
</event>
<event>
12    1  0.1338445E-007  0.8888267E+03  0.7818608E-02  0.9439657E-01
         -2   -1    0    0    0  501 -0.00000000000E+00  0.00000000000E+00  0.79076661794E+03  0.79076661794E+03  0.00000000000E+00 0.  1.
          2   -1    0    0  501    0  0.00000000000E+00 -0.00000000000E+00 -0.11880626095E+04  0.11880626095E+04  0.00000000000E+00 0. -1.
         23    2    1    2    0    0  0.87025200019E+03 -0.81381261576E+02 -0.17432842027E+03  0.89536660832E+03  0.85612566809E+02 0.  0.
    5000000    2    1    2    0    0 -0.87025200019E+03  0.81381261576E+02 -0.22296757125E+03  0.10834626191E+04  0.60017935281E+03 0.  0.
         23    2    4    4    0    0 -0.50545801123E+03  0.14231687154E+03 -0.39727632260E+03  0.66464973596E+03  0.90492552025E+02 0.  0.
         23    2    4    4    0    0 -0.36479398896E+03 -0.60935609962E+02  0.17430875134E+03  0.41881288312E+03  0.90735259570E+02 0.  0.
          3    1    3    3  502    0  0.55469303552E+03 -0.86412904035E+02 -0.13443775470E+03  0.57725649717E+03  0.00000000000E+00 0.  1.
         -3    1    3    3    0  502  0.31555896468E+03  0.50316424593E+01 -0.39890665562E+02  0.31811011114E+03  0.00000000000E+00 0. -1.
         11    1    5    5    0    0 -0.22229231908E+03  0.37833278216E+02 -0.21776087076E+03  0.31347253292E+03  0.00000000000E+00 0. -1.
        -11    1    5    5    0    0 -0.28316569215E+03  0.10448359332E+03 -0.17951545184E+03  0.35117720304E+03  0.00000000000E+00 0.  1.
          4    1    6    6  503    0 -0.14564811285E+03 -0.49798140308E+02  0.11309092751E+03  0.19100467387E+03  0.00000000000E+00 0. -1.
         -4    1    6    6    0  503 -0.21914587611E+03 -0.11137469654E+02  0.61217823832E+02  0.22780820925E+03  0.00000000000E+00 0.  1.
<mgrwt>
<rscale>  0 0.88882673E+03</rscale>
<asrwt>0</asrwt>
<pdfrwt beam="1">  1        2 0.18277886E+00 0.88882673E+03</pdfrwt>
<pdfrwt beam="2">  1       -2 0.12165640E+00 0.88882673E+03</pdfrwt>
<totfact> 0.99162621E+00</totfact>
</mgrwt>
</event>
<event>
12    1  0.1338445E-007  0.9260981E+03  0.7818608E-02  0.9393533E-01
         -2   -1    0    0    0  501 -0.00000000000E+00  0.00000000000E+00  0.42847666008E+03  0.42847666008E+03  0.00000000000E+00 0.  1.
          2   -1    0    0  501    0  0.00000000000E+00 -0.00000000000E+00 -0.28058022478E+04  0.28058022478E+04  0.00000000000E+00 0. -1.
         23    2    1    2    0    0 -0.23881065650E+03  0.79707318293E+03 -0.19514824729E+04  0.21236091140E+04  0.95266145252E+02 0.  0.
    5000000    2    1    2    0    0  0.23881065650E+03 -0.79707318293E+03 -0.42584311480E+03  0.11106697939E+04  0.59990736281E+03 0.  0.
         23    2    4    4    0    0 -0.10753862011E+03 -0.59295656336E+03 -0.30156985641E+03  0.68023818756E+03  0.92830882107E+02 0.  0.
         23    2    4    4    0    0  0.34634927661E+03 -0.20411661956E+03 -0.12427325839E+03  0.43043160629E+03  0.90587577255E+02 0.  0.
          2    1    3    3  502    0 -0.14402980120E+03  0.61884774219E+03 -0.14577082231E+04  0.15901667760E+04  0.00000000000E+00 0. -1.
         -2    1    3    3    0  502 -0.94780855301E+02  0.17822544073E+03 -0.49377424978E+03  0.53344233803E+03  0.00000000000E+00 0.  1.
         11    1    5    5    0    0 -0.17621941632E+02 -0.57892490763E+02 -0.63565931840E+02  0.87765032925E+02  0.00000000000E+00 0. -1.
        -11    1    5    5    0    0 -0.89916678476E+02 -0.53506407260E+03 -0.23800392457E+03  0.59247315464E+03  0.00000000000E+00 0.  1.
          3    1    6    6  503    0  0.23834709877E+03 -0.90074517639E+02 -0.69807365615E+02  0.26418899772E+03  0.00000000000E+00 0. -1.
         -3    1    6    6    0  503  0.10800217783E+03 -0.11404210193E+03 -0.54465892771E+02  0.16624260857E+03  0.00000000000E+00 0.  1.
<mgrwt>
<rscale>  0 0.92609813E+03</rscale>
<asrwt>0</asrwt>
<pdfrwt beam="1">  1        2 0.43166189E+00 0.92609813E+03</pdfrwt>
<pdfrwt beam="2">  1       -2 0.65919485E-01 0.92609813E+03</pdfrwt>
<totfact> 0.49975556E+00</totfact>
</mgrwt>
</event>
<event>
12    1  0.1338445E-007  0.8880690E+03  0.7818608E-02  0.9440620E-01
         -1   -1    0    0    0  501 -0.00000000000E+00  0.00000000000E+00  0.66694815984E+03  0.66694815984E+03  0.00000000000E+00 0.  1.
          1   -1    0    0  501    0  0.00000000000E+00 -0.00000000000E+00 -0.12550273489E+04  0.12550273489E+04  0.00000000000E+00 0. -1.
         23    2    1    2    0    0 -0.62964156911E+03  0.48890212230E+03 -0.91542186272E+02  0.80753807023E+03  0.90906392877E+02 0.  0.
    5000000    2    1    2    0    0  0.62964156911E+03 -0.48890212230E+03 -0.49653700279E+03  0.11144374385E+04  0.59995668048E+03 0.  0.
         23    2    4    4    0    0 -0.92463320107E+02 -0.51152983943E+02 -0.70252645538E+01  0.13431601716E+03  0.82615644953E+02 0.  0.
         23    2    4    4    0    0  0.72210488922E+03 -0.43774913836E+03 -0.48951173824E+03  0.98012142135E+03  0.89199100585E+02 0.  0.
          4    1    3    3  502    0 -0.86887984700E+02  0.64916501049E+02  0.18647589418E+02  0.11005183590E+03  0.00000000000E+00 0. -1.
         -4    1    3    3    0  502 -0.54275358441E+03  0.42398562125E+03 -0.11018977569E+03  0.69748623434E+03  0.00000000000E+00 0.  1.
         13    1    5    5    0    0 -0.33054502775E+02  0.20229449640E+02  0.97068643951E+01  0.39950644586E+02  0.00000000000E+00 0.  1.
        -13    1    5    5    0    0 -0.59408817332E+02 -0.71382433583E+02 -0.16732128949E+02  0.94365372570E+02  0.00000000000E+00 0. -1.
          4    1    6    6  503    0  0.15333006114E+03 -0.12764498968E+03 -0.14289196154E+03  0.24540061881E+03  0.00000000000E+00 0. -1.
         -4    1    6    6    0  503  0.56877482808E+03 -0.31010414868E+03 -0.34661977670E+03  0.73472080254E+03  0.00000000000E+00 0.  1.
<mgrwt>
<rscale>  0 0.88806902E+03</rscale>
<asrwt>0</asrwt>
<pdfrwt beam="1">  1        1 0.19308113E+00 0.88806902E+03</pdfrwt>
<pdfrwt beam="2">  1       -1 0.10260741E+00 0.88806902E+03</pdfrwt>
<totfact> 0.88999374E+00</totfact>
</mgrwt>
</event>
<event>
12    1  0.1338445E-007  0.4211629E+03  0.7818608E-02  0.1036688E+00
          2   -1    0    0  501    0  0.00000000000E+00  0.00000000000E+00  0.29357870181E+03  0.29357870181E+03  0.00000000000E+00 0.  1.
         -2   -1    0    0    0  501 -0.00000000000E+00 -0.00000000000E+00 -0.71743292062E+03  0.71743292062E+03  0.00000000000E+00 0. -1.
         23    2    1    2    0    0  0.21065942964E+03  0.42640217655E+02 -0.26829615021E+03  0.35517150889E+03  0.89265855993E+02 0.  0.
    5000000    2    1    2    0    0 -0.21065942964E+03 -0.42640217655E+02 -0.15555806861E+03  0.65584011355E+03  0.59977692384E+03 0.  0.
         23    2    4    4    0    0  0.16672254585E+03 -0.13765356069E+03 -0.92293247554E+02  0.25110396742E+03  0.88262386339E+02 0.  0.
         23    2    4    4    0    0 -0.37738197550E+03  0.95013343031E+02 -0.63264821052E+02  0.40473614613E+03  0.91456107591E+02 0.  0.
          1    1    3    3  502    0  0.15566755954E+03  0.14779081134E+02 -0.12852501653E+03  0.20240921473E+03  0.00000000000E+00 0. -1.
         -1    1    3    3    0  502  0.54991870102E+02  0.27861136520E+02 -0.13977113368E+03  0.15276229416E+03  0.00000000000E+00 0.  1.
         13    1    5    5    0    0  0.14334521176E+02 -0.43739609688E+02  0.67605818444E+01  0.46522439960E+02  0.00000000000E+00 0.  1.
        -13    1    5    5    0    0  0.15238802468E+03 -0.93913950998E+02 -0.99053829399E+02  0.20458152746E+03  0.00000000000E+00 0. -1.
          4    1    6    6  503    0 -0.21017487077E+03  0.69256697656E+01 -0.43225525633E+02  0.21468555441E+03  0.00000000000E+00 0.  1.
         -4    1    6    6    0  503 -0.16720710473E+03  0.88087673265E+02 -0.20039295419E+02  0.19005059172E+03  0.00000000000E+00 0. -1.
<mgrwt>
<rscale>  0 0.42116292E+03</rscale>
<asrwt>0</asrwt>
<pdfrwt beam="1">  1        2 0.45165955E-01 0.42116292E+03</pdfrwt>
<pdfrwt beam="2">  1       -2 0.11037429E+00 0.42116292E+03</pdfrwt>
<totfact> 0.75588662E+01</totfact>
</mgrwt>
</event>
<event>
12    1  0.1338445E-007  0.5893608E+03  0.7818608E-02  0.9927728E-01
         -2   -1    0    0    0  501 -0.00000000000E+00  0.00000000000E+00  0.32161709194E+03  0.32161709194E+03  0.00000000000E+00 0.  1.
          2   -1    0    0  501    0  0.00000000000E+00 -0.00000000000E+00 -0.15360769714E+04  0.15360769714E+04  0.00000000000E+00 0. -1.
         23    2    1    2    0    0  0.47628049156E+03  0.31156480646E+03 -0.44694433083E+03  0.72935491171E+03  0.91014378541E+02 0.  0.
    5000000    2    1    2    0    0 -0.47628049156E+03 -0.31156480646E+03 -0.76751554866E+03  0.11283391517E+04  0.60012781011E+03 0.  0.
         23    2    4    4    0    0 -0.41241528300E+03 -0.21964888937E+03 -0.15740463752E+03  0.50130545862E+03  0.90548013096E+02 0.  0.
         23    2    4    4    0    0 -0.63865208561E+02 -0.91915917096E+02 -0.61011091114E+03  0.62703369304E+03  0.91698569436E+02 0.  0.
          4    1    3    3  502    0  0.21279943314E+03  0.19351915138E+03 -0.22022913415E+03  0.36226251838E+03  0.00000000000E+00 0. -1.
         -4    1    3    3    0  502  0.26348105842E+03  0.11804565508E+03 -0.22671519668E+03  0.36709239333E+03  0.00000000000E+00 0.  1.
         13    1    5    5    0    0 -0.79432274144E+02 -0.65002048401E+01 -0.15109221013E+02  0.81117368043E+02  0.00000000000E+00 0.  1.
        -13    1    5    5    0    0 -0.33298300886E+03 -0.21314868453E+03 -0.14229541650E+03  0.42018809058E+03  0.00000000000E+00 0. -1.
          1    1    6    6  503    0 -0.24102026878E+02  0.31112922034E+01 -0.28405242062E+03  0.28509010067E+03  0.00000000000E+00 0. -1.
         -1    1    6    6    0  503 -0.39763181682E+02 -0.95027209299E+02 -0.32605849052E+03  0.34194359237E+03  0.00000000000E+00 0.  1.
<mgrwt>
<rscale>  0 0.58936082E+03</rscale>
<asrwt>0</asrwt>
<pdfrwt beam="1">  1        2 0.23631953E+00 0.58936082E+03</pdfrwt>
<pdfrwt beam="2">  1       -2 0.49479553E-01 0.58936082E+03</pdfrwt>
<totfact> 0.48809267E+01</totfact>
</mgrwt>
</event>
<event>
12    1  0.1338445E-007  0.6258885E+03  0.7818608E-02  0.9853105E-01
          2   -1    0    0  501    0  0.00000000000E+00  0.00000000000E+00  0.22042138575E+04  0.22042138575E+04  0.00000000000E+00 0.  1.
         -2   -1    0    0    0  501 -0.00000000000E+00 -0.00000000000E+00 -0.22820354977E+03  0.22820354977E+03  0.00000000000E+00 0. -1.
         23    2    1    2    0    0  0.53201202692E+03  0.20663989998E+03  0.96878629450E+03  0.11285652129E+04  0.96828251376E+02 0.  0.
    5000000    2    1    2    0    0 -0.53201202692E+03 -0.20663989998E+03  0.10072240132E+04  0.13038521944E+04  0.59982788110E+03 0.  0.
         23    2    4    4    0    0 -0.33703217975E+03 -0.29851748149E+03  0.96149911720E+03  0.10654582850E+04  0.89540090556E+02 0.  0.
         23    2    4    4    0    0 -0.19497984717E+03  0.91877581511E+02  0.45724896023E+02  0.23839390936E+03  0.91006917955E+02 0.  0.
          1    1    3    3  502    0  0.35835711621E+03  0.17514560816E+03  0.61186441034E+03  0.73039295138E+03  0.00000000000E+00 0. -1.
         -1    1    3    3    0  502  0.17365491071E+03  0.31494291821E+02  0.35692188417E+03  0.39817226150E+03  0.00000000000E+00 0.  1.
         11    1    5    5    0    0 -0.27940017415E+03 -0.21970250121E+03  0.67636314253E+03  0.76406854858E+03  0.00000000000E+00 0. -1.
        -11    1    5    5    0    0 -0.57632005594E+02 -0.78814980274E+02  0.28513597467E+03  0.30138973644E+03  0.00000000000E+00 0.  1.
          3    1    6    6  503    0 -0.50291050797E+02  0.53983659979E+02  0.49381712671E+02  0.88780509580E+02  0.00000000000E+00 0. -1.
         -3    1    6    6    0  503 -0.14468879637E+03  0.37893921532E+02 -0.36568166477E+01  0.14961339978E+03  0.00000000000E+00 0.  1.
<mgrwt>
<rscale>  0 0.62588848E+03</rscale>
<asrwt>0</asrwt>
<pdfrwt beam="1">  1        2 0.33910981E+00 0.62588848E+03</pdfrwt>
<pdfrwt beam="2">  1       -2 0.35108240E-01 0.62588848E+03</pdfrwt>
<totfact> 0.41205147E+01</totfact>
</mgrwt>
</event>
<event>
12    1  0.1338445E-007  0.3815139E+03  0.7818608E-02  0.1050376E+00
         -1   -1    0    0    0  501 -0.00000000000E+00  0.00000000000E+00  0.20702864221E+03  0.20702864221E+03  0.00000000000E+00 0.  1.
          1   -1    0    0  501    0  0.00000000000E+00 -0.00000000000E+00 -0.96866258764E+03  0.96866258764E+03  0.00000000000E+00 0. -1.
         23    2    1    2    0    0 -0.18914050093E+03  0.33348277921E+02 -0.39117057257E+02  0.21683917678E+03  0.92751537387E+02 0.  0.
    5000000    2    1    2    0    0  0.18914050093E+03 -0.33348277921E+02 -0.72251688817E+03  0.95885205306E+03  0.60040017424E+03 0.  0.
         23    2    4    4    0    0  0.34594729170E+03 -0.99008505351E+02 -0.66271227470E+03  0.75918789640E+03  0.87729642850E+02 0.  0.
         23    2    4    4    0    0 -0.15680679078E+03  0.65660227430E+02 -0.59804613473E+02  0.19966415666E+03  0.85962483451E+02 0.  0.
          4    1    3    3  502    0 -0.12433211377E+03  0.65328067495E+02 -0.18338818227E+02  0.14164230714E+03  0.00000000000E+00 0. -1.
         -4    1    3    3    0  502 -0.64808387153E+02 -0.31979789574E+02 -0.20778239031E+02  0.75196869641E+02  0.00000000000E+00 0.  1.
         13    1    5    5    0    0  0.16096775950E+03 -0.44304625043E+01 -0.25485508207E+03  0.30146535697E+03  0.00000000000E+00 0. -1.
        -13    1    5    5    0    0  0.18497953221E+03 -0.94578042847E+02 -0.40785719263E+03  0.45772253943E+03  0.00000000000E+00 0.  1.
          4    1    6    6  503    0 -0.39416461586E+02 -0.11483036758E+02  0.10796078812E+02  0.42450829142E+02  0.00000000000E+00 0. -1.
         -4    1    6    6    0  503 -0.11739032919E+03  0.77143264188E+02 -0.70600692286E+02  0.15721332752E+03  0.00000000000E+00 0.  1.
<mgrwt>
<rscale>  0 0.38151394E+03</rscale>
<asrwt>0</asrwt>
<pdfrwt beam="1">  1        1 0.14902501E+00 0.38151394E+03</pdfrwt>
<pdfrwt beam="2">  1       -1 0.31850560E-01 0.38151394E+03</pdfrwt>
<totfact> 0.15468316E+02</totfact>
</mgrwt>
</event>
<event>
12    1  0.1338445E-007  0.4888441E+03  0.7818608E-02  0.1016732E+00
         -1   -1    0    0    0  501 -0.00000000000E+00  0.00000000000E+00  0.38630158921E+03  0.38630158921E+03  0.00000000000E+00 0.  1.
          1   -1    0    0  501    0  0.00000000000E+00 -0.00000000000E+00 -0.63059225146E+03  0.63059225146E+03  0.00000000000E+00 0. -1.
         23    2    1    2    0    0  0.28603403333E+03 -0.97761935941E+02 -0.66963589215E+02  0.32202826666E+03  0.88573234711E+02 0.  0.
    5000000    2    1    2    0    0 -0.28603403333E+03  0.97761935941E+02 -0.17732707303E+03  0.69486557401E+03  0.60001700874E+03 0.  0.
         23    2    4    4    0    0 -0.45494149227E+03  0.11404514996E+03 -0.14422906974E+03  0.49918264726E+03  0.91669150463E+02 0.  0.
         23    2    4    4    0    0  0.16890745894E+03 -0.16283214017E+02 -0.33098003285E+02  0.19568292675E+03  0.91659463528E+02 0.  0.
          2    1    3    3  502    0  0.20179417341E+03 -0.37993749258E+02 -0.74567478295E+02  0.21845988699E+03  0.00000000000E+00 0. -1.
         -2    1    3    3    0  502  0.84239859923E+02 -0.59768186683E+02  0.76038890796E+01  0.10356837967E+03  0.00000000000E+00 0.  1.
         11    1    5    5    0    0 -0.41892885878E+03  0.12910839777E+03 -0.12614413305E+03  0.45616083720E+03  0.00000000000E+00 0. -1.
        -11    1    5    5    0    0 -0.36012633491E+02 -0.15063247808E+02 -0.18084936695E+02  0.43021810059E+02  0.00000000000E+00 0.  1.
          4    1    6    6  503    0  0.75366369527E+02  0.37042549634E+02 -0.36578846756E+01  0.84057243943E+02  0.00000000000E+00 0. -1.
         -4    1    6    6    0  503  0.93541089417E+02 -0.53325763651E+02 -0.29440118609E+02  0.11162568281E+03  0.00000000000E+00 0.  1.
<mgrwt>
<rscale>  0 0.48884406E+03</rscale>
<asrwt>0</asrwt>
<pdfrwt beam="1">  1        1 0.97014193E-01 0.48884406E+03</pdfrwt>
<pdfrwt beam="2">  1       -1 0.59431013E-01 0.48884406E+03</pdfrwt>
<totfact> 0.95295063E+01</totfact>
</mgrwt>
</event>
<event>
12    1  0.1338445E-007  0.7284872E+03  0.7818608E-02  0.9669718E-01
         -1   -1    0    0    0  501 -0.00000000000E+00  0.00000000000E+00  0.50927677438E+03  0.50927677438E+03  0.00000000000E+00 0.  1.
          1   -1    0    0  501    0  0.00000000000E+00 -0.00000000000E+00 -0.11369449395E+04  0.11369449395E+04  0.00000000000E+00 0. -1.
         23    2    1    2    0    0 -0.59126798871E+03  0.17624988211E+03 -0.44680016535E+03  0.76684783351E+03  0.88109911921E+02 0.  0.
    5000000    2    1    2    0    0  0.59126798871E+03 -0.17624988211E+03 -0.18086799974E+03  0.87937388035E+03  0.59993610718E+03 0.  0.
         23    2    4    4    0    0  0.19492140021E+03  0.20878952786E+03 -0.42242012312E+02  0.30252301359E+03  0.90268305299E+02 0.  0.
         23    2    4    4    0    0  0.39634658850E+03 -0.38503940997E+03 -0.13862598743E+03  0.57685086677E+03  0.90519570576E+02 0.  0.
          3    1    3    3  502    0 -0.15458893537E+03  0.40912417776E+02 -0.70650182941E+02  0.17482280520E+03  0.00000000000E+00 0. -1.
         -3    1    3    3    0  502 -0.43667905334E+03  0.13533746433E+03 -0.37614998241E+03  0.59202502831E+03  0.00000000000E+00 0.  1.
         11    1    5    5    0    0  0.13746915268E+03  0.12678129451E+03 -0.68248042524E+02  0.19907048974E+03  0.00000000000E+00 0. -1.
        -11    1    5    5    0    0  0.57452247530E+02  0.82008233347E+02  0.26006030211E+02  0.10345252385E+03  0.00000000000E+00 0.  1.
          2    1    6    6  503    0  0.10167935285E+03 -0.90422887128E+02 -0.74891770781E+02  0.15531827530E+03  0.00000000000E+00 0. -1.
         -2    1    6    6    0  503  0.29466723565E+03 -0.29461652284E+03 -0.63734216648E+02  0.42153259146E+03  0.00000000000E+00 0.  1.
<mgrwt>
<rscale>  0 0.72848722E+03</rscale>
<asrwt>0</asrwt>
<pdfrwt beam="1">  1        1 0.17491461E+00 0.72848722E+03</pdfrwt>
<pdfrwt beam="2">  1       -1 0.78350273E-01 0.72848722E+03</pdfrwt>
<totfact> 0.20041371E+01</totfact>
</mgrwt>
</event>
<event>
12    1  0.1338445E-007  0.2957172E+03  0.7818608E-02  0.1087401E+00
          2   -1    0    0  501    0  0.00000000000E+00  0.00000000000E+00  0.13499276379E+04  0.13499276379E+04  0.00000000000E+00 0. -1.
         -2   -1    0    0    0  501 -0.00000000000E+00 -0.00000000000E+00 -0.25898842184E+03  0.25898842184E+03  0.00000000000E+00 0.  1.
         23    2    1    2    0    0  0.26297971922E+03 -0.58823270298E+02  0.86972745753E+03  0.91502407851E+03  0.90690153921E+02 0.  0.
    5000000    2    1    2    0    0 -0.26297971922E+03  0.58823270298E+02  0.22121175857E+03  0.69389198128E+03  0.59994410549E+03 0.  0.
         23    2    4    4    0    0 -0.16331791221E+03  0.51969405776E+02 -0.18469434149E+03  0.26770718253E+03  0.90452065837E+02 0.  0.
         23    2    4    4    0    0 -0.99661807013E+02  0.68538645225E+01  0.40590610006E+03  0.42618479875E+03  0.83031737223E+02 0.  0.
          1    1    3    3  502    0  0.96946742007E+02 -0.82396291274E+01  0.45776621296E+03  0.46799195293E+03  0.00000000000E+00 0. -1.
         -1    1    3    3    0  502  0.16603297721E+03 -0.50583641171E+02  0.41196124457E+03  0.44703212558E+03  0.00000000000E+00 0.  1.
         13    1    5    5    0    0 -0.27310306391E+02  0.47479656746E+02 -0.75258284050E+02  0.93080502567E+02  0.00000000000E+00 0.  1.
        -13    1    5    5    0    0 -0.13600760582E+03  0.44897490296E+01 -0.10943605744E+03  0.17462667996E+03  0.00000000000E+00 0. -1.
          2    1    6    6  503    0 -0.74801698713E+02 -0.33783456767E+02  0.24576313754E+03  0.25910641801E+03  0.00000000000E+00 0. -1.
         -2    1    6    6    0  503 -0.24860108300E+02  0.40637321290E+02  0.16014296252E+03  0.16707838075E+03  0.00000000000E+00 0.  1.
<mgrwt>
<rscale>  0 0.29571724E+03</rscale>
<asrwt>0</asrwt>
<pdfrwt beam="1">  1        2 0.20768117E+00 0.29571724E+03</pdfrwt>
<pdfrwt beam="2">  1       -2 0.39844373E-01 0.29571724E+03</pdfrwt>
<totfact> 0.99546908E+01</totfact>
</mgrwt>
</event>
<event>
12    1  0.1338445E-007  0.5433749E+03  0.7818608E-02  0.1003039E+00
          2   -1    0    0  501    0  0.00000000000E+00  0.00000000000E+00  0.63183106057E+03  0.63183106057E+03  0.00000000000E+00 0. -1.
         -2   -1    0    0    0  501 -0.00000000000E+00 -0.00000000000E+00 -0.96175633028E+03  0.96175633028E+03  0.00000000000E+00 0.  1.
         23    2    1    2    0    0  0.31299072717E+03  0.40065426613E+03 -0.57180852484E+03  0.77082220353E+03  0.93353329464E+02 0.  0.
    5000000    2    1    2    0    0 -0.31299072717E+03 -0.40065426613E+03  0.24188325512E+03  0.82276518731E+03  0.59995667184E+03 0.  0.
         23    2    4    4    0    0 -0.33302056741E+03 -0.31090804510E+03 -0.86268624588E+02  0.47261261455E+03  0.91399655480E+02 0.  0.
         23    2    4    4    0    0  0.20029840242E+02 -0.89746221034E+02  0.32815187971E+03  0.35015257276E+03  0.80421324046E+02 0.  0.
          2    1    3    3  502    0  0.16561199365E+03  0.14840563855E+03 -0.21080018980E+03  0.30641195475E+03  0.00000000000E+00 0. -1.
         -2    1    3    3    0  502  0.14737873352E+03  0.25224862758E+03 -0.36100833503E+03  0.46441024878E+03  0.00000000000E+00 0.  1.
         11    1    5    5    0    0 -0.12162629323E+03 -0.11110786411E+03 -0.76352052661E+02  0.18156967978E+03  0.00000000000E+00 0.  1.
        -11    1    5    5    0    0 -0.21139427418E+03 -0.19980018099E+03 -0.99165719266E+01  0.29104293477E+03  0.00000000000E+00 0. -1.
          3    1    6    6  503    0  0.47233681146E+02 -0.55446654751E+02  0.15068537351E+03  0.16736616727E+03  0.00000000000E+00 0.  1.
         -3    1    6    6    0  503 -0.27203840904E+02 -0.34299566282E+02  0.17746650620E+03  0.18278640548E+03  0.00000000000E+00 0. -1.
<mgrwt>
<rscale>  0 0.54337485E+03</rscale>
<asrwt>0</asrwt>
<pdfrwt beam="1">  1        2 0.97204779E-01 0.54337485E+03</pdfrwt>
<pdfrwt beam="2">  1       -2 0.14796251E+00 0.54337485E+03</pdfrwt>
<totfact> 0.15030523E+01</totfact>
</mgrwt>
</event>
<event>
12    1  0.1338445E-007  0.5186946E+03  0.7818608E-02  0.1009011E+00
         -2   -1    0    0    0  501 -0.00000000000E+00  0.00000000000E+00  0.12661969164E+03  0.12661969164E+03  0.00000000000E+00 0. -1.
          2   -1    0    0  501    0  0.00000000000E+00 -0.00000000000E+00 -0.27598174018E+04  0.27598174018E+04  0.00000000000E+00 0.  1.
         23    2    1    2    0    0 -0.30325815408E+03 -0.22431752544E+03 -0.46788986658E+03  0.60804629155E+03  0.92279494940E+02 0.  0.
    5000000    2    1    2    0    0  0.30325815408E+03  0.22431752544E+03 -0.21653078436E+04  0.22783908019E+04  0.60018557833E+03 0.  0.
         23    2    4    4    0    0  0.43614891040E+03  0.13401615546E+03 -0.18932845695E+04  0.19496228033E+04  0.91194363827E+02 0.  0.
         23    2    4    4    0    0 -0.13289075633E+03  0.90301369976E+02 -0.27202327410E+03  0.32876799863E+03  0.90980463465E+02 0.  0.
          1    1    3    3  502    0 -0.22259032608E+03 -0.11065122219E+03 -0.28691910490E+03  0.37962181048E+03  0.00000000000E+00 0. -1.
         -1    1    3    3    0  502 -0.80667827993E+02 -0.11366630325E+03 -0.18097076168E+03  0.22842448107E+03  0.00000000000E+00 0.  1.
         11    1    5    5    0    0  0.27859712255E+03  0.13048552539E+03 -0.12362926205E+04  0.12739946124E+04  0.00000000000E+00 0.  1.
        -11    1    5    5    0    0  0.15755178785E+03  0.35306300731E+01 -0.65699194904E+03  0.67562819087E+03  0.00000000000E+00 0. -1.
          2    1    6    6  503    0 -0.32437656486E+02 -0.17493303519E+02 -0.45721675409E+02  0.58725538129E+02  0.00000000000E+00 0. -1.
         -2    1    6    6    0  503 -0.10045309984E+03  0.10779467350E+03 -0.22630159869E+03  0.27004246050E+03  0.00000000000E+00 0.  1.
<mgrwt>
<rscale>  0 0.51869458E+03</rscale>
<asrwt>0</asrwt>
<pdfrwt beam="1">  1        2 0.42458731E+00 0.51869458E+03</pdfrwt>
<pdfrwt beam="2">  1       -2 0.19479952E-01 0.51869458E+03</pdfrwt>
<totfact> 0.59451843E+01</totfact>
</mgrwt>
</event>
<event>
12    1  0.1338445E-007  0.7066972E+03  0.7818608E-02  0.9705847E-01
         -2   -1    0    0    0  501 -0.00000000000E+00  0.00000000000E+00  0.49419727685E+03  0.49419727685E+03  0.00000000000E+00 0.  1.
          2   -1    0    0  501    0  0.00000000000E+00 -0.00000000000E+00 -0.20369763138E+04  0.20369763138E+04  0.00000000000E+00 0. -1.
         23    2    1    2    0    0  0.63949955432E+03  0.27076023808E+03  0.40026663827E+02  0.70160441790E+03  0.91519609417E+02 0.  0.
    5000000    2    1    2    0    0 -0.63949955432E+03 -0.27076023808E+03 -0.15828057008E+04  0.18295691727E+04  0.59981554246E+03 0.  0.
         23    2    4    4    0    0 -0.23045837586E+03 -0.17008823852E+03 -0.15646153435E+03  0.33953156917E+03  0.93597023694E+02 0.  0.
         23    2    4    4    0    0 -0.40904117846E+03 -0.10067199955E+03 -0.14263441664E+04  0.14900376036E+04  0.91130904896E+02 0.  0.
          3    1    3    3  502    0  0.53679463042E+03  0.25974008648E+03  0.46239422311E+02  0.59812329159E+03  0.00000000000E+00 0. -1.
         -3    1    3    3    0  502  0.10270492390E+03  0.11020151598E+02 -0.62127584838E+01  0.10348112631E+03  0.00000000000E+00 0.  1.
         13    1    5    5    0    0 -0.14026975400E+03 -0.11231294625E+03 -0.14671671980E+03  0.23198189078E+03  0.00000000000E+00 0. -1.
        -13    1    5    5    0    0 -0.90188621861E+02 -0.57775292277E+02 -0.97448145479E+01  0.10754967839E+03  0.00000000000E+00 0.  1.
          2    1    6    6  503    0 -0.23425371634E+03 -0.92909891569E+02 -0.73950715419E+03  0.78126684472E+03  0.00000000000E+00 0. -1.
         -2    1    6    6    0  503 -0.17478746212E+03 -0.77621079851E+01 -0.68683701223E+03  0.70877075885E+03  0.00000000000E+00 0.  1.
<mgrwt>
<rscale>  0 0.70669723E+03</rscale>
<asrwt>0</asrwt>
<pdfrwt beam="1">  1        2 0.31338097E+00 0.70669723E+03</pdfrwt>
<pdfrwt beam="2">  1       -2 0.76030350E-01 0.70669723E+03</pdfrwt>
<totfact> 0.10298152E+01</totfact>
</mgrwt>
</event>
<event>
12    1  0.1338445E-007  0.8513751E+03  0.7818608E-02  0.9488493E-01
          1   -1    0    0  501    0  0.00000000000E+00  0.00000000000E+00  0.17080645931E+04  0.17080645931E+04  0.00000000000E+00 0. -1.
         -1   -1    0    0    0  501 -0.00000000000E+00 -0.00000000000E+00 -0.44472773040E+03  0.44472773040E+03  0.00000000000E+00 0.  1.
         23    2    1    2    0    0 -0.23050757380E+03  0.72849280859E+03  0.62048955685E+03  0.98856345787E+03  0.91732798570E+02 0.  0.
    5000000    2    1    2    0    0  0.23050757380E+03 -0.72849280859E+03  0.64284730585E+03  0.11642288656E+04  0.59861563561E+03 0.  0.
         23    2    4    4    0    0  0.22695118283E+03 -0.43211788220E+02  0.48565758592E+02  0.25318733059E+03  0.91493679743E+02 0.  0.
         23    2    4    4    0    0  0.35563909657E+01 -0.68528102037E+03  0.59428154726E+03  0.91104153505E+03  0.84872824739E+02 0.  0.
          2    1    3    3  502    0 -0.21494154536E+03  0.55510032406E+03  0.46994147159E+03  0.75840703083E+03  0.00000000000E+00 0. -1.
         -2    1    3    3    0  502 -0.15566028439E+02  0.17339248453E+03  0.15054808526E+03  0.23015642704E+03  0.00000000000E+00 0.  1.
         11    1    5    5    0    0  0.88092474130E+02 -0.55375441609E+02  0.46018610327E+02  0.11377361745E+03  0.00000000000E+00 0. -1.
        -11    1    5    5    0    0  0.13885870870E+03  0.12163653389E+02  0.25471482644E+01  0.13941371314E+03  0.00000000000E+00 0.  1.
          2    1    6    6  503    0  0.26718977372E+02 -0.82245243059E+02  0.62595463989E+02  0.10675380963E+03  0.00000000000E+00 0.  1.
         -2    1    6    6    0  503 -0.23162586407E+02 -0.60303577731E+03  0.53168608327E+03  0.80428772542E+03  0.00000000000E+00 0. -1.
<mgrwt>
<rscale>  0 0.85137510E+03</rscale>
<asrwt>0</asrwt>
<pdfrwt beam="1">  1        1 0.26277916E+00 0.85137510E+03</pdfrwt>
<pdfrwt beam="2">  1       -1 0.68419652E-01 0.85137510E+03</pdfrwt>
<totfact> 0.10442373E+01</totfact>
</mgrwt>
</event>
<event>
12    1  0.1338445E-007  0.6284335E+03  0.7818608E-02  0.9848110E-01
         -2   -1    0    0    0  501 -0.00000000000E+00  0.00000000000E+00  0.25800052262E+03  0.25800052262E+03  0.00000000000E+00 0. -1.
          2   -1    0    0  501    0  0.00000000000E+00 -0.00000000000E+00 -0.20419054178E+04  0.20419054178E+04  0.00000000000E+00 0.  1.
         23    2    1    2    0    0 -0.40217784289E+03 -0.33315724464E+03 -0.11992380413E+04  0.13127174960E+04  0.11097106730E+03 0.  0.
    5000000    2    1    2    0    0  0.40217784289E+03  0.33315724464E+03 -0.58466685388E+03  0.98718844437E+03  0.59997077237E+03 0.  0.
         23    2    4    4    0    0  0.48189712695E+03  0.12190974749E+03 -0.22650933636E+03  0.55356252266E+03  0.89655783631E+02 0.  0.
         23    2    4    4    0    0 -0.79719284055E+02  0.21124749715E+03 -0.35815751752E+03  0.43362592171E+03  0.93669436437E+02 0.  0.
          1    1    3    3  502    0 -0.12731678752E+03 -0.16614314080E+03 -0.40665152484E+03  0.45736043803E+03  0.00000000000E+00 0. -1.
         -1    1    3    3    0  502 -0.27486105537E+03 -0.16701410384E+03 -0.79258651643E+03  0.85535705800E+03  0.00000000000E+00 0.  1.
         11    1    5    5    0    0  0.40915310865E+03  0.84482778595E+02 -0.21820286505E+03  0.47133437866E+03  0.00000000000E+00 0. -1.
        -11    1    5    5    0    0  0.72744018300E+02  0.37426968891E+02 -0.83064713125E+01  0.82228143992E+02  0.00000000000E+00 0.  1.
          4    1    6    6  503    0 -0.43615290878E+02  0.93412768232E+02 -0.24703626057E+03  0.26768480140E+03  0.00000000000E+00 0. -1.
         -4    1    6    6    0  503 -0.36103993178E+02  0.11783472892E+03 -0.11112125695E+03  0.16594112031E+03  0.00000000000E+00 0.  1.
<mgrwt>
<rscale>  0 0.62843352E+03</rscale>
<asrwt>0</asrwt>
<pdfrwt beam="1">  1        2 0.31413929E+00 0.62843352E+03</pdfrwt>
<pdfrwt beam="2">  1       -2 0.39692388E-01 0.62843352E+03</pdfrwt>
<totfact> 0.39898999E+01</totfact>
</mgrwt>
</event>
<event>
12    1  0.1338445E-007  0.9986967E+03  0.7818608E-02  0.9309975E-01
          1   -1    0    0  501    0  0.00000000000E+00  0.00000000000E+00  0.16693453262E+04  0.16693453262E+04  0.00000000000E+00 0. -1.
         -1   -1    0    0    0  501 -0.00000000000E+00 -0.00000000000E+00 -0.66674689443E+03  0.66674689443E+03  0.00000000000E+00 0.  1.
         23    2    1    2    0    0 -0.89604176949E+03  0.24176117693E+03  0.15850305496E+03  0.94541749703E+03  0.85742089519E+02 0.  0.
    5000000    2    1    2    0    0  0.89604176949E+03 -0.24176117693E+03  0.84409537678E+03  0.13906747236E+04  0.60011654063E+03 0.  0.
         23    2    4    4    0    0  0.21938120044E+03 -0.30710036784E+03  0.46848359943E+03  0.60879206044E+03  0.93338860526E+02 0.  0.
         23    2    4    4    0    0  0.67666056905E+03  0.65339190910E+02  0.37561177736E+03  0.78188266314E+03  0.90097480842E+02 0.  0.
          3    1    3    3  502    0 -0.49252794078E+03  0.11637389174E+03  0.46151315591E+02  0.50818953065E+03  0.00000000000E+00 0. -1.
         -3    1    3    3    0  502 -0.40351382871E+03  0.12538728519E+03  0.11235173937E+03  0.43722796638E+03  0.00000000000E+00 0.  1.
         13    1    5    5    0    0  0.82998132464E+02 -0.61982156794E+02  0.86968446197E+02  0.13525527120E+03  0.00000000000E+00 0. -1.
        -13    1    5    5    0    0  0.13638306798E+03 -0.24511821105E+03  0.38151515323E+03  0.47353678924E+03  0.00000000000E+00 0.  1.
          2    1    6    6  503    0  0.61057499353E+03  0.33991350793E+02  0.34865279158E+03  0.70392897634E+03  0.00000000000E+00 0. -1.
         -2    1    6    6    0  503  0.66085575519E+02  0.31347840117E+02  0.26958985776E+02  0.77953686800E+02  0.00000000000E+00 0.  1.
<mgrwt>
<rscale>  0 0.99869668E+03</rscale>
<asrwt>0</asrwt>
<pdfrwt beam="1">  1        1 0.25682235E+00 0.99869668E+03</pdfrwt>
<pdfrwt beam="2">  1       -1 0.10257645E+00 0.99869668E+03</pdfrwt>
<totfact> 0.45288072E+00</totfact>
</mgrwt>
</event>
<event>
12    1  0.1338445E-007  0.9054950E+03  0.7818608E-02  0.9418738E-01
          1   -1    0    0  501    0  0.00000000000E+00  0.00000000000E+00  0.25263939211E+04  0.25263939211E+04  0.00000000000E+00 0. -1.
         -1   -1    0    0    0  501 -0.00000000000E+00 -0.00000000000E+00 -0.55206209771E+03  0.55206209771E+03  0.00000000000E+00 0.  1.
         23    2    1    2    0    0 -0.17826166138E+02  0.84157862743E+03  0.18534549413E+04  0.20376956834E+04  0.91302356572E+02 0.  0.
    5000000    2    1    2    0    0  0.17826166138E+02 -0.84157862743E+03  0.12087688206E+03  0.10407603354E+04  0.59999874729E+03 0.  0.
         23    2    4    4    0    0  0.24233409205E+03 -0.34501434636E+03 -0.10821948634E+03  0.44240218600E+03  0.79041290436E+02 0.  0.
         23    2    4    4    0    0 -0.22450792591E+03 -0.49656428107E+03  0.22909636840E+03  0.59835814938E+03  0.92560439084E+02 0.  0.
          2    1    3    3  502    0  0.99031081301E+01  0.14899506346E+03  0.41257303285E+03  0.43876429655E+03  0.00000000000E+00 0. -1.
         -2    1    3    3    0  502 -0.27729274269E+02  0.69258356397E+03  0.14408819084E+04  0.15989313868E+04  0.00000000000E+00 0.  1.
         13    1    5    5    0    0  0.10782576527E+03 -0.15330879205E+03 -0.77968680601E+01  0.18759203748E+03  0.00000000000E+00 0. -1.
        -13    1    5    5    0    0  0.13450832678E+03 -0.19170555431E+03 -0.10042261828E+03  0.25481014852E+03  0.00000000000E+00 0.  1.
          3    1    6    6  503    0 -0.93730659352E+02 -0.15461693910E+03  0.11746510536E+03  0.21561513244E+03  0.00000000000E+00 0. -1.
         -3    1    6    6    0  503 -0.13077726656E+03 -0.34194734197E+03  0.11163126304E+03  0.38274301695E+03  0.00000000000E+00 0.  1.
<mgrwt>
<rscale>  0 0.90549497E+03</rscale>
<asrwt>0</asrwt>
<pdfrwt beam="1">  1        1 0.38867598E+00 0.90549497E+03</pdfrwt>
<pdfrwt beam="2">  1       -1 0.84932632E-01 0.90549497E+03</pdfrwt>
<totfact> 0.18428239E+00</totfact>
</mgrwt>
</event>
<event>
12    1  0.1338445E-007  0.8012661E+03  0.7818608E-02  0.9558186E-01
          1   -1    0    0  501    0  0.00000000000E+00  0.00000000000E+00  0.51134090557E+03  0.51134090557E+03  0.00000000000E+00 0. -1.
         -1   -1    0    0    0  501 -0.00000000000E+00 -0.00000000000E+00 -0.16139045127E+04  0.16139045127E+04  0.00000000000E+00 0.  1.
         23    2    1    2    0    0  0.75412790134E+03  0.20542419170E+03 -0.72097680616E+03  0.10685727598E+04  0.10550923061E+03 0.  0.
    5000000    2    1    2    0    0 -0.75412790134E+03 -0.20542419170E+03 -0.38158680098E+03  0.10566726585E+04  0.60003385777E+03 0.  0.
         23    2    4    4    0    0 -0.25145734627E+03 -0.20881593454E+01 -0.42811086679E+03  0.50497460639E+03  0.92115587394E+02 0.  0.
         23    2    4    4    0    0 -0.50267055507E+03 -0.20333603236E+03  0.46524065803E+02  0.55169805213E+03  0.90460063206E+02 0.  0.
          3    1    3    3  502    0  0.29121604733E+03  0.28740793831E+02 -0.24803500364E+03  0.38360680713E+03  0.00000000000E+00 0. -1.
         -3    1    3    3    0  502  0.46291185401E+03  0.17668339787E+03 -0.47294180253E+03  0.68496595262E+03  0.00000000000E+00 0.  1.
         13    1    5    5    0    0 -0.45198724088E+02 -0.33945866857E+02 -0.64844716505E+02  0.86023739715E+02  0.00000000000E+00 0.  1.
        -13    1    5    5    0    0 -0.20625862218E+03  0.31857707512E+02 -0.36326615028E+03  0.41895086668E+03  0.00000000000E+00 0. -1.
          1    1    6    6  503    0 -0.17822319334E+03 -0.28051723941E+02  0.37477945891E+01  0.18045623244E+03  0.00000000000E+00 0. -1.
         -1    1    6    6    0  503 -0.32444736173E+03 -0.17528430842E+03  0.42776271214E+02  0.37124181969E+03  0.00000000000E+00 0.  1.
<mgrwt>
<rscale>  0 0.80126613E+03</rscale>
<asrwt>0</asrwt>
<pdfrwt beam="1">  1        1 0.78667832E-01 0.80126613E+03</pdfrwt>
<pdfrwt beam="2">  1       -1 0.24829300E+00 0.80126613E+03</pdfrwt>
<totfact> 0.31796511E+00</totfact>
</mgrwt>
</event>
<event>
12    1  0.1338445E-007  0.9628367E+03  0.7818608E-02  0.9350271E-01
          2   -1    0    0  501    0  0.00000000000E+00  0.00000000000E+00  0.30160692276E+04  0.30160692276E+04  0.00000000000E+00 0. -1.
         -2   -1    0    0    0  501 -0.00000000000E+00 -0.00000000000E+00 -0.35442870045E+03  0.35442870045E+03  0.00000000000E+00 0.  1.
         23    2    1    2    0    0 -0.77261417762E+03 -0.44402768031E+03  0.17308823074E+04  0.19489431038E+04  0.91282043577E+02 0.  0.
    5000000    2    1    2    0    0  0.77261417762E+03  0.44402768031E+03  0.93075821976E+03  0.14215548242E+04  0.60034490615E+03 0.  0.
         23    2    4    4    0    0  0.79968292677E+02 -0.10935874313E+03  0.60324695170E+02  0.17577540759E+03  0.94359220714E+02 0.  0.
         23    2    4    4    0    0  0.69264588495E+03  0.55338642344E+03  0.87043352459E+03  0.12457794167E+04  0.91197470569E+02 0.  0.
          3    1    3    3  502    0 -0.25694271754E+03 -0.99617646780E+02  0.51951337571E+03  0.58807940211E+03  0.00000000000E+00 0. -1.
         -3    1    3    3    0  502 -0.51567146008E+03 -0.34441003353E+03  0.12113689317E+04  0.13608637017E+04  0.00000000000E+00 0.  1.
         13    1    5    5    0    0  0.18732308793E+02 -0.54715041491E+02  0.72569392080E+02  0.92795214451E+02  0.00000000000E+00 0. -1.
        -13    1    5    5    0    0  0.61235983885E+02 -0.54643701642E+02 -0.12244696910E+02  0.82980193142E+02  0.00000000000E+00 0.  1.
          1    1    6    6  503    0  0.10298942405E+03  0.48646243287E+02  0.13348973798E+03  0.17547874116E+03  0.00000000000E+00 0. -1.
         -1    1    6    6    0  503  0.58965646089E+03  0.50474018016E+03  0.73694378661E+03  0.10703006755E+04  0.00000000000E+00 0.  1.
<mgrwt>
<rscale>  0 0.96283667E+03</rscale>
<asrwt>0</asrwt>
<pdfrwt beam="1">  1        2 0.46401063E+00 0.96283667E+03</pdfrwt>
<pdfrwt beam="2">  1       -2 0.54527494E-01 0.96283667E+03</pdfrwt>
<totfact> 0.55402951E+00</totfact>
</mgrwt>
</event>
<event>
12    1  0.1338445E-007  0.3802166E+03  0.7818608E-02  0.1050854E+00
         -2   -1    0    0    0  501 -0.00000000000E+00  0.00000000000E+00  0.40321975249E+03  0.40321975249E+03  0.00000000000E+00 0.  1.
          2   -1    0    0  501    0  0.00000000000E+00 -0.00000000000E+00 -0.45873857776E+03  0.45873857776E+03  0.00000000000E+00 0. -1.
         23    2    1    2    0    0 -0.78827115350E+02  0.18596002351E+03  0.27707492280E+02  0.22349538880E+03  0.91584055522E+02 0.  0.
    5000000    2    1    2    0    0  0.78827115350E+02 -0.18596002351E+03 -0.83226317552E+02  0.63846294146E+03  0.59992788169E+03 0.  0.
         23    2    4    4    0    0  0.18840251271E+03 -0.30653059151E+03 -0.19599611549E+03  0.42018642956E+03  0.93196823853E+02 0.  0.
         23    2    4    4    0    0 -0.10957539736E+03  0.12057056800E+03  0.11276979793E+03  0.21827651190E+03  0.91561884799E+02 0.  0.
          3    1    3    3  502    0 -0.16969458312E+02  0.11527940240E+03  0.50260951525E+02  0.12689943412E+03  0.00000000000E+00 0. -1.
         -3    1    3    3    0  502 -0.61857657038E+02  0.70680621115E+02 -0.22553459245E+02  0.96595954674E+02  0.00000000000E+00 0.  1.
         11    1    5    5    0    0  0.97706838562E+02 -0.23201276991E+03 -0.15606895954E+03  0.29619937852E+03  0.00000000000E+00 0. -1.
        -11    1    5    5    0    0  0.90695674143E+02 -0.74517821598E+02 -0.39927155950E+02  0.12398705104E+03  0.00000000000E+00 0.  1.
          3    1    6    6  503    0 -0.11035098091E+03  0.70867872779E+02  0.55403737189E+02  0.14236982993E+03  0.00000000000E+00 0. -1.
         -3    1    6    6    0  503  0.77558355580E+00  0.49702695218E+02  0.57366060746E+02  0.75906681967E+02  0.00000000000E+00 0.  1.
<mgrwt>
<rscale>  0 0.38021656E+03</rscale>
<asrwt>0</asrwt>
<pdfrwt beam="1">  1        2 0.70575166E-01 0.38021656E+03</pdfrwt>
<pdfrwt beam="2">  1       -2 0.62033808E-01 0.38021656E+03</pdfrwt>
<totfact> 0.16917629E+02</totfact>
</mgrwt>
</event>
<event>
12    1  0.1338445E-007  0.1015372E+04  0.7818608E-02  0.9291844E-01
          2   -1    0    0  501    0  0.00000000000E+00  0.00000000000E+00  0.18229155488E+04  0.18229155488E+04  0.00000000000E+00 0.  1.
         -2   -1    0    0    0  501 -0.00000000000E+00 -0.00000000000E+00 -0.66693075013E+03  0.66693075013E+03  0.00000000000E+00 0. -1.
         23    2    1    2    0    0  0.93667068550E+03 -0.25714443822E+03  0.88300006187E+03  0.13159742787E+04  0.92865266013E+02 0.  0.
    5000000    2    1    2    0    0 -0.93667068550E+03  0.25714443822E+03  0.27298473681E+03  0.11738720203E+04  0.59998301501E+03 0.  0.
         23    2    4    4    0    0 -0.11443298065E+03  0.18946737184E+03 -0.10537233022E+03  0.26142626216E+03  0.90816135791E+02 0.  0.
         23    2    4    4    0    0 -0.82223770485E+03  0.67677066387E+02  0.37835706703E+03  0.91244575812E+03  0.93531613658E+02 0.  0.
          4    1    3    3  502    0  0.73891437569E+03 -0.17594744266E+03  0.64957392048E+03  0.99944896586E+03  0.00000000000E+00 0. -1.
         -4    1    3    3    0  502  0.19775630980E+03 -0.81196995559E+02  0.23342614139E+03  0.31652531279E+03  0.00000000000E+00 0.  1.
         13    1    5    5    0    0 -0.86917579748E+02  0.91536287157E+02 -0.18342385190E+02  0.12755391264E+03  0.00000000000E+00 0.  1.
        -13    1    5    5    0    0 -0.27515400901E+02  0.97931084678E+02 -0.87029945035E+02  0.13387234952E+03  0.00000000000E+00 0. -1.
          3    1    6    6  503    0 -0.53668545977E+03  0.31687387596E+01  0.26454807907E+03  0.59835358257E+03  0.00000000000E+00 0. -1.
         -3    1    6    6    0  503 -0.28555224508E+03  0.64508327627E+02  0.11380898796E+03  0.31409217555E+03  0.00000000000E+00 0.  1.
<mgrwt>
<rscale>  0 0.10153722E+04</rscale>
<asrwt>0</asrwt>
<pdfrwt beam="1">  1        2 0.28044854E+00 0.10153722E+04</pdfrwt>
<pdfrwt beam="2">  1       -2 0.10260473E+00 0.10153722E+04</pdfrwt>
<totfact> 0.64867583E+00</totfact>
</mgrwt>
</event>
<event>
12    1  0.1338445E-007  0.4306437E+03  0.7818608E-02  0.1033657E+00
          2   -1    0    0  501    0  0.00000000000E+00  0.00000000000E+00  0.17167607011E+04  0.17167607011E+04  0.00000000000E+00 0. -1.
         -2   -1    0    0    0  501 -0.00000000000E+00 -0.00000000000E+00 -0.16455523657E+03  0.16455523657E+03  0.00000000000E+00 0.  1.
         23    2    1    2    0    0 -0.20426282755E+03 -0.29075964740E+03  0.56446860690E+03  0.67221869314E+03  0.83598372920E+02 0.  0.
    5000000    2    1    2    0    0  0.20426282755E+03  0.29075964740E+03  0.98773685765E+03  0.12090972446E+04  0.60002297587E+03 0.  0.
         23    2    4    4    0    0  0.25067417020E+03  0.67608501015E+02  0.90977774317E+03  0.95043189517E+03  0.90646546358E+02 0.  0.
         23    2    4    4    0    0 -0.46411342657E+02  0.22315114639E+03  0.77959114483E+02  0.25866534939E+03  0.94232120776E+02 0.  0.
          3    1    3    3  502    0 -0.15184322875E+03 -0.14540439752E+03  0.31215598999E+03  0.37635112199E+03  0.00000000000E+00 0. -1.
         -3    1    3    3    0  502 -0.52419598794E+02 -0.14535524988E+03  0.25231261691E+03  0.29586757115E+03  0.00000000000E+00 0.  1.
         13    1    5    5    0    0  0.16771482949E+03  0.25528624123E+02  0.71109580573E+03  0.73105213193E+03  0.00000000000E+00 0.  1.
        -13    1    5    5    0    0  0.82959340712E+02  0.42079876892E+02  0.19868193744E+03  0.21937976323E+03  0.00000000000E+00 0. -1.
          2    1    6    6  503    0  0.59254147952E+01  0.98435475051E+02  0.74112604052E+02  0.12335854802E+03  0.00000000000E+00 0. -1.
         -2    1    6    6    0  503 -0.52336757452E+02  0.12471567133E+03  0.38465104307E+01  0.13530680138E+03  0.00000000000E+00 0.  1.
<mgrwt>
<rscale>  0 0.43064366E+03</rscale>
<asrwt>0</asrwt>
<pdfrwt beam="1">  1        2 0.26411702E+00 0.43064366E+03</pdfrwt>
<pdfrwt beam="2">  1       -2 0.25316191E-01 0.43064366E+03</pdfrwt>
<totfact> 0.14235749E+02</totfact>
</mgrwt>
</event>
<event>
12    1  0.1338445E-007  0.6249044E+03  0.7818608E-02  0.9855043E-01
          1   -1    0    0  501    0  0.00000000000E+00  0.00000000000E+00  0.58098561171E+03  0.58098561171E+03  0.00000000000E+00 0. -1.
         -1   -1    0    0    0  501 -0.00000000000E+00 -0.00000000000E+00 -0.75930931323E+03  0.75930931323E+03  0.00000000000E+00 0.  1.
         23    2    1    2    0    0 -0.50974940002E+03  0.11175764536E+03 -0.13076867810E+03  0.54363075421E+03  0.78100753084E+02 0.  0.
    5000000    2    1    2    0    0  0.50974940002E+03 -0.11175764536E+03 -0.47555023422E+02  0.79666417073E+03  0.60006507860E+03 0.  0.
         23    2    4    4    0    0  0.16069378597E+03 -0.27884615960E+03 -0.17893099920E+03  0.37933816056E+03  0.91123345029E+02 0.  0.
         23    2    4    4    0    0  0.34905561405E+03  0.16708851423E+03  0.13137597578E+03  0.41732601017E+03  0.84516024882E+02 0.  0.
          3    1    3    3  502    0 -0.12410923752E+03 -0.43725159943E+01 -0.43103592234E+02  0.13145395162E+03  0.00000000000E+00 0. -1.
         -3    1    3    3    0  502 -0.38564016250E+03  0.11613016136E+03 -0.87665085862E+02  0.41217680259E+03  0.00000000000E+00 0.  1.
         11    1    5    5    0    0  0.16887815484E+02 -0.93573151946E+02 -0.23405714934E+02  0.97923238143E+02  0.00000000000E+00 0.  1.
        -11    1    5    5    0    0  0.14380597048E+03 -0.18527300765E+03 -0.15552528427E+03  0.28141492242E+03  0.00000000000E+00 0. -1.
          3    1    6    6  503    0  0.29929807616E+02  0.39530192290E+02  0.34007441558E+02  0.60124334239E+02  0.00000000000E+00 0. -1.
         -3    1    6    6    0  503  0.31912580644E+03  0.12755832194E+03  0.97368534224E+02  0.35720167593E+03  0.00000000000E+00 0.  1.
<mgrwt>
<rscale>  0 0.62490444E+03</rscale>
<asrwt>0</asrwt>
<pdfrwt beam="1">  1        1 0.89382402E-01 0.62490444E+03</pdfrwt>
<pdfrwt beam="2">  1       -1 0.11681682E+00 0.62490444E+03</pdfrwt>
<totfact> 0.24663204E+01</totfact>
</mgrwt>
</event>
<event>
12    1  0.1338445E-007  0.8546407E+03  0.7818608E-02  0.9484129E-01
         -1   -1    0    0    0  501 -0.00000000000E+00  0.00000000000E+00  0.13458902899E+04  0.13458902899E+04  0.00000000000E+00 0.  1.
          1   -1    0    0  501    0  0.00000000000E+00 -0.00000000000E+00 -0.59227577538E+03  0.59227577538E+03  0.00000000000E+00 0. -1.
         23    2    1    2    0    0 -0.75340481654E+03 -0.12645973753E+03  0.12019568084E+03  0.77868516145E+03  0.91064241971E+02 0.  0.
    5000000    2    1    2    0    0  0.75340481654E+03  0.12645973753E+03  0.63341883373E+03  0.11594809039E+04  0.59963794469E+03 0.  0.
         23    2    4    4    0    0  0.33702660998E+03 -0.20591590983E+03  0.14570603137E+03  0.43118229081E+03  0.93271767303E+02 0.  0.
         23    2    4    4    0    0  0.41637820656E+03  0.33237564736E+03  0.48771280236E+03  0.72829861306E+03  0.93331186354E+02 0.  0.
          3    1    3    3  502    0 -0.31456621819E+03 -0.10324041378E+02  0.33240548880E+02  0.31648605901E+03  0.00000000000E+00 0. -1.
         -3    1    3    3    0  502 -0.43883859835E+03 -0.11613569615E+03  0.86955131956E+02  0.46219910244E+03  0.00000000000E+00 0.  1.
         13    1    5    5    0    0  0.25100740495E+03 -0.18532265208E+03  0.83311372436E+02  0.32293960347E+03  0.00000000000E+00 0. -1.
        -13    1    5    5    0    0  0.86019205037E+02 -0.20593257748E+02  0.62394658935E+02  0.10824268734E+03  0.00000000000E+00 0.  1.
          1    1    6    6  503    0  0.37123187966E+02  0.69167987358E+02  0.84811995937E+02  0.11556563596E+03  0.00000000000E+00 0. -1.
         -1    1    6    6    0  503  0.37925501859E+03  0.26320766000E+03  0.40290080642E+03  0.61273297710E+03  0.00000000000E+00 0.  1.
<mgrwt>
<rscale>  0 0.85464075E+03</rscale>
<asrwt>0</asrwt>
<pdfrwt beam="1">  1        1 0.91119350E-01 0.85464075E+03</pdfrwt>
<pdfrwt beam="2">  1       -1 0.20706004E+00 0.85464075E+03</pdfrwt>
<totfact> 0.48009038E+00</totfact>
</mgrwt>
</event>
<event>
12    1  0.1338445E-007  0.5052576E+03  0.7818608E-02  0.1012416E+00
          2   -1    0    0  501    0  0.00000000000E+00  0.00000000000E+00  0.18608485948E+04  0.18608485948E+04  0.00000000000E+00 0. -1.
         -2   -1    0    0    0  501 -0.00000000000E+00 -0.00000000000E+00 -0.37581867997E+03  0.37581867997E+03  0.00000000000E+00 0.  1.
         23    2    1    2    0    0 -0.41561952226E+03  0.25614891446E+03 -0.68267116938E+02  0.50141617456E+03  0.91683843722E+02 0.  0.
    5000000    2    1    2    0    0  0.41561952226E+03 -0.25614891446E+03  0.15532970318E+04  0.17352511002E+04  0.60001071509E+03 0.  0.
         23    2    4    4    0    0  0.27590619970E+03 -0.21079951771E+03  0.29410827771E+03  0.46431885471E+03  0.92366942796E+02 0.  0.
         23    2    4    4    0    0  0.13971332256E+03 -0.45349396742E+02  0.12591887540E+04  0.12709322455E+04  0.90200188579E+02 0.  0.
          2    1    3    3  502    0 -0.11013960106E+03  0.11456284947E+03 -0.37735347935E+02  0.16333809931E+03  0.00000000000E+00 0. -1.
         -2    1    3    3    0  502 -0.30547992120E+03  0.14158606499E+03 -0.30531769003E+02  0.33807807526E+03  0.00000000000E+00 0.  1.
         13    1    5    5    0    0  0.18185893540E+03 -0.13835969474E+03  0.24730731389E+03  0.33671499078E+03  0.00000000000E+00 0.  1.
        -13    1    5    5    0    0  0.94047264303E+02 -0.72439822978E+02  0.46800963817E+02  0.12760386393E+03  0.00000000000E+00 0. -1.
          2    1    6    6  503    0  0.28114143045E+02  0.23421706333E+02  0.41702921946E+03  0.41863152205E+03  0.00000000000E+00 0. -1.
         -2    1    6    6    0  503  0.11159917951E+03 -0.68771103075E+02  0.84215953458E+03  0.85230072344E+03  0.00000000000E+00 0.  1.
<mgrwt>
<rscale>  0 0.50525755E+03</rscale>
<asrwt>0</asrwt>
<pdfrwt beam="1">  1        2 0.28628439E+00 0.50525755E+03</pdfrwt>
<pdfrwt beam="2">  1       -2 0.57818260E-01 0.50525755E+03</pdfrwt>
<totfact> 0.23961949E+01</totfact>
</mgrwt>
</event>
<event>
12    1  0.1338445E-007  0.6768897E+03  0.7818608E-02  0.9757591E-01
          3   -1    0    0  501    0  0.00000000000E+00  0.00000000000E+00  0.10174283402E+04  0.10174283402E+04  0.00000000000E+00 0. -1.
         -3   -1    0    0    0  501 -0.00000000000E+00 -0.00000000000E+00 -0.57739219443E+03  0.57739219443E+03  0.00000000000E+00 0.  1.
         23    2    1    2    0    0 -0.55880101849E+03 -0.12257493933E+03  0.49746542899E+03  0.76380520356E+03  0.92969575286E+02 0.  0.
    5000000    2    1    2    0    0  0.55880101849E+03  0.12257493933E+03 -0.57429283261E+02  0.83101533102E+03  0.60000430316E+03 0.  0.
         23    2    4    4    0    0 -0.71551681330E+02  0.94778025873E+02 -0.11721262695E+03  0.19059743194E+03  0.92119834228E+02 0.  0.
         23    2    4    4    0    0  0.63035269982E+03  0.27796913452E+02  0.59783343687E+02  0.64041789908E+03  0.91890384233E+02 0.  0.
          2    1    3    3  502    0 -0.27556196714E+03 -0.17750788094E+02  0.26457351616E+03  0.38242467711E+03  0.00000000000E+00 0. -1.
         -2    1    3    3    0  502 -0.28323905134E+03 -0.10482415123E+03  0.23289191283E+03  0.38138052644E+03  0.00000000000E+00 0.  1.
         11    1    5    5    0    0  0.15975944437E+01  0.58012725281E+02 -0.15575658912E+02  0.60088515983E+02  0.00000000000E+00 0. -1.
        -11    1    5    5    0    0 -0.73149275774E+02  0.36765300592E+02 -0.10163696804E+03  0.13050891596E+03  0.00000000000E+00 0.  1.
          2    1    6    6  503    0  0.35378777960E+03 -0.23012345768E+02  0.57809087952E+02  0.35921755484E+03  0.00000000000E+00 0.  1.
         -2    1    6    6    0  503  0.27656492022E+03  0.50809259221E+02  0.19742557353E+01  0.28120034424E+03  0.00000000000E+00 0. -1.
<mgrwt>
<rscale>  0 0.67688974E+03</rscale>
<asrwt>0</asrwt>
<pdfrwt beam="1">  1        3 0.15652744E+00 0.67688974E+03</pdfrwt>
<pdfrwt beam="2">  1       -3 0.88829569E-01 0.67688974E+03</pdfrwt>
<totfact> 0.86658168E-01</totfact>
</mgrwt>
</event>
<event>
12    1  0.1338445E-007  0.4941528E+03  0.7818608E-02  0.1015316E+00
          1   -1    0    0  501    0  0.00000000000E+00  0.00000000000E+00  0.42356048167E+03  0.42356048167E+03  0.00000000000E+00 0. -1.
         -1   -1    0    0    0  501 -0.00000000000E+00 -0.00000000000E+00 -0.64125784665E+03  0.64125784665E+03  0.00000000000E+00 0.  1.
         23    2    1    2    0    0 -0.32393888758E+03 -0.41008330559E+02  0.24095985940E+02  0.34012963730E+03  0.92138306734E+02 0.  0.
    5000000    2    1    2    0    0  0.32393888758E+03  0.41008330559E+02 -0.24179335092E+03  0.72468869102E+03  0.60007631871E+03 0.  0.
         23    2    4    4    0    0 -0.96350539856E+02 -0.15731328848E+03 -0.41887038045E+02  0.21051327940E+03  0.92360270603E+02 0.  0.
         23    2    4    4    0    0  0.42028942744E+03  0.19832161904E+03 -0.19990631288E+03  0.51417541162E+03  0.91864860453E+02 0.  0.
          4    1    3    3  502    0 -0.21141216926E+03 -0.68132531519E+02  0.11243405100E+01  0.22212251417E+03  0.00000000000E+00 0.  1.
         -4    1    3    3    0  502 -0.11252671833E+03  0.27124200960E+02  0.22971645430E+02  0.11800712313E+03  0.00000000000E+00 0. -1.
         13    1    5    5    0    0 -0.61716817447E+02 -0.11898286936E+03 -0.70512736884E+02  0.15145274781E+03  0.00000000000E+00 0.  1.
        -13    1    5    5    0    0 -0.34633722410E+02 -0.38330419124E+02  0.28625698839E+02  0.59060531594E+02  0.00000000000E+00 0. -1.
          4    1    6    6  503    0  0.38887498132E+03  0.18265265353E+03 -0.20920073718E+03  0.47786053549E+03  0.00000000000E+00 0.  1.
         -4    1    6    6    0  503  0.31414446122E+02  0.15668965507E+02  0.92944243041E+01  0.36314876130E+02  0.00000000000E+00 0. -1.
<mgrwt>
<rscale>  0 0.49415280E+03</rscale>
<asrwt>0</asrwt>
<pdfrwt beam="1">  1        1 0.65163152E-01 0.49415280E+03</pdfrwt>
<pdfrwt beam="2">  1       -1 0.98655052E-01 0.49415280E+03</pdfrwt>
<totfact> 0.57133736E+01</totfact>
</mgrwt>
</event>
<event>
12    1  0.1338445E-007  0.3098523E+03  0.7818608E-02  0.1080417E+00
         -1   -1    0    0    0  501 -0.00000000000E+00  0.00000000000E+00  0.22538642867E+03  0.22538642867E+03  0.00000000000E+00 0.  1.
          1   -1    0    0  501    0  0.00000000000E+00 -0.00000000000E+00 -0.11415638362E+04  0.11415638362E+04  0.00000000000E+00 0. -1.
         23    2    1    2    0    0  0.25691974569E+03 -0.12586396846E+03 -0.10439038021E+03  0.31776442470E+03  0.90704927332E+02 0.  0.
    5000000    2    1    2    0    0 -0.25691974569E+03  0.12586396846E+03 -0.81178702735E+03  0.10491858402E+04  0.59995271082E+03 0.  0.
         23    2    4    4    0    0 -0.15961282819E+03  0.12263329020E+03 -0.87444204782E+03  0.90156142237E+03  0.87458130107E+02 0.  0.
         23    2    4    4    0    0 -0.97306917501E+02  0.32306782610E+01  0.62655020464E+02  0.14762441783E+03  0.91587355436E+02 0.  0.
          1    1    3    3  502    0  0.15405360034E+03 -0.51326693181E+02 -0.16337727860E+02  0.16319884363E+03  0.00000000000E+00 0. -1.
         -1    1    3    3    0  502  0.10286614535E+03 -0.74537275281E+02 -0.88052652348E+02  0.15456558107E+03  0.00000000000E+00 0.  1.
         11    1    5    5    0    0 -0.10658647361E+03  0.66623616369E+02 -0.35873637665E+03  0.38011994231E+03  0.00000000000E+00 0. -1.
        -11    1    5    5    0    0 -0.53026354577E+02  0.56009673832E+02 -0.51570567117E+03  0.52144148005E+03  0.00000000000E+00 0.  1.
          2    1    6    6  503    0 -0.98007671432E+02 -0.23453823637E+02  0.66379145474E+02  0.12067218593E+03  0.00000000000E+00 0. -1.
         -2    1    6    6    0  503  0.70075393117E+00  0.26684501898E+02 -0.37241250106E+01  0.26952231906E+02  0.00000000000E+00 0.  1.
<mgrwt>
<rscale>  0 0.30985233E+03</rscale>
<asrwt>0</asrwt>
<pdfrwt beam="1">  1        1 0.17562520E+00 0.30985233E+03</pdfrwt>
<pdfrwt beam="2">  1       -1 0.34674836E-01 0.30985233E+03</pdfrwt>
<totfact> 0.10052169E+02</totfact>
</mgrwt>
</event>
<event>
12    1  0.1338445E-007  0.3610690E+03  0.7818608E-02  0.1058161E+00
         -2   -1    0    0    0  501 -0.00000000000E+00  0.00000000000E+00  0.10546489335E+03  0.10546489335E+03  0.00000000000E+00 0.  1.
          2   -1    0    0  501    0  0.00000000000E+00 -0.00000000000E+00 -0.18688615389E+04  0.18688615389E+04  0.00000000000E+00 0. -1.
         23    2    1    2    0    0  0.14616740383E+03  0.17140180907E+03 -0.56718871789E+03  0.61716153485E+03  0.91879422583E+02 0.  0.
    5000000    2    1    2    0    0 -0.14616740383E+03 -0.17140180907E+03 -0.11962079276E+04  0.13571648974E+04  0.60019968547E+03 0.  0.
         23    2    4    4    0    0  0.14397484393E+03 -0.12574752912E+02 -0.85951179012E+03  0.87633734202E+03  0.91212606411E+02 0.  0.
         23    2    4    4    0    0 -0.29014224776E+03 -0.15882705616E+03 -0.33669613750E+03  0.48082755534E+03  0.91773042163E+02 0.  0.
          1    1    3    3  502    0  0.97000607500E+02  0.12347728425E+03 -0.48651089664E+03  0.51122266199E+03  0.00000000000E+00 0. -1.
         -1    1    3    3    0  502  0.49166796327E+02  0.47924524815E+02 -0.80677821251E+02  0.10593887285E+03  0.00000000000E+00 0.  1.
         11    1    5    5    0    0  0.42445761362E+02 -0.42005328893E+02 -0.42375818457E+03  0.42794519427E+03  0.00000000000E+00 0.  1.
        -11    1    5    5    0    0  0.10152908257E+03  0.29430575981E+02 -0.43575360555E+03  0.44839214774E+03  0.00000000000E+00 0. -1.
          3    1    6    6  503    0 -0.79740474911E+01 -0.69933770659E+01  0.55697048693E+01  0.11979748266E+02  0.00000000000E+00 0. -1.
         -3    1    6    6    0  503 -0.28216820027E+03 -0.15183367909E+03 -0.34226584237E+03  0.46884780708E+03  0.00000000000E+00 0.  1.
<mgrwt>
<rscale>  0 0.36106899E+03</rscale>
<asrwt>0</asrwt>
<pdfrwt beam="1">  1        2 0.28751713E+00 0.36106899E+03</pdfrwt>
<pdfrwt beam="2">  1       -2 0.16225370E-01 0.36106899E+03</pdfrwt>
<totfact> 0.25831564E+02</totfact>
</mgrwt>
</event>
<event>
12    1  0.1338445E-007  0.5166274E+03  0.7818608E-02  0.1009528E+00
          1   -1    0    0  501    0  0.00000000000E+00  0.00000000000E+00  0.36605520872E+04  0.36605520872E+04  0.00000000000E+00 0. -1.
         -1   -1    0    0    0  501 -0.00000000000E+00 -0.00000000000E+00 -0.10358763882E+03  0.10358763882E+03  0.00000000000E+00 0.  1.
         23    2    1    2    0    0 -0.39398191530E+03  0.23498517177E+03  0.11378345828E+04  0.12301551665E+04  0.90412472923E+02 0.  0.
    5000000    2    1    2    0    0  0.39398191530E+03 -0.23498517177E+03  0.24191298656E+04  0.25339845595E+04  0.59870582170E+03 0.  0.
         23    2    4    4    0    0  0.62345171430E+02 -0.21114945469E+03  0.27812642379E+03  0.36551644581E+03  0.88187028137E+02 0.  0.
         23    2    4    4    0    0  0.33163674387E+03 -0.23835717080E+02  0.21410034418E+04  0.21684681137E+04  0.88358085188E+02 0.  0.
          3    1    3    3  502    0 -0.20446707100E+03  0.89519790236E+02  0.45644341048E+03  0.50809562381E+03  0.00000000000E+00 0. -1.
         -3    1    3    3    0  502 -0.18951484430E+03  0.14546538154E+03  0.68139117237E+03  0.72205954271E+03  0.00000000000E+00 0.  1.
         13    1    5    5    0    0  0.84417022498E+02 -0.15099915003E+03  0.19818095860E+03  0.26306400238E+03  0.00000000000E+00 0. -1.
        -13    1    5    5    0    0 -0.22071851068E+02 -0.60150304666E+02  0.79945465191E+02  0.10245244343E+03  0.00000000000E+00 0.  1.
          3    1    6    6  503    0  0.60602462531E+02  0.82066166070E+01  0.63469933997E+03  0.63763881562E+03  0.00000000000E+00 0. -1.
         -3    1    6    6    0  503  0.27103428134E+03 -0.32042333687E+02  0.15063041018E+04  0.15308292981E+04  0.00000000000E+00 0.  1.
<mgrwt>
<rscale>  0 0.51662737E+03</rscale>
<asrwt>0</asrwt>
<pdfrwt beam="1">  1        1 0.56316176E+00 0.51662737E+03</pdfrwt>
<pdfrwt beam="2">  1       -1 0.15936563E-01 0.51662737E+03</pdfrwt>
<totfact> 0.63134534E+00</totfact>
</mgrwt>
</event>
<event>
12    1  0.1338445E-007  0.1095994E+04  0.7818608E-02  0.9209106E-01
         -2   -1    0    0    0  501 -0.00000000000E+00  0.00000000000E+00  0.10123005063E+04  0.10123005063E+04  0.00000000000E+00 0.  1.
          2   -1    0    0  501    0  0.00000000000E+00 -0.00000000000E+00 -0.15580161087E+04  0.15580161087E+04  0.00000000000E+00 0. -1.
         23    2    1    2    0    0 -0.10110034355E+04  0.23301584035E+03 -0.83813696111E+03  0.13367625569E+04  0.89645074689E+02 0.  0.
    5000000    2    1    2    0    0  0.10110034355E+04 -0.23301584035E+03  0.29242135867E+03  0.12335540581E+04  0.59976748387E+03 0.  0.
         23    2    4    4    0    0  0.90045375939E+03 -0.34909265412E+03  0.11407034001E+03  0.97677913728E+03  0.91666714824E+02 0.  0.
         23    2    4    4    0    0  0.11054967614E+03  0.11607681377E+03  0.17835101866E+03  0.25677492080E+03  0.91810764654E+02 0.  0.
          1    1    3    3  502    0 -0.33678094199E+03  0.11341938022E+03 -0.25549498236E+03  0.43767915727E+03  0.00000000000E+00 0. -1.
         -1    1    3    3    0  502 -0.67422249353E+03  0.11959646013E+03 -0.58264197875E+03  0.89908339962E+03  0.00000000000E+00 0.  1.
         11    1    5    5    0    0  0.77288705599E+02 -0.51913831090E+02 -0.65709456965E+01  0.93336848024E+02  0.00000000000E+00 0.  1.
        -11    1    5    5    0    0  0.82316505379E+03 -0.29717882303E+03  0.12064128571E+03  0.88344228926E+03  0.00000000000E+00 0. -1.
          1    1    6    6  503    0  0.95831117603E+02  0.36296125017E+02  0.11347769891E+03  0.15289931308E+03  0.00000000000E+00 0. -1.
         -1    1    6    6    0  503  0.14718558534E+02  0.79780688748E+02  0.64873319757E+02  0.10387560772E+03  0.00000000000E+00 0.  1.
<mgrwt>
<rscale>  0 0.10959935E+04</rscale>
<asrwt>0</asrwt>
<pdfrwt beam="1">  1        2 0.23969479E+00 0.10959935E+04</pdfrwt>
<pdfrwt beam="2">  1       -2 0.15573854E+00 0.10959935E+04</pdfrwt>
<totfact> 0.31339913E+00</totfact>
</mgrwt>
</event>
<event>
12    1  0.1338445E-007  0.6204088E+03  0.7818608E-02  0.9863946E-01
          1   -1    0    0  501    0  0.00000000000E+00  0.00000000000E+00  0.13508624838E+04  0.13508624838E+04  0.00000000000E+00 0. -1.
         -1   -1    0    0    0  501 -0.00000000000E+00 -0.00000000000E+00 -0.30449030064E+03  0.30449030064E+03  0.00000000000E+00 0.  1.
         23    2    1    2    0    0  0.44020102741E+02  0.49305170502E+03  0.44996917164E+03  0.67513294417E+03  0.91074055640E+02 0.  0.
    5000000    2    1    2    0    0 -0.44020102741E+02 -0.49305170502E+03  0.59640301152E+03  0.98021984026E+03  0.60008051946E+03 0.  0.
         23    2    4    4    0    0 -0.26067915167E+03 -0.44534840696E+03  0.32132361070E+03  0.61463044379E+03  0.90735307022E+02 0.  0.
         23    2    4    4    0    0  0.21665904893E+03 -0.47703298056E+02  0.27507940082E+03  0.36558939647E+03  0.93649249488E+02 0.  0.
          2    1    3    3  502    0  0.96985369510E+01  0.18457706848E+03  0.11131851168E+03  0.21576507333E+03  0.00000000000E+00 0. -1.
         -2    1    3    3    0  502  0.34321565790E+02  0.30847463654E+03  0.33865065996E+03  0.45936787083E+03  0.00000000000E+00 0.  1.
         13    1    5    5    0    0 -0.21096579178E+03 -0.27704405158E+03  0.20498534333E+03  0.40407791674E+03  0.00000000000E+00 0.  1.
        -13    1    5    5    0    0 -0.49713359891E+02 -0.16830435538E+03  0.11633826737E+03  0.21055252705E+03  0.00000000000E+00 0. -1.
          1    1    6    6  503    0  0.92641806126E+02 -0.22594551822E+02  0.50716293766E+02  0.10800537240E+03  0.00000000000E+00 0. -1.
         -1    1    6    6    0  503  0.12401724281E+03 -0.25108746233E+02  0.22436310705E+03  0.25758402407E+03  0.00000000000E+00 0.  1.
<mgrwt>
<rscale>  0 0.62040880E+03</rscale>
<asrwt>0</asrwt>
<pdfrwt beam="1">  1        1 0.20782499E+00 0.62040880E+03</pdfrwt>
<pdfrwt beam="2">  1       -1 0.46844662E-01 0.62040880E+03</pdfrwt>
<totfact> 0.39502190E+01</totfact>
</mgrwt>
</event>
<event>
12    1  0.1338445E-007  0.5215248E+03  0.7818608E-02  0.1008308E+00
         -2   -1    0    0    0  501 -0.00000000000E+00  0.00000000000E+00  0.12104699904E+03  0.12104699904E+03  0.00000000000E+00 0. -1.
          2   -1    0    0  501    0  0.00000000000E+00 -0.00000000000E+00 -0.31807740339E+04  0.31807740339E+04  0.00000000000E+00 0.  1.
         23    2    1    2    0    0  0.12530678553E+03 -0.44970327504E+03 -0.10281067159E+04  0.11327673006E+04  0.90683580641E+02 0.  0.
    5000000    2    1    2    0    0 -0.12530678553E+03  0.44970327504E+03 -0.20316203189E+04  0.21690537323E+04  0.59948156563E+03 0.  0.
         23    2    4    4    0    0 -0.13276032566E+03  0.13532220609E+02 -0.13167143327E+04  0.13266280746E+04  0.91635087198E+02 0.  0.
         23    2    4    4    0    0  0.74535401256E+01  0.43617105443E+03 -0.71490598616E+03  0.84242565774E+03  0.91047656725E+02 0.  0.
          2    1    3    3  502    0  0.20877979156E+02 -0.76743209523E+02 -0.10514735891E+03  0.13183845155E+03  0.00000000000E+00 0. -1.
         -2    1    3    3    0  502  0.10442880638E+03 -0.37296006552E+03 -0.92295935702E+03  0.10009288490E+04  0.00000000000E+00 0.  1.
         11    1    5    5    0    0 -0.48916227519E+02  0.24062359043E+02 -0.88760563891E+03  0.88927811435E+03  0.00000000000E+00 0. -1.
        -11    1    5    5    0    0 -0.83844098140E+02 -0.10530138434E+02 -0.42910869381E+03  0.43734996023E+03  0.00000000000E+00 0.  1.
          1    1    6    6  503    0  0.13912948584E+02  0.41012109326E+03 -0.70080318020E+03  0.81210712265E+03  0.00000000000E+00 0. -1.
         -1    1    6    6    0  503 -0.64594084584E+01  0.26049961165E+02 -0.14102805959E+02  0.30318535094E+02  0.00000000000E+00 0.  1.
<mgrwt>
<rscale>  0 0.52152475E+03</rscale>
<asrwt>0</asrwt>
<pdfrwt beam="1">  1        2 0.48934992E+00 0.52152475E+03</pdfrwt>
<pdfrwt beam="2">  1       -2 0.18622613E-01 0.52152475E+03</pdfrwt>
<totfact> 0.35809896E+01</totfact>
</mgrwt>
</event>
<event>
12    1  0.1338445E-007  0.4851344E+03  0.7818608E-02  0.1017734E+00
          1   -1    0    0  501    0  0.00000000000E+00  0.00000000000E+00  0.15864042707E+04  0.15864042707E+04  0.00000000000E+00 0. -1.
         -1   -1    0    0    0  501 -0.00000000000E+00 -0.00000000000E+00 -0.16182658387E+03  0.16182658387E+03  0.00000000000E+00 0.  1.
         23    2    1    2    0    0 -0.18348180656E+03  0.26152127006E+03  0.42954264383E+03  0.54333688250E+03  0.93000736476E+02 0.  0.
    5000000    2    1    2    0    0  0.18348180656E+03 -0.26152127006E+03  0.99503504302E+03  0.12048939721E+04  0.59967974713E+03 0.  0.
         23    2    4    4    0    0  0.32112860931E+03 -0.38705330677E+01  0.31283174955E+03  0.45704139813E+03  0.88795108774E+02 0.  0.
         23    2    4    4    0    0 -0.13764680275E+03 -0.25765073699E+03  0.68220329347E+03  0.74785257396E+03  0.92474829956E+02 0.  0.
          1    1    3    3  502    0 -0.45795231617E+02  0.13978565958E+03  0.16281223246E+03  0.21941981885E+03  0.00000000000E+00 0. -1.
         -1    1    3    3    0  502 -0.13768657494E+03  0.12173561048E+03  0.26673041137E+03  0.32391706365E+03  0.00000000000E+00 0.  1.
         13    1    5    5    0    0  0.10592025855E+03  0.40428612063E+02  0.10101212610E+03  0.15184539330E+03  0.00000000000E+00 0. -1.
        -13    1    5    5    0    0  0.21520835075E+03 -0.44299145130E+02  0.21181962344E+03  0.30519600484E+03  0.00000000000E+00 0.  1.
          1    1    6    6  503    0  0.88787581492E+01  0.10885396932E+01  0.16786641346E+02  0.19021266851E+02  0.00000000000E+00 0. -1.
         -1    1    6    6    0  503 -0.14652556090E+03 -0.25873927668E+03  0.66541665213E+03  0.72883130711E+03  0.00000000000E+00 0.  1.
<mgrwt>
<rscale>  0 0.48513435E+03</rscale>
<asrwt>0</asrwt>
<pdfrwt beam="1">  1        1 0.24406218E+00 0.48513435E+03</pdfrwt>
<pdfrwt beam="2">  1       -1 0.24896399E-01 0.48513435E+03</pdfrwt>
<totfact> 0.85105602E+01</totfact>
</mgrwt>
</event>
<event>
12    1  0.1338445E-007  0.1862087E+04  0.7818608E-02  0.8673962E-01
          2   -1    0    0  501    0  0.00000000000E+00  0.00000000000E+00  0.43979697617E+04  0.43979697617E+04  0.00000000000E+00 0. -1.
         -2   -1    0    0    0  501 -0.00000000000E+00 -0.00000000000E+00 -0.13168686636E+04  0.13168686636E+04  0.00000000000E+00 0.  1.
         23    2    1    2    0    0 -0.18157461793E+04 -0.13516108516E+03  0.33152057180E+04  0.37834159986E+04  0.91896456957E+02 0.  0.
    5000000    2    1    2    0    0  0.18157461793E+04  0.13516108516E+03 -0.23410461996E+03  0.19314224268E+04  0.60032067326E+03 0.  0.
         23    2    4    4    0    0  0.45364640448E+03  0.27818812452E+03 -0.42069558215E+01  0.53953375869E+03  0.88855418371E+02 0.  0.
         23    2    4    4    0    0  0.13620997749E+04 -0.14302703936E+03 -0.22989766414E+03  0.13918886681E+04  0.93426964104E+02 0.  0.
          2    1    3    3  502    0 -0.87626089253E+03 -0.10203685216E+03  0.16622673452E+04  0.18818547760E+04  0.00000000000E+00 0.  1.
         -2    1    3    3    0  502 -0.93948528681E+03 -0.33124232996E+02  0.16529383728E+04  0.19015612226E+04  0.00000000000E+00 0. -1.
         11    1    5    5    0    0  0.24479497006E+03  0.14264423364E+03  0.41643543431E+02  0.28636714104E+03  0.00000000000E+00 0. -1.
        -11    1    5    5    0    0  0.20885143442E+03  0.13554389088E+03 -0.45850499252E+02  0.25316661765E+03  0.00000000000E+00 0.  1.
          1    1    6    6  503    0  0.69583776730E+03 -0.77758314480E+02 -0.16463025831E+03  0.71926328686E+03  0.00000000000E+00 0. -1.
         -1    1    6    6    0  503  0.66626200757E+03 -0.65268724878E+02 -0.65267405830E+02  0.67262538120E+03  0.00000000000E+00 0.  1.
<mgrwt>
<rscale>  0 0.18620871E+04</rscale>
<asrwt>0</asrwt>
<pdfrwt beam="1">  1        2 0.67661073E+00 0.18620871E+04</pdfrwt>
<pdfrwt beam="2">  1       -2 0.20259518E+00 0.18620871E+04</pdfrwt>
<totfact> 0.18022607E-02</totfact>
</mgrwt>
</event>
<event>
12    1  0.1338445E-007  0.7880111E+03  0.7818608E-02  0.9577535E-01
         -1   -1    0    0    0  501 -0.00000000000E+00  0.00000000000E+00  0.13139367369E+04  0.13139367369E+04  0.00000000000E+00 0.  1.
          1   -1    0    0  501    0  0.00000000000E+00 -0.00000000000E+00 -0.10963115111E+04  0.10963115111E+04  0.00000000000E+00 0. -1.
         23    2    1    2    0    0 -0.67135954017E+03 -0.15991168575E+03 -0.78741520884E+03  0.10513931923E+04  0.95443985520E+02 0.  0.
    5000000    2    1    2    0    0  0.67135954017E+03  0.15991168575E+03  0.10050404346E+04  0.13588550557E+04  0.60007116885E+03 0.  0.
         23    2    4    4    0    0 -0.71637145666E+02  0.11407172686E+03  0.15567296256E+03  0.22564689576E+03  0.92402439279E+02 0.  0.
         23    2    4    4    0    0  0.74299668584E+03  0.45839958888E+02  0.84936747208E+03  0.11332081599E+04  0.92683623694E+02 0.  0.
          3    1    3    3  502    0 -0.56288128902E+03 -0.15707063395E+03 -0.70124484621E+03  0.91282575769E+03  0.00000000000E+00 0. -1.
         -3    1    3    3    0  502 -0.10847825115E+03 -0.28410518018E+01 -0.86170362625E+02  0.13856743464E+03  0.00000000000E+00 0.  1.
         11    1    5    5    0    0 -0.59603124070E+02  0.78438934156E+02  0.44155160908E+02  0.10795775574E+03  0.00000000000E+00 0.  1.
        -11    1    5    5    0    0 -0.12034021597E+02  0.35632792704E+02  0.11151780166E+03  0.11768914002E+03  0.00000000000E+00 0. -1.
          2    1    6    6  503    0  0.18336741052E+03  0.38255267065E+02  0.25987301031E+03  0.32034521097E+03  0.00000000000E+00 0. -1.
         -2    1    6    6    0  503  0.55962927531E+03  0.75846918227E+01  0.58949446177E+03  0.81286294896E+03  0.00000000000E+00 0.  1.
<mgrwt>
<rscale>  0 0.78801107E+03</rscale>
<asrwt>0</asrwt>
<pdfrwt beam="1">  1        1 0.16866331E+00 0.78801107E+03</pdfrwt>
<pdfrwt beam="2">  1       -1 0.20214411E+00 0.78801107E+03</pdfrwt>
<totfact> 0.19262289E+00</totfact>
</mgrwt>
</event>
<event>
12    1  0.1338445E-007  0.3872884E+03  0.7818608E-02  0.1048272E+00
         -1   -1    0    0    0  501 -0.00000000000E+00  0.00000000000E+00  0.46406648244E+03  0.46406648244E+03  0.00000000000E+00 0.  1.
          1   -1    0    0  501    0  0.00000000000E+00 -0.00000000000E+00 -0.72662692515E+03  0.72662692515E+03  0.00000000000E+00 0. -1.
         23    2    1    2    0    0 -0.11039338656E+03  0.28976938818E+03  0.19257910621E+03  0.37637470928E+03  0.91750812074E+02 0.  0.
    5000000    2    1    2    0    0  0.11039338656E+03 -0.28976938818E+03 -0.45513954892E+03  0.81431869831E+03  0.59984159185E+03 0.  0.
         23    2    4    4    0    0  0.95017702587E+02  0.30728508811E+02  0.98641276138E+02  0.16793087311E+03  0.92184986445E+02 0.  0.
         23    2    4    4    0    0  0.15375683972E+02 -0.32049789699E+03 -0.55378082505E+03  0.64638782520E+03  0.90491462242E+02 0.  0.
          3    1    3    3  502    0 -0.56290436372E+02  0.13932802743E+03  0.40290350347E+02  0.15557707024E+03  0.00000000000E+00 0. -1.
         -3    1    3    3    0  502 -0.54102950188E+02  0.15044136075E+03  0.15228875586E+03  0.22079763904E+03  0.00000000000E+00 0.  1.
         11    1    5    5    0    0 -0.31878586902E+01  0.36852889075E+02  0.33668132816E+02  0.50018407047E+02  0.00000000000E+00 0.  1.
        -11    1    5    5    0    0  0.98205561278E+02 -0.61243802637E+01  0.64973143323E+02  0.11791246606E+03  0.00000000000E+00 0. -1.
          1    1    6    6  503    0 -0.28514519550E+02 -0.16616948692E+03 -0.23162947151E+03  0.28649186425E+03  0.00000000000E+00 0. -1.
         -1    1    6    6    0  503  0.43890203523E+02 -0.15432841007E+03 -0.32215135354E+03  0.35989596095E+03  0.00000000000E+00 0.  1.
<mgrwt>
<rscale>  0 0.38728842E+03</rscale>
<asrwt>0</asrwt>
<pdfrwt beam="1">  1        1 0.11178876E+00 0.38728842E+03</pdfrwt>
<pdfrwt beam="2">  1       -1 0.71394844E-01 0.38728842E+03</pdfrwt>
<totfact> 0.54472885E+01</totfact>
</mgrwt>
</event>
<event>
12    1  0.1338445E-007  0.6137687E+03  0.7818608E-02  0.9877245E-01
         -1   -1    0    0    0  501 -0.00000000000E+00  0.00000000000E+00  0.37250432583E+03  0.37250432583E+03  0.00000000000E+00 0.  1.
          1   -1    0    0  501    0  0.00000000000E+00 -0.00000000000E+00 -0.13717151657E+04  0.13717151657E+04  0.00000000000E+00 0. -1.
         23    2    1    2    0    0  0.54967505984E+03  0.18178979578E+03 -0.31604014679E+03  0.66636140573E+03  0.94688686788E+02 0.  0.
    5000000    2    1    2    0    0 -0.54967505984E+03 -0.18178979578E+03 -0.68317069305E+03  0.10778580858E+04  0.59988803618E+03 0.  0.
         23    2    4    4    0    0 -0.38074868809E+03  0.32486248983E+01 -0.55186937855E+02  0.39556841892E+03  0.91916586569E+02 0.  0.
         23    2    4    4    0    0 -0.16892637174E+03 -0.18503842068E+03 -0.62798375520E+03  0.68228966685E+03  0.91543740905E+02 0.  0.
          3    1    3    3  502    0  0.39785847243E+03  0.95774225251E+02 -0.19043168005E+03  0.45136270457E+03  0.00000000000E+00 0. -1.
         -3    1    3    3    0  502  0.15181658741E+03  0.86015570527E+02 -0.12560846674E+03  0.21499870116E+03  0.00000000000E+00 0.  1.
         13    1    5    5    0    0 -0.38051825969E+03  0.10960040473E+02 -0.61484732617E+02  0.38560944074E+03  0.00000000000E+00 0.  1.
        -13    1    5    5    0    0 -0.23042840261E+00 -0.77114155752E+01  0.62977947613E+01  0.99589781744E+01  0.00000000000E+00 0. -1.
          3    1    6    6  503    0 -0.60375622701E+01  0.29255658764E+01  0.14353835174E+00  0.67105660805E+01  0.00000000000E+00 0. -1.
         -3    1    6    6    0  503 -0.16288880947E+03 -0.18796398655E+03 -0.62812729355E+03  0.67557910077E+03  0.00000000000E+00 0.  1.
<mgrwt>
<rscale>  0 0.61376872E+03</rscale>
<asrwt>0</asrwt>
<pdfrwt beam="1">  1        1 0.21103310E+00 0.61376872E+03</pdfrwt>
<pdfrwt beam="2">  1       -1 0.57308358E-01 0.61376872E+03</pdfrwt>
<totfact> 0.26065293E+01</totfact>
</mgrwt>
</event>
<event>
12    1  0.1338445E-007  0.6734395E+03  0.7818608E-02  0.9763764E-01
         -2   -1    0    0    0  501 -0.00000000000E+00  0.00000000000E+00  0.29745894223E+03  0.29745894223E+03  0.00000000000E+00 0.  1.
          2   -1    0    0  501    0  0.00000000000E+00 -0.00000000000E+00 -0.19403588280E+04  0.19403588280E+04  0.00000000000E+00 0. -1.
         23    2    1    2    0    0  0.41813333478E+03 -0.35303236714E+03 -0.21461603121E+03  0.59481261029E+03  0.90965172499E+02 0.  0.
    5000000    2    1    2    0    0 -0.41813333478E+03  0.35303236714E+03 -0.14282838545E+04  0.16430051599E+04  0.60000320705E+03 0.  0.
         23    2    4    4    0    0 -0.53425302531E+03  0.16029780274E+03 -0.10693036989E+04  0.12095739615E+04  0.92396359401E+02 0.  0.
         23    2    4    4    0    0  0.11611969052E+03  0.19273456440E+03 -0.35898015567E+03  0.43343119845E+03  0.91462871063E+02 0.  0.
          1    1    3    3  502    0  0.26095551739E+03 -0.19482034993E+03 -0.17007064378E+03  0.36739185440E+03  0.00000000000E+00 0. -1.
         -1    1    3    3    0  502  0.15717781739E+03 -0.15821201721E+03 -0.44545387425E+02  0.22742075589E+03  0.00000000000E+00 0.  1.
         11    1    5    5    0    0 -0.40056913656E+03  0.77673223352E+02 -0.75750859554E+03  0.86041154985E+03  0.00000000000E+00 0. -1.
        -11    1    5    5    0    0 -0.13368388874E+03  0.82624579384E+02 -0.31179510331E+03  0.34916241161E+03  0.00000000000E+00 0.  1.
          2    1    6    6  503    0  0.49136112621E+02  0.31349258424E+02 -0.43265711852E+02  0.72588259307E+02  0.00000000000E+00 0. -1.
         -2    1    6    6    0  503  0.66983577903E+02  0.16138530598E+03 -0.31571444382E+03  0.36084293915E+03  0.00000000000E+00 0.  1.
<mgrwt>
<rscale>  0 0.67343947E+03</rscale>
<asrwt>0</asrwt>
<pdfrwt beam="1">  1        2 0.29851674E+00 0.67343947E+03</pdfrwt>
<pdfrwt beam="2">  1       -2 0.45762914E-01 0.67343947E+03</pdfrwt>
<totfact> 0.34005723E+01</totfact>
</mgrwt>
</event>
<event>
12    1  0.1338445E-007  0.6425786E+03  0.7818608E-02  0.9820805E-01
          2   -1    0    0  501    0  0.00000000000E+00  0.00000000000E+00  0.11640348030E+04  0.11640348030E+04  0.00000000000E+00 0. -1.
         -2   -1    0    0    0  501 -0.00000000000E+00 -0.00000000000E+00 -0.37550147635E+03  0.37550147635E+03  0.00000000000E+00 0.  1.
         23    2    1    2    0    0 -0.19886784974E+03 -0.46384371866E+03  0.17037483877E+03  0.54109052476E+03  0.95141753670E+02 0.  0.
    5000000    2    1    2    0    0  0.19886784974E+03  0.46384371866E+03  0.61815848786E+03  0.99844575458E+03  0.60006215654E+03 0.  0.
         23    2    4    4    0    0  0.32655629678E+03  0.51603546664E+03  0.50089597731E+03  0.79520309641E+03  0.92301498597E+02 0.  0.
         23    2    4    4    0    0 -0.12768844704E+03 -0.52191747981E+02  0.11726251055E+03  0.20324265817E+03  0.92351305643E+02 0.  0.
          1    1    3    3  502    0 -0.24419881145E+02 -0.13074740312E+03  0.76881020124E+02  0.15362911597E+03  0.00000000000E+00 0. -1.
         -1    1    3    3    0  502 -0.17444796859E+03 -0.33309631554E+03  0.93493818649E+02  0.38746140879E+03  0.00000000000E+00 0.  1.
         11    1    5    5    0    0  0.16267938961E+03  0.28245088366E+03  0.32340622893E+03  0.45916737078E+03  0.00000000000E+00 0. -1.
        -11    1    5    5    0    0  0.16387690717E+03  0.23358458299E+03  0.17748974839E+03  0.33603572562E+03  0.00000000000E+00 0.  1.
          1    1    6    6  503    0 -0.71399135273E+02  0.19200548418E+02  0.64572827642E+02  0.98163881581E+02  0.00000000000E+00 0. -1.
         -1    1    6    6    0  503 -0.56289311770E+02 -0.71392296399E+02  0.52689682910E+02  0.10507877659E+03  0.00000000000E+00 0.  1.
<mgrwt>
<rscale>  0 0.64257860E+03</rscale>
<asrwt>0</asrwt>
<pdfrwt beam="1">  1        2 0.17908228E+00 0.64257860E+03</pdfrwt>
<pdfrwt beam="2">  1       -2 0.57769458E-01 0.64257860E+03</pdfrwt>
<totfact> 0.57396469E+01</totfact>
</mgrwt>
</event>
<event>
12    1  0.1338445E-007  0.5463853E+03  0.7818608E-02  0.1002334E+00
          2   -1    0    0  501    0  0.00000000000E+00  0.00000000000E+00  0.38208426777E+03  0.38208426777E+03  0.00000000000E+00 0. -1.
         -2   -1    0    0    0  501 -0.00000000000E+00 -0.00000000000E+00 -0.84839930112E+03  0.84839930112E+03  0.00000000000E+00 0.  1.
         23    2    1    2    0    0 -0.43496914818E+01  0.38593225539E+03 -0.37784827074E+02  0.39828505225E+03  0.90778103778E+02 0.  0.
    5000000    2    1    2    0    0  0.43496914818E+01 -0.38593225539E+03 -0.42853020628E+03  0.83219851664E+03  0.59996133862E+03 0.  0.
         23    2    4    4    0    0  0.82226889521E+02  0.12319598527E+03 -0.35640698115E+02  0.17792631716E+03  0.91918457495E+02 0.  0.
         23    2    4    4    0    0 -0.77877198039E+02 -0.50912824066E+03 -0.39288950816E+03  0.65427219948E+03  0.91834209209E+02 0.  0.
          4    1    3    3  502    0  0.37104521778E+02  0.92041954880E+02 -0.17710866130E+02  0.10080744900E+03  0.00000000000E+00 0.  1.
         -4    1    3    3    0  502 -0.41454213259E+02  0.29389030051E+03 -0.20073960944E+02  0.29747760325E+03  0.00000000000E+00 0. -1.
         13    1    5    5    0    0  0.55822760678E+02  0.91944772915E+01 -0.40596838101E+01  0.56720367197E+02  0.00000000000E+00 0.  1.
        -13    1    5    5    0    0  0.26404128843E+02  0.11400150798E+03 -0.31581014305E+02  0.12120594996E+03  0.00000000000E+00 0. -1.
          4    1    6    6  503    0 -0.99064441786E+02 -0.41793476661E+03 -0.31963907163E+03  0.53539926119E+03  0.00000000000E+00 0. -1.
         -4    1    6    6    0  503  0.21187243747E+02 -0.91193474044E+02 -0.73250436535E+02  0.11887293829E+03  0.00000000000E+00 0.  1.
<mgrwt>
<rscale>  0 0.54638534E+03</rscale>
<asrwt>0</asrwt>
<pdfrwt beam="1">  1        2 0.58782196E-01 0.54638534E+03</pdfrwt>
<pdfrwt beam="2">  1       -2 0.13052297E+00 0.54638534E+03</pdfrwt>
<totfact> 0.37011906E+01</totfact>
</mgrwt>
</event>
<event>
12    1  0.1338445E-007  0.8291831E+03  0.7818608E-02  0.9518711E-01
         -1   -1    0    0    0  501 -0.00000000000E+00  0.00000000000E+00  0.10045810224E+04  0.10045810224E+04  0.00000000000E+00 0.  1.
          1   -1    0    0  501    0  0.00000000000E+00 -0.00000000000E+00 -0.12264440454E+04  0.12264440454E+04  0.00000000000E+00 0. -1.
         23    2    1    2    0    0 -0.24381465642E+03 -0.70343494299E+03  0.60745988673E+03  0.96533126958E+03  0.92685707213E+02 0.  0.
    5000000    2    1    2    0    0  0.24381465642E+03  0.70343494299E+03 -0.82932290967E+03  0.12656937982E+04  0.59994832834E+03 0.  0.
         23    2    4    4    0    0  0.20980857253E+03  0.10436351069E+02 -0.85673541672E+02  0.24445225549E+03  0.91040622472E+02 0.  0.
         23    2    4    4    0    0  0.34006083888E+02  0.69299859193E+03 -0.74364936800E+03  0.10212415427E+04  0.92284581375E+02 0.  0.
          3    1    3    3  502    0 -0.10170439639E+03 -0.33225067120E+03  0.22643147354E+03  0.41473546385E+03  0.00000000000E+00 0. -1.
         -3    1    3    3    0  502 -0.14211026002E+03 -0.37118427179E+03  0.38102841319E+03  0.55059580573E+03  0.00000000000E+00 0.  1.
         13    1    5    5    0    0  0.11822845175E+03 -0.25699592103E+02 -0.81564211562E+02  0.14591489453E+03  0.00000000000E+00 0. -1.
        -13    1    5    5    0    0  0.91580120782E+02  0.36135943172E+02 -0.41093301103E+01  0.98537360962E+02  0.00000000000E+00 0.  1.
          3    1    6    6  503    0  0.35391348771E+02  0.63671957400E+03 -0.71503210875E+03  0.95808939041E+03  0.00000000000E+00 0. -1.
         -3    1    6    6    0  503 -0.13852648831E+01  0.56279017928E+02 -0.28617259249E+02  0.63152152336E+02  0.00000000000E+00 0.  1.
<mgrwt>
<rscale>  0 0.82918310E+03</rscale>
<asrwt>0</asrwt>
<pdfrwt beam="1">  1        1 0.18868370E+00 0.82918310E+03</pdfrwt>
<pdfrwt beam="2">  1       -1 0.15455093E+00 0.82918310E+03</pdfrwt>
<totfact> 0.33787521E+00</totfact>
</mgrwt>
</event>
<event>
12    1  0.1338445E-007  0.1747873E+04  0.7818608E-02  0.8734522E-01
          2   -1    0    0  501    0  0.00000000000E+00  0.00000000000E+00  0.41147133836E+04  0.41147133836E+04  0.00000000000E+00 0.  1.
         -2   -1    0    0    0  501 -0.00000000000E+00 -0.00000000000E+00 -0.79483759923E+03  0.79483759923E+03  0.00000000000E+00 0. -1.
         23    2    1    2    0    0 -0.91135169823E+02  0.17072388728E+04  0.21684895415E+04  0.27628899251E+04  0.90794596408E+02 0.  0.
    5000000    2    1    2    0    0  0.91135169823E+02 -0.17072388728E+04  0.11513862428E+04  0.21466610577E+04  0.59957754151E+03 0.  0.
         23    2    4    4    0    0  0.22298769049E+03 -0.15920430643E+04  0.97739905068E+03  0.18837910399E+04  0.95053400662E+02 0.  0.
         23    2    4    4    0    0 -0.13185252067E+03 -0.11519580852E+03  0.17398719216E+03  0.26287001779E+03  0.90409854046E+02 0.  0.
          4    1    3    3  502    0 -0.10541159697E+03  0.13991785878E+04  0.17505450996E+04  0.22434840029E+04  0.00000000000E+00 0.  1.
         -4    1    3    3    0  502  0.14276427142E+02  0.30806028503E+03  0.41794444188E+03  0.51940592226E+03  0.00000000000E+00 0. -1.
         13    1    5    5    0    0  0.17324797179E+03 -0.10419634941E+04  0.68373304146E+03  0.12582502353E+04  0.00000000000E+00 0.  1.
        -13    1    5    5    0    0  0.49739718709E+02 -0.55007957023E+03  0.29366600923E+03  0.62554080456E+03  0.00000000000E+00 0. -1.
          2    1    6    6  503    0 -0.12353344771E+03 -0.11187430073E+03  0.11330474205E+03  0.20152998893E+03  0.00000000000E+00 0. -1.
         -2    1    6    6    0  503 -0.83190729656E+01 -0.33215077823E+01  0.60682450109E+02  0.61340028857E+02  0.00000000000E+00 0.  1.
<mgrwt>
<rscale>  0 0.17478734E+04</rscale>
<asrwt>0</asrwt>
<pdfrwt beam="1">  1        2 0.63303282E+00 0.17478734E+04</pdfrwt>
<pdfrwt beam="2">  1       -2 0.12228271E+00 0.17478734E+04</pdfrwt>
<totfact> 0.13069110E-01</totfact>
</mgrwt>
</event>
<event>
12    1  0.1338445E-007  0.4517026E+03  0.7818608E-02  0.1027216E+00
          2   -1    0    0  501    0  0.00000000000E+00  0.00000000000E+00  0.27421034810E+04  0.27421034810E+04  0.00000000000E+00 0. -1.
         -2   -1    0    0    0  501 -0.00000000000E+00 -0.00000000000E+00 -0.11045402490E+03  0.11045402490E+03  0.00000000000E+00 0.  1.
         23    2    1    2    0    0 -0.30103586039E+03 -0.17194506328E+03  0.13379262278E+04  0.13849399813E+04  0.88456015177E+02 0.  0.
    5000000    2    1    2    0    0  0.30103586039E+03  0.17194506328E+03  0.12937232283E+04  0.14676175247E+04  0.59999476095E+03 0.  0.
         23    2    4    4    0    0  0.37246573511E+03  0.21964620596E+02  0.11950462582E+04  0.12552875075E+04  0.91640595485E+02 0.  0.
         23    2    4    4    0    0 -0.71429874711E+02  0.14998044269E+03  0.98676970080E+02  0.21233001717E+03  0.88037103422E+02 0.  0.
          3    1    3    3  502    0 -0.15726024036E+03 -0.53594558380E+02  0.51205132032E+03  0.53833048820E+03  0.00000000000E+00 0. -1.
         -3    1    3    3    0  502 -0.14377562003E+03 -0.11835050490E+03  0.82587490748E+03  0.84660949306E+03  0.00000000000E+00 0.  1.
         13    1    5    5    0    0  0.24559441213E+03 -0.28366842631E+02  0.79970187529E+03  0.83704503007E+03  0.00000000000E+00 0. -1.
        -13    1    5    5    0    0  0.12687132298E+03  0.50331463227E+02  0.39534438295E+03  0.41824247741E+03  0.00000000000E+00 0.  1.
          2    1    6    6  503    0 -0.60763815710E+02  0.10709121749E+03  0.11171030830E+03  0.16625270868E+03  0.00000000000E+00 0.  1.
         -2    1    6    6    0  503 -0.10666059001E+02  0.42889225197E+02 -0.13033338222E+02  0.46077308492E+02  0.00000000000E+00 0. -1.
<mgrwt>
<rscale>  0 0.45170257E+03</rscale>
<asrwt>0</asrwt>
<pdfrwt beam="1">  1        2 0.42186202E+00 0.45170257E+03</pdfrwt>
<pdfrwt beam="2">  1       -2 0.16992929E-01 0.45170257E+03</pdfrwt>
<totfact> 0.78034008E+01</totfact>
</mgrwt>
</event>
<event>
12    1  0.1338445E-007  0.1486662E+04  0.7818608E-02  0.8893371E-01
          1   -1    0    0  501    0  0.00000000000E+00  0.00000000000E+00  0.15267489603E+04  0.15267489603E+04  0.00000000000E+00 0. -1.
         -1   -1    0    0    0  501 -0.00000000000E+00 -0.00000000000E+00 -0.14521637312E+04  0.14521637312E+04  0.00000000000E+00 0.  1.
         23    2    1    2    0    0  0.14214837741E+04 -0.12654809184E+03  0.36556306074E+02  0.14303381792E+04  0.88884215367E+02 0.  0.
    5000000    2    1    2    0    0 -0.14214837741E+04  0.12654809184E+03  0.38028923042E+02  0.15485745123E+04  0.60000523446E+03 0.  0.
         23    2    4    4    0    0 -0.88587762393E+02 -0.13719774345E+03 -0.11248013386E+02  0.18581966776E+03  0.87928486098E+02 0.  0.
         23    2    4    4    0    0 -0.13328960117E+04  0.26374583528E+03  0.49276936427E+02  0.13627548445E+04  0.92189511460E+02 0.  0.
          1    1    3    3  502    0  0.12053582999E+04 -0.75041824523E+02  0.30307659890E+02  0.12080722084E+04  0.00000000000E+00 0. -1.
         -1    1    3    3    0  502  0.21612547426E+03 -0.51506267315E+02  0.62486461846E+01  0.22226597080E+03  0.00000000000E+00 0.  1.
         13    1    5    5    0    0 -0.62287881553E+01 -0.88350005524E+02  0.49336069537E+01  0.88706604915E+02  0.00000000000E+00 0. -1.
        -13    1    5    5    0    0 -0.82358974238E+02 -0.48847737922E+02 -0.16181620339E+02  0.97113062841E+02  0.00000000000E+00 0.  1.
          3    1    6    6  503    0 -0.13144281918E+04  0.26391497467E+03  0.58850685705E+02  0.13419523048E+04  0.00000000000E+00 0. -1.
         -3    1    6    6    0  503 -0.18467819947E+02 -0.16913938608E+00 -0.95737492779E+01  0.20802539676E+02  0.00000000000E+00 0.  1.
<mgrwt>
<rscale>  0 0.14866623E+04</rscale>
<asrwt>0</asrwt>
<pdfrwt beam="1">  1        1 0.23488446E+00 0.14866623E+04</pdfrwt>
<pdfrwt beam="2">  1       -1 0.22340980E+00 0.14866623E+04</pdfrwt>
<totfact> 0.62030599E-01</totfact>
</mgrwt>
</event>
<event>
12    1  0.1338445E-007  0.5029035E+03  0.7818608E-02  0.1013024E+00
         -1   -1    0    0    0  501 -0.00000000000E+00  0.00000000000E+00  0.35732457565E+03  0.35732457565E+03  0.00000000000E+00 0.  1.
          1   -1    0    0  501    0  0.00000000000E+00 -0.00000000000E+00 -0.12075612235E+04  0.12075612235E+04  0.00000000000E+00 0. -1.
         23    2    1    2    0    0 -0.45859678891E+02 -0.37166990467E+03 -0.75962440065E+03  0.85182267524E+03  0.91274376528E+02 0.  0.
    5000000    2    1    2    0    0  0.45859678891E+02  0.37166990467E+03 -0.90612247157E+02  0.71306312387E+03  0.60000567590E+03 0.  0.
         23    2    4    4    0    0  0.54005274411E+02 -0.10319279856E+03 -0.16799470639E+03  0.22333157479E+03  0.89941356364E+02 0.  0.
         23    2    4    4    0    0 -0.81455955206E+01  0.47486270323E+03  0.77382459235E+02  0.48973154908E+03  0.91038494741E+02 0.  0.
          3    1    3    3  502    0 -0.22139244422E+02 -0.75726273357E+02 -0.24854319470E+03  0.26076490227E+03  0.00000000000E+00 0. -1.
         -3    1    3    3    0  502 -0.23720434469E+02 -0.29594363131E+03 -0.51108120595E+03  0.59105777298E+03  0.00000000000E+00 0.  1.
         13    1    5    5    0    0  0.96573717568E+01 -0.10219497791E+03 -0.11266791716E+03  0.15241764300E+03  0.00000000000E+00 0. -1.
        -13    1    5    5    0    0  0.44347902654E+02 -0.99782064812E+00 -0.55326789228E+02  0.70913931792E+02  0.00000000000E+00 0.  1.
          4    1    6    6  503    0 -0.26473941113E+02  0.41287655976E+02  0.15129729258E+02  0.51326881860E+02  0.00000000000E+00 0. -1.
         -4    1    6    6    0  503  0.18328345592E+02  0.43357504725E+03  0.62252729977E+02  0.43840466722E+03  0.00000000000E+00 0.  1.
<mgrwt>
<rscale>  0 0.50290346E+03</rscale>
<asrwt>0</asrwt>
<pdfrwt beam="1">  1        1 0.18577865E+00 0.50290346E+03</pdfrwt>
<pdfrwt beam="2">  1       -1 0.54973012E-01 0.50290346E+03</pdfrwt>
<totfact> 0.37495685E+01</totfact>
</mgrwt>
</event>
<event>
12    1  0.1338445E-007  0.5878282E+03  0.7818608E-02  0.9930985E-01
         -2   -1    0    0    0  501 -0.00000000000E+00  0.00000000000E+00  0.27662967864E+03  0.27662967864E+03  0.00000000000E+00 0. -1.
          2   -1    0    0  501    0  0.00000000000E+00 -0.00000000000E+00 -0.20933560530E+04  0.20933560530E+04  0.00000000000E+00 0.  1.
         23    2    1    2    0    0 -0.13648953241E+03  0.43415404011E+03 -0.72347165699E+02  0.46998114455E+03  0.92352806385E+02 0.  0.
    5000000    2    1    2    0    0  0.13648953241E+03 -0.43415404011E+03 -0.17443792087E+04  0.19000045871E+04  0.60003290272E+03 0.  0.
         23    2    4    4    0    0 -0.90496652934E+02 -0.47475468071E+03 -0.13162089004E+04  0.14051536596E+04  0.92028727038E+02 0.  0.
         23    2    4    4    0    0  0.22698618534E+03  0.40600640602E+02 -0.42817030833E+03  0.49485092753E+03  0.91523151113E+02 0.  0.
          1    1    3    3  502    0 -0.95185753426E+02  0.36873220032E+03 -0.88443191737E+02  0.39095519100E+03  0.00000000000E+00 0. -1.
         -1    1    3    3    0  502 -0.41303778984E+02  0.65421839791E+02  0.16096026037E+02  0.79025953548E+02  0.00000000000E+00 0.  1.
         13    1    5    5    0    0 -0.46160832407E+02 -0.37075612759E+03 -0.10902317844E+04  0.11524739790E+04  0.00000000000E+00 0. -1.
        -13    1    5    5    0    0 -0.44335820527E+02 -0.10399855312E+03 -0.22597711596E+03  0.25267968057E+03  0.00000000000E+00 0.  1.
          4    1    6    6  503    0  0.12489618537E+03  0.27251820688E+02 -0.32435937629E+03  0.34864125378E+03  0.00000000000E+00 0. -1.
         -4    1    6    6    0  503  0.10208999997E+03  0.13348819915E+02 -0.10381093204E+03  0.14620967376E+03  0.00000000000E+00 0.  1.
<mgrwt>
<rscale>  0 0.58782818E+03</rscale>
<asrwt>0</asrwt>
<pdfrwt beam="1">  1        2 0.32205478E+00 0.58782818E+03</pdfrwt>
<pdfrwt beam="2">  1       -2 0.42558412E-01 0.58782818E+03</pdfrwt>
<totfact> 0.32859429E+01</totfact>
</mgrwt>
</event>
<event>
12    1  0.1338445E-007  0.8860285E+03  0.7818608E-02  0.9443217E-01
          1   -1    0    0  501    0  0.00000000000E+00  0.00000000000E+00  0.19280154787E+04  0.19280154787E+04  0.00000000000E+00 0. -1.
         -1   -1    0    0    0  501 -0.00000000000E+00 -0.00000000000E+00 -0.42570807432E+03  0.42570807432E+03  0.00000000000E+00 0.  1.
         23    2    1    2    0    0 -0.45232133967E+03 -0.66133741176E+03  0.75478294370E+03  0.11044142286E+04  0.89842805012E+02 0.  0.
    5000000    2    1    2    0    0  0.45232133967E+03  0.66133741176E+03  0.74752446066E+03  0.12493093244E+04  0.60001600174E+03 0.  0.
         23    2    4    4    0    0 -0.11484527396E+03  0.54879573357E+02  0.18338910330E+03  0.24140072612E+03  0.91877869153E+02 0.  0.
         23    2    4    4    0    0  0.56716661363E+03  0.60645783840E+03  0.56413535736E+03  0.10079085983E+04  0.90343587312E+02 0.  0.
          3    1    3    3  502    0 -0.32974722635E+03 -0.41893377830E+03  0.46800305406E+03  0.70941215277E+03  0.00000000000E+00 0. -1.
         -3    1    3    3    0  502 -0.12257411332E+03 -0.24240363346E+03  0.28677988964E+03  0.39500207579E+03  0.00000000000E+00 0.  1.
         13    1    5    5    0    0 -0.44814735124E+02  0.43902287678E+02  0.15090560835E+03  0.16342666239E+03  0.00000000000E+00 0. -1.
        -13    1    5    5    0    0 -0.70030538841E+02  0.10977285678E+02  0.32483494946E+02  0.77974063733E+02  0.00000000000E+00 0.  1.
          4    1    6    6  503    0  0.22503246202E+03  0.29469712879E+03  0.22023583793E+03  0.43126538348E+03  0.00000000000E+00 0. -1.
         -4    1    6    6    0  503  0.34213415161E+03  0.31176070961E+03  0.34389951943E+03  0.57664321484E+03  0.00000000000E+00 0.  1.
<mgrwt>
<rscale>  0 0.88602846E+03</rscale>
<asrwt>0</asrwt>
<pdfrwt beam="1">  1        1 0.29661776E+00 0.88602846E+03</pdfrwt>
<pdfrwt beam="2">  1       -1 0.65493551E-01 0.88602846E+03</pdfrwt>
<totfact> 0.80791371E+00</totfact>
</mgrwt>
</event>
<event>
12    1  0.1338445E-007  0.8577971E+03  0.7818608E-02  0.9479931E-01
          1   -1    0    0  501    0  0.00000000000E+00  0.00000000000E+00  0.87980278853E+03  0.87980278853E+03  0.00000000000E+00 0. -1.
         -1   -1    0    0    0  501 -0.00000000000E+00 -0.00000000000E+00 -0.93914279860E+03  0.93914279860E+03  0.00000000000E+00 0.  1.
         23    2    1    2    0    0 -0.76711783697E+03  0.72861569315E+02  0.21107311917E+03  0.80553310914E+03  0.10272849748E+03 0.  0.
    5000000    2    1    2    0    0  0.76711783697E+03 -0.72861569315E+02 -0.27041312924E+03  0.10134124780E+04  0.60008583220E+03 0.  0.
         23    2    4    4    0    0  0.60802844024E+02 -0.19403711000E+03 -0.17716455905E+03  0.28500873275E+03  0.92170010622E+02 0.  0.
         23    2    4    4    0    0  0.70631499295E+03  0.12117554069E+03 -0.93248570184E+02  0.72840374524E+03  0.91172031463E+02 0.  0.
          4    1    3    3  502    0 -0.25853733046E+03  0.62191521434E+02  0.40347941527E+02  0.26895593127E+03  0.00000000000E+00 0. -1.
         -4    1    3    3    0  502 -0.50858050651E+03  0.10670047881E+02  0.17072517765E+03  0.53657717787E+03  0.00000000000E+00 0.  1.
         13    1    5    5    0    0  0.84249387570E+02 -0.16730850924E+03 -0.15476420471E+03  0.24298571075E+03  0.00000000000E+00 0.  1.
        -13    1    5    5    0    0 -0.23446543546E+02 -0.26728600769E+02 -0.22400354344E+02  0.42023022000E+02  0.00000000000E+00 0. -1.
          1    1    6    6  503    0  0.38160897489E+02 -0.38695438524E+01  0.12780219547E+02  0.40429710343E+02  0.00000000000E+00 0. -1.
         -1    1    6    6    0  503  0.66815409546E+03  0.12504508454E+03 -0.10602878973E+03  0.68797403490E+03  0.00000000000E+00 0.  1.
<mgrwt>
<rscale>  0 0.85779714E+03</rscale>
<asrwt>0</asrwt>
<pdfrwt beam="1">  1        1 0.13535427E+00 0.85779714E+03</pdfrwt>
<pdfrwt beam="2">  1       -1 0.14448351E+00 0.85779714E+03</pdfrwt>
<totfact> 0.74295173E+00</totfact>
</mgrwt>
</event>
<event>
12    1  0.1338445E-007  0.1033800E+04  0.7818608E-02  0.9272232E-01
          1   -1    0    0  501    0  0.00000000000E+00  0.00000000000E+00  0.83202857243E+03  0.83202857243E+03  0.00000000000E+00 0. -1.
         -1   -1    0    0    0  501 -0.00000000000E+00 -0.00000000000E+00 -0.14191527939E+04  0.14191527939E+04  0.00000000000E+00 0.  1.
         23    2    1    2    0    0 -0.71402141201E+03 -0.63510206225E+03 -0.58268451112E+03  0.11228120833E+04  0.89468031701E+02 0.  0.
    5000000    2    1    2    0    0  0.71402141201E+03  0.63510206225E+03 -0.44397103739E+01  0.11283692830E+04  0.60001360115E+03 0.  0.
         23    2    4    4    0    0  0.69758727644E+03  0.71057263524E+03 -0.47119804453E+02  0.10009202112E+04  0.89886122298E+02 0.  0.
         23    2    4    4    0    0  0.16434135566E+02 -0.75470572991E+02  0.42680094079E+02  0.12744907184E+03  0.91955354833E+02 0.  0.
          3    1    3    3  502    0 -0.12828228068E+03 -0.11050640477E+03 -0.14482489632E+03  0.22280542997E+03  0.00000000000E+00 0. -1.
         -3    1    3    3    0  502 -0.58573913133E+03 -0.52459565748E+03 -0.43785961480E+03  0.90000665336E+03  0.00000000000E+00 0.  1.
         11    1    5    5    0    0  0.34733347030E+03  0.29128152137E+03 -0.12188532541E+02  0.45346887942E+03  0.00000000000E+00 0.  1.
        -11    1    5    5    0    0  0.35025380614E+03  0.41929111387E+03 -0.34931271912E+02  0.54745133176E+03  0.00000000000E+00 0. -1.
          2    1    6    6  503    0 -0.26430588532E+02 -0.61995439042E+02  0.29315775243E+01  0.67458169401E+02  0.00000000000E+00 0. -1.
         -2    1    6    6    0  503  0.42864724099E+02 -0.13475133949E+02  0.39748516555E+02  0.59990902438E+02  0.00000000000E+00 0.  1.
<mgrwt>
<rscale>  0 0.10337996E+04</rscale>
<asrwt>0</asrwt>
<pdfrwt beam="1">  1        1 0.12800440E+00 0.10337996E+04</pdfrwt>
<pdfrwt beam="2">  1       -1 0.21833120E+00 0.10337996E+04</pdfrwt>
<totfact> 0.23449567E+00</totfact>
</mgrwt>
</event>
<event>
12    1  0.1338445E-007  0.1199529E+04  0.7818608E-02  0.9113269E-01
          2   -1    0    0  501    0  0.00000000000E+00  0.00000000000E+00  0.16758637386E+04  0.16758637386E+04  0.00000000000E+00 0. -1.
         -2   -1    0    0    0  501 -0.00000000000E+00 -0.00000000000E+00 -0.97000589966E+03  0.97000589966E+03  0.00000000000E+00 0.  1.
         23    2    1    2    0    0  0.11725065754E+04  0.21133066395E+03  0.16433966433E+03  0.12061745942E+04  0.91745886572E+02 0.  0.
    5000000    2    1    2    0    0 -0.11725065754E+04 -0.21133066395E+03  0.54151817458E+03  0.14396950440E+04  0.60003963834E+03 0.  0.
         23    2    4    4    0    0 -0.63391161482E+03 -0.29676923328E+02  0.57747796752E+03  0.86284063292E+03  0.91041197635E+02 0.  0.
         23    2    4    4    0    0 -0.53859496053E+03 -0.18165374062E+03 -0.35959792936E+02  0.57685441109E+03  0.91571239458E+02 0.  0.
          1    1    3    3  502    0  0.49694696274E+03  0.43654597056E+02  0.70840249796E+02  0.50386540724E+03  0.00000000000E+00 0. -1.
         -1    1    3    3    0  502  0.67555961261E+03  0.16767606690E+03  0.93499414534E+02  0.70230918698E+03  0.00000000000E+00 0.  1.
         13    1    5    5    0    0 -0.39225822794E+03 -0.15246867272E+01  0.41036659705E+03  0.56768793014E+03  0.00000000000E+00 0. -1.
        -13    1    5    5    0    0 -0.24165338688E+03 -0.28152236601E+02  0.16711137047E+03  0.29515270278E+03  0.00000000000E+00 0.  1.
          2    1    6    6  503    0 -0.42297384333E+03 -0.14894646317E+03 -0.65309518640E+02  0.45316360650E+03  0.00000000000E+00 0. -1.
         -2    1    6    6    0  503 -0.11562111720E+03 -0.32707277449E+02  0.29349725704E+02  0.12369080459E+03  0.00000000000E+00 0.  1.
<mgrwt>
<rscale>  0 0.11995291E+04</rscale>
<asrwt>0</asrwt>
<pdfrwt beam="1">  1        2 0.25782519E+00 0.11995291E+04</pdfrwt>
<pdfrwt beam="2">  1       -2 0.14923168E+00 0.11995291E+04</pdfrwt>
<totfact> 0.29869162E+00</totfact>
</mgrwt>
</event>
<event>
12    1  0.1338445E-007  0.5073062E+03  0.7818608E-02  0.1011889E+00
         -1   -1    0    0    0  501 -0.00000000000E+00  0.00000000000E+00  0.15636869044E+03  0.15636869044E+03  0.00000000000E+00 0.  1.
          1   -1    0    0  501    0  0.00000000000E+00 -0.00000000000E+00 -0.22985564829E+04  0.22985564829E+04  0.00000000000E+00 0. -1.
         23    2    1    2    0    0  0.21567800502E+03  0.38365900530E+03 -0.92901512680E+03  0.10316235781E+04  0.86411033896E+02 0.  0.
    5000000    2    1    2    0    0 -0.21567800502E+03 -0.38365900530E+03 -0.12131726656E+04  0.14233015953E+04  0.60024018547E+03 0.  0.
         23    2    4    4    0    0 -0.18041192707E+03 -0.43158621394E+03 -0.45547303028E+03  0.65794159563E+03  0.81340878140E+02 0.  0.
         23    2    4    4    0    0 -0.35266077952E+02  0.47927208644E+02 -0.75769963537E+03  0.76535999965E+03  0.90146980230E+02 0.  0.
          3    1    3    3  502    0  0.18976584444E+03  0.33906586046E+03 -0.74140262377E+03  0.83705112387E+03  0.00000000000E+00 0. -1.
         -3    1    3    3    0  502  0.25912160577E+02  0.44593144839E+02 -0.18761250303E+03  0.19457245418E+03  0.00000000000E+00 0.  1.
         13    1    5    5    0    0 -0.13012037853E+03 -0.20695288218E+03 -0.22654183435E+03  0.33328968040E+03  0.00000000000E+00 0. -1.
        -13    1    5    5    0    0 -0.50291548541E+02 -0.22463333176E+03 -0.22893119593E+03  0.32465191523E+03  0.00000000000E+00 0.  1.
          3    1    6    6  503    0 -0.58438044224E+02  0.16394147952E+02 -0.59196562712E+03  0.59506896810E+03  0.00000000000E+00 0. -1.
         -3    1    6    6    0  503  0.23171966272E+02  0.31533060692E+02 -0.16573400825E+03  0.17029103155E+03  0.00000000000E+00 0.  1.
<mgrwt>
<rscale>  0 0.50730618E+03</rscale>
<asrwt>0</asrwt>
<pdfrwt beam="1">  1        1 0.35362405E+00 0.50730618E+03</pdfrwt>
<pdfrwt beam="2">  1       -1 0.24056723E-01 0.50730618E+03</pdfrwt>
<totfact> 0.30252489E+01</totfact>
</mgrwt>
</event>
<event>
12    1  0.1338445E-007  0.4652313E+03  0.7818608E-02  0.1023275E+00
         -1   -1    0    0    0  501 -0.00000000000E+00  0.00000000000E+00  0.42040433459E+03  0.42040433459E+03  0.00000000000E+00 0.  1.
          1   -1    0    0  501    0  0.00000000000E+00 -0.00000000000E+00 -0.13971976433E+04  0.13971976433E+04  0.00000000000E+00 0. -1.
         23    2    1    2    0    0 -0.26416303470E+03  0.34620754902E+03 -0.97979656045E+03  0.10761305826E+04  0.91727613128E+02 0.  0.
    5000000    2    1    2    0    0  0.26416303470E+03 -0.34620754902E+03  0.30032517241E+01  0.74147139531E+03  0.60010751924E+03 0.  0.
         23    2    4    4    0    0  0.12001842116E+03 -0.27462905541E+03  0.27178781307E+03  0.41442776216E+03  0.89756421619E+02 0.  0.
         23    2    4    4    0    0  0.14414461354E+03 -0.71578493604E+02 -0.26878456134E+03  0.32704363316E+03  0.93868243903E+02 0.  0.
          4    1    3    3  502    0 -0.20672678633E+03  0.20042685822E+03 -0.61213708781E+03  0.67647520572E+03  0.00000000000E+00 0. -1.
         -4    1    3    3    0  502 -0.57436248370E+02  0.14578069080E+03 -0.36765947265E+03  0.39965537687E+03  0.00000000000E+00 0.  1.
         11    1    5    5    0    0  0.11446142339E+03 -0.24286176035E+03  0.19706718100E+03  0.33304463051E+03  0.00000000000E+00 0.  1.
        -11    1    5    5    0    0  0.55569977615E+01 -0.31767295061E+02  0.74720632069E+02  0.81383131646E+02  0.00000000000E+00 0. -1.
          1    1    6    6  503    0  0.12925914345E+03 -0.19228395894E+02 -0.17209466170E+03  0.21608847715E+03  0.00000000000E+00 0. -1.
         -1    1    6    6    0  503  0.14885470088E+02 -0.52350097710E+02 -0.96689899646E+02  0.11095515600E+03  0.00000000000E+00 0.  1.
<mgrwt>
<rscale>  0 0.46523132E+03</rscale>
<asrwt>0</asrwt>
<pdfrwt beam="1">  1        1 0.21495348E+00 0.46523132E+03</pdfrwt>
<pdfrwt beam="2">  1       -1 0.64677591E-01 0.46523132E+03</pdfrwt>
<totfact> 0.20272145E+01</totfact>
</mgrwt>
</event>
<event>
12    1  0.1338445E-007  0.6822331E+03  0.7818608E-02  0.9748108E-01
          2   -1    0    0  501    0  0.00000000000E+00  0.00000000000E+00  0.13619251235E+04  0.13619251235E+04  0.00000000000E+00 0. -1.
         -2   -1    0    0    0  501 -0.00000000000E+00 -0.00000000000E+00 -0.49154820959E+03  0.49154820959E+03  0.00000000000E+00 0.  1.
         23    2    1    2    0    0  0.28232123475E+02 -0.66283656581E+03  0.64892626681E+03  0.93249942352E+03  0.91107131152E+02 0.  0.
    5000000    2    1    2    0    0 -0.28232123475E+02  0.66283656581E+03  0.22145064710E+03  0.92097390956E+03  0.59916874686E+03 0.  0.
         23    2    4    4    0    0  0.80436974995E+02  0.41217279734E+03  0.39578704902E+03  0.58420904764E+03  0.91084034590E+02 0.  0.
         23    2    4    4    0    0 -0.10866909847E+03  0.25066376847E+03 -0.17433640192E+03  0.33676486192E+03  0.91520999804E+02 0.  0.
          2    1    3    3  502    0 -0.14044565274E+02 -0.12515232139E+03  0.16736666910E+03  0.20945633265E+03  0.00000000000E+00 0.  1.
         -2    1    3    3    0  502  0.42276688749E+02 -0.53768424442E+03  0.48155959771E+03  0.72304309087E+03  0.00000000000E+00 0. -1.
         11    1    5    5    0    0  0.57354615335E+02  0.16316142157E+03  0.21341605847E+03  0.27469549578E+03  0.00000000000E+00 0.  1.
        -11    1    5    5    0    0  0.23082359660E+02  0.24901137577E+03  0.18237099055E+03  0.30951355186E+03  0.00000000000E+00 0. -1.
          3    1    6    6  503    0 -0.10187162023E+03  0.19431230392E+03 -0.94680357318E+02  0.23895495083E+03  0.00000000000E+00 0. -1.
         -3    1    6    6    0  503 -0.67974782436E+01  0.56351464552E+02 -0.79656044597E+02  0.97809911096E+02  0.00000000000E+00 0.  1.
<mgrwt>
<rscale>  0 0.68223309E+03</rscale>
<asrwt>0</asrwt>
<pdfrwt beam="1">  1        2 0.20952694E+00 0.68223309E+03</pdfrwt>
<pdfrwt beam="2">  1       -2 0.75622802E-01 0.68223309E+03</pdfrwt>
<totfact> 0.24566714E+01</totfact>
</mgrwt>
</event>
<event>
12    1  0.1338445E-007  0.5493142E+03  0.7818608E-02  0.1001653E+00
         -1   -1    0    0    0  501 -0.00000000000E+00  0.00000000000E+00  0.42286051280E+03  0.42286051280E+03  0.00000000000E+00 0.  1.
          1   -1    0    0  501    0  0.00000000000E+00 -0.00000000000E+00 -0.11527625784E+04  0.11527625784E+04  0.00000000000E+00 0. -1.
         23    2    1    2    0    0 -0.39844046324E+03 -0.68830533695E+02 -0.74420779235E+03  0.85188462081E+03  0.91486194847E+02 0.  0.
    5000000    2    1    2    0    0  0.39844046324E+03  0.68830533695E+02  0.14305726769E+02  0.72373847037E+03  0.60008355632E+03 0.  0.
         23    2    4    4    0    0  0.34447768048E+03 -0.19438843660E+03  0.11624090279E+03  0.42191525408E+03  0.89715090777E+02 0.  0.
         23    2    4    4    0    0  0.53962782758E+02  0.26321897029E+03 -0.10193517602E+03  0.30182321629E+03  0.92251100453E+02 0.  0.
          1    1    3    3  502    0 -0.27546838549E+02 -0.28144669978E+02 -0.48867246768E+02  0.62761123069E+02  0.00000000000E+00 0. -1.
         -1    1    3    3    0  502 -0.37089362469E+03 -0.40685863717E+02 -0.69534054559E+03  0.78912349774E+03  0.00000000000E+00 0.  1.
         11    1    5    5    0    0  0.91970024109E+02 -0.97426584587E+02  0.23839531227E+02  0.13608360654E+03  0.00000000000E+00 0.  1.
        -11    1    5    5    0    0  0.25250765637E+03 -0.96961852012E+02  0.92401371563E+02  0.28583164755E+03  0.00000000000E+00 0. -1.
          3    1    6    6  503    0 -0.13568682090E+02  0.14407588652E+03 -0.32681854185E+02  0.14835792464E+03  0.00000000000E+00 0. -1.
         -3    1    6    6    0  503  0.67531464848E+02  0.11914308377E+03 -0.69253321836E+02  0.15346529165E+03  0.00000000000E+00 0.  1.
<mgrwt>
<rscale>  0 0.54931422E+03</rscale>
<asrwt>0</asrwt>
<pdfrwt beam="1">  1        1 0.17734809E+00 0.54931422E+03</pdfrwt>
<pdfrwt beam="2">  1       -1 0.65055464E-01 0.54931422E+03</pdfrwt>
<totfact> 0.29316209E+01</totfact>
</mgrwt>
</event>
<event>
12    1  0.1338445E-007  0.3117796E+03  0.7818608E-02  0.1079496E+00
         -2   -1    0    0    0  501 -0.00000000000E+00  0.00000000000E+00  0.12820194222E+03  0.12820194222E+03  0.00000000000E+00 0.  1.
          2   -1    0    0  501    0  0.00000000000E+00 -0.00000000000E+00 -0.12766070557E+04  0.12766070557E+04  0.00000000000E+00 0. -1.
         23    2    1    2    0    0 -0.12152746328E+03  0.10535171554E+03 -0.28832972182E+03  0.34388771173E+03  0.96212377040E+02 0.  0.
    5000000    2    1    2    0    0  0.12152746328E+03 -0.10535171554E+03 -0.86007539167E+03  0.10609212862E+04  0.59996365544E+03 0.  0.
         23    2    4    4    0    0  0.25541527417E+03  0.32365457031E+01 -0.81487194975E+03  0.85892586564E+03  0.92140711237E+02 0.  0.
         23    2    4    4    0    0 -0.13388781090E+03 -0.10858826124E+03 -0.45203441917E+02  0.20199542055E+03  0.95086499450E+02 0.  0.
          1    1    3    3  502    0  0.90856264254E+01  0.26891212251E+02 -0.86263618991E+02  0.90813533492E+02  0.00000000000E+00 0. -1.
         -1    1    3    3    0  502 -0.13061308970E+03  0.78460503288E+02 -0.20206610283E+03  0.25307417824E+03  0.00000000000E+00 0.  1.
         11    1    5    5    0    0  0.12676768291E+03  0.43685028641E+02 -0.34693174240E+03  0.37194093757E+03  0.00000000000E+00 0. -1.
        -11    1    5    5    0    0  0.12864759126E+03 -0.40448482938E+02 -0.46794020735E+03  0.48698492807E+03  0.00000000000E+00 0.  1.
          1    1    6    6  503    0 -0.75534914046E+02 -0.46693025379E+02  0.24388961083E+02  0.92090082428E+02  0.00000000000E+00 0. -1.
         -1    1    6    6    0  503 -0.58352896850E+02 -0.61895235863E+02 -0.69592403000E+02  0.10990533813E+03  0.00000000000E+00 0.  1.
<mgrwt>
<rscale>  0 0.31177959E+03</rscale>
<asrwt>0</asrwt>
<pdfrwt beam="1">  1        2 0.19640109E+00 0.31177959E+03</pdfrwt>
<pdfrwt beam="2">  1       -2 0.19723375E-01 0.31177959E+03</pdfrwt>
<totfact> 0.38972228E+02</totfact>
</mgrwt>
</event>
<event>
12    1  0.1338445E-007  0.4228386E+03  0.7818608E-02  0.1036146E+00
          2   -1    0    0  501    0  0.00000000000E+00  0.00000000000E+00  0.99406722485E+03  0.99406722485E+03  0.00000000000E+00 0.  1.
         -2   -1    0    0    0  501 -0.00000000000E+00 -0.00000000000E+00 -0.30007676807E+03  0.30007676807E+03  0.00000000000E+00 0. -1.
         23    2    1    2    0    0 -0.35605537640E+03 -0.11181457657E+03  0.27364634669E+03  0.47195856316E+03  0.92653287477E+02 0.  0.
    5000000    2    1    2    0    0  0.35605537640E+03  0.11181457657E+03  0.42034411009E+03  0.82218542977E+03  0.60001814926E+03 0.  0.
         23    2    4    4    0    0  0.86571843607E+02 -0.90385400975E+02 -0.11051113144E+03  0.18708870132E+03  0.84411297681E+02 0.  0.
         23    2    4    4    0    0  0.26948353280E+03  0.20219997755E+03  0.53085524153E+03  0.63509672845E+03  0.89634600776E+02 0.  0.
          3    1    3    3  502    0 -0.22365623050E+03 -0.42010108755E+02  0.11923662970E+03  0.25691308363E+03  0.00000000000E+00 0. -1.
         -3    1    3    3    0  502 -0.13239914590E+03 -0.69804467815E+02  0.15440971699E+03  0.21504547952E+03  0.00000000000E+00 0.  1.
         11    1    5    5    0    0  0.64945055400E+02 -0.75232826090E+02 -0.32244057277E+02  0.10448692536E+03  0.00000000000E+00 0. -1.
        -11    1    5    5    0    0  0.21626788208E+02 -0.15152574886E+02 -0.78267074163E+02  0.82601775960E+02  0.00000000000E+00 0.  1.
          1    1    6    6  503    0  0.46213096924E+02  0.67764217138E+02  0.81471662695E+02  0.11560826646E+03  0.00000000000E+00 0. -1.
         -1    1    6    6    0  503  0.22327043587E+03  0.13443576041E+03  0.44938357883E+03  0.51948846199E+03  0.00000000000E+00 0.  1.
<mgrwt>
<rscale>  0 0.42283859E+03</rscale>
<asrwt>0</asrwt>
<pdfrwt beam="1">  1        2 0.15293342E+00 0.42283859E+03</pdfrwt>
<pdfrwt beam="2">  1       -2 0.46165657E-01 0.42283859E+03</pdfrwt>
<totfact> 0.11799623E+02</totfact>
</mgrwt>
</event>
<event>
12    1  0.1338445E-007  0.9677558E+03  0.7818608E-02  0.9344634E-01
          1   -1    0    0  501    0  0.00000000000E+00  0.00000000000E+00  0.24856051777E+04  0.24856051777E+04  0.00000000000E+00 0. -1.
         -1   -1    0    0    0  501 -0.00000000000E+00 -0.00000000000E+00 -0.43020070712E+03  0.43020070712E+03  0.00000000000E+00 0.  1.
         23    2    1    2    0    0 -0.55072885882E+03 -0.68856622114E+03  0.14212327324E+04  0.16750046311E+04  0.91171911984E+02 0.  0.
    5000000    2    1    2    0    0  0.55072885882E+03  0.68856622114E+03  0.63417173816E+03  0.12408012538E+04  0.59999020076E+03 0.  0.
         23    2    4    4    0    0  0.17480628814E+03 -0.74011554441E+02  0.11692331502E+03  0.24123970886E+03  0.92144381116E+02 0.  0.
         23    2    4    4    0    0  0.37592257068E+03  0.76257777558E+03  0.51724842313E+03  0.99956154489E+03  0.93459658855E+02 0.  0.
          1    1    3    3  502    0 -0.17467973648E+03 -0.15513670124E+03  0.38776761507E+03  0.45270755429E+03  0.00000000000E+00 0. -1.
         -1    1    3    3    0  502 -0.37604912234E+03 -0.53342951990E+03  0.10334651174E+04  0.12222970768E+04  0.00000000000E+00 0.  1.
         13    1    5    5    0    0  0.10179599586E+03 -0.71691405947E+02  0.11291453709E+03  0.16808264380E+03  0.00000000000E+00 0. -1.
        -13    1    5    5    0    0  0.73010292282E+02 -0.23201484932E+01  0.40087779310E+01  0.73157065063E+02  0.00000000000E+00 0.  1.
          4    1    6    6  503    0  0.13683372468E+03  0.33355918526E+03  0.26485980962E+03  0.44736552955E+03  0.00000000000E+00 0. -1.
         -4    1    6    6    0  503  0.23908884599E+03  0.42901859032E+03  0.25238861351E+03  0.55219601534E+03  0.00000000000E+00 0.  1.
<mgrwt>
<rscale>  0 0.96775584E+03</rscale>
<asrwt>0</asrwt>
<pdfrwt beam="1">  1        1 0.38240079E+00 0.96775584E+03</pdfrwt>
<pdfrwt beam="2">  1       -1 0.66184726E-01 0.96775584E+03</pdfrwt>
<totfact> 0.32819796E+00</totfact>
</mgrwt>
</event>
<event>
12    1  0.1338445E-007  0.5063146E+03  0.7818608E-02  0.1012144E+00
          1   -1    0    0  501    0  0.00000000000E+00  0.00000000000E+00  0.74099842745E+03  0.74099842745E+03  0.00000000000E+00 0. -1.
         -1   -1    0    0    0  501 -0.00000000000E+00 -0.00000000000E+00 -0.39652726882E+03  0.39652726882E+03  0.00000000000E+00 0.  1.
         23    2    1    2    0    0  0.98223090654E+01  0.33007890185E+03  0.29214303583E+03  0.45054236781E+03  0.92694728034E+02 0.  0.
    5000000    2    1    2    0    0 -0.98223090654E+01 -0.33007890185E+03  0.52328122794E+02  0.68698332847E+03  0.60013273695E+03 0.  0.
         23    2    4    4    0    0  0.15258267979E+03 -0.43355217641E+03  0.31054673002E+01  0.46801073775E+03  0.88178471741E+02 0.  0.
         23    2    4    4    0    0 -0.16240498885E+03  0.10347327456E+03  0.49222655494E+02  0.21897259072E+03  0.91891385443E+02 0.  0.
          2    1    3    3  502    0  0.48032327021E+02  0.24365857395E+03  0.20561816836E+03  0.32242120938E+03  0.00000000000E+00 0. -1.
         -2    1    3    3    0  502 -0.38210017955E+02  0.86420327899E+02  0.86524867477E+02  0.12812115843E+03  0.00000000000E+00 0.  1.
         13    1    5    5    0    0  0.75184353268E+02 -0.98441592338E+02 -0.52029621146E+01  0.12397784033E+03  0.00000000000E+00 0.  1.
        -13    1    5    5    0    0  0.77398326519E+02 -0.33511058407E+03  0.83084294148E+01  0.34403289742E+03  0.00000000000E+00 0. -1.
          3    1    6    6  503    0 -0.16473051541E+03  0.88814300603E+02  0.22619733839E+02  0.18850935005E+03  0.00000000000E+00 0. -1.
         -3    1    6    6    0  503  0.23255265543E+01  0.14658973960E+02  0.26602921655E+02  0.30463240666E+02  0.00000000000E+00 0.  1.
<mgrwt>
<rscale>  0 0.50631459E+03</rscale>
<asrwt>0</asrwt>
<pdfrwt beam="1">  1        1 0.11399976E+00 0.50631459E+03</pdfrwt>
<pdfrwt beam="2">  1       -1 0.61004195E-01 0.50631459E+03</pdfrwt>
<totfact> 0.71138474E+01</totfact>
</mgrwt>
</event>
<event>
12    1  0.1338445E-007  0.7853963E+03  0.7818608E-02  0.9581399E-01
          3   -1    0    0  501    0  0.00000000000E+00  0.00000000000E+00  0.10221669685E+04  0.10221669685E+04  0.00000000000E+00 0. -1.
         -3   -1    0    0    0  501 -0.00000000000E+00 -0.00000000000E+00 -0.75011778061E+03  0.75011778061E+03  0.00000000000E+00 0.  1.
         23    2    1    2    0    0  0.47885699383E+03  0.58836361315E+03  0.25330639305E+03  0.80481526073E+03  0.89931714785E+02 0.  0.
    5000000    2    1    2    0    0 -0.47885699383E+03 -0.58836361315E+03  0.18742794795E+02  0.96746948833E+03  0.60014178047E+03 0.  0.
         23    2    4    4    0    0  0.81740969902E+01 -0.42783896111E+02  0.18688639900E+03  0.21137937962E+03  0.88642192950E+02 0.  0.
         23    2    4    4    0    0 -0.48703109082E+03 -0.54557971704E+03 -0.16814360420E+03  0.75609010871E+03  0.92430891913E+02 0.  0.
          2    1    3    3  502    0  0.20616598377E+03  0.20518384291E+03  0.13010257302E+03  0.31864008185E+03  0.00000000000E+00 0. -1.
         -2    1    3    3    0  502  0.27269101007E+03  0.38317977024E+03  0.12320382003E+03  0.48617517888E+03  0.00000000000E+00 0.  1.
         13    1    5    5    0    0 -0.48391922078E+01 -0.56176417638E+02  0.18404801063E+03  0.19249124109E+03  0.00000000000E+00 0. -1.
        -13    1    5    5    0    0  0.13013289198E+02  0.13392521526E+02  0.28383883658E+01  0.18888138529E+02  0.00000000000E+00 0.  1.
          1    1    6    6  503    0 -0.40433808538E+03 -0.41060867648E+03 -0.15768776080E+03  0.59745644393E+03  0.00000000000E+00 0. -1.
         -1    1    6    6    0  503 -0.82693005444E+02 -0.13497104056E+03 -0.10455843397E+02  0.15863366478E+03  0.00000000000E+00 0.  1.
<mgrwt>
<rscale>  0 0.78539635E+03</rscale>
<asrwt>0</asrwt>
<pdfrwt beam="1">  1        3 0.15725646E+00 0.78539635E+03</pdfrwt>
<pdfrwt beam="2">  1       -3 0.11540274E+00 0.78539635E+03</pdfrwt>
<totfact> 0.45930332E-01</totfact>
</mgrwt>
</event>
<event>
12    1  0.1338445E-007  0.9168164E+03  0.7818608E-02  0.9404801E-01
          2   -1    0    0  501    0  0.00000000000E+00  0.00000000000E+00  0.10274808298E+04  0.10274808298E+04  0.00000000000E+00 0. -1.
         -2   -1    0    0    0  501 -0.00000000000E+00 -0.00000000000E+00 -0.95420068871E+03  0.95420068871E+03  0.00000000000E+00 0.  1.
         23    2    1    2    0    0 -0.82662182389E+03  0.18838572047E+03  0.32721390546E+03  0.91241062971E+03  0.81433395300E+02 0.  0.
    5000000    2    1    2    0    0  0.82662182389E+03 -0.18838572047E+03 -0.25393376437E+03  0.10692708888E+04  0.60005421215E+03 0.  0.
         23    2    4    4    0    0 -0.40950813223E+02 -0.27685032587E+02 -0.14127928628E+03  0.17489251509E+03  0.90466153722E+02 0.  0.
         23    2    4    4    0    0  0.86757263711E+03 -0.16070068788E+03 -0.11265447809E+03  0.89437837371E+03  0.93352301329E+02 0.  0.
          3    1    3    3  502    0 -0.74562493760E+03  0.18015766629E+03  0.31834215780E+03  0.83051493769E+03  0.00000000000E+00 0. -1.
         -3    1    3    3    0  502 -0.80996886288E+02  0.82280541821E+01  0.88717476516E+01  0.81895692014E+02  0.00000000000E+00 0.  1.
         13    1    5    5    0    0  0.29003073099E+02 -0.94803149416E+01 -0.36075768874E+02  0.47249504976E+02  0.00000000000E+00 0. -1.
        -13    1    5    5    0    0 -0.69953886322E+02 -0.18204717645E+02 -0.10520351740E+03  0.12764301011E+03  0.00000000000E+00 0.  1.
          4    1    6    6  503    0  0.98947066599E+02 -0.19722595566E+02 -0.43517718505E+02  0.10987854471E+03  0.00000000000E+00 0. -1.
         -4    1    6    6    0  503  0.76862557052E+03 -0.14097809232E+03 -0.69136759584E+02  0.78449982899E+03  0.00000000000E+00 0.  1.
<mgrwt>
<rscale>  0 0.91681640E+03</rscale>
<asrwt>0</asrwt>
<pdfrwt beam="1">  1        2 0.15807397E+00 0.91681640E+03</pdfrwt>
<pdfrwt beam="2">  1       -2 0.14680011E+00 0.91681640E+03</pdfrwt>
<totfact> 0.76689132E+00</totfact>
</mgrwt>
</event>
<event>
12    1  0.1338445E-007  0.7299314E+03  0.7818608E-02  0.9667372E-01
          2   -1    0    0  501    0  0.00000000000E+00  0.00000000000E+00  0.31070048855E+04  0.31070048855E+04  0.00000000000E+00 0. -1.
         -2   -1    0    0    0  501 -0.00000000000E+00 -0.00000000000E+00 -0.28204358540E+03  0.28204358540E+03  0.00000000000E+00 0.  1.
         23    2    1    2    0    0  0.54164675254E+03  0.35140439219E+03  0.22354717625E+04  0.23286725786E+04  0.92280691108E+02 0.  0.
    5000000    2    1    2    0    0 -0.54164675254E+03 -0.35140439219E+03  0.58948953754E+03  0.10603758923E+04  0.60002738822E+03 0.  0.
         23    2    4    4    0    0 -0.48295987639E+03 -0.36402550188E+02  0.52239517635E+03  0.71828137742E+03  0.91956669247E+02 0.  0.
         23    2    4    4    0    0 -0.58686876154E+02 -0.31500184200E+03  0.67094361191E+02  0.34209451483E+03  0.99280883729E+02 0.  0.
          4    1    3    3  502    0  0.73687920387E+02  0.58902619594E+02  0.45340839033E+03  0.46311833977E+03  0.00000000000E+00 0. -1.
         -4    1    3    3    0  502  0.46795883215E+03  0.29250177260E+03  0.17820633722E+04  0.18655542388E+04  0.00000000000E+00 0.  1.
         11    1    5    5    0    0 -0.37734998547E+03 -0.61934633118E+02  0.37925929805E+03  0.53857824453E+03  0.00000000000E+00 0. -1.
        -11    1    5    5    0    0 -0.10560989091E+03  0.25532082930E+02  0.14313587829E+03  0.17970313290E+03  0.00000000000E+00 0.  1.
          4    1    6    6  503    0 -0.51535094628E+02 -0.17484907939E+03 -0.89025286476E+01  0.18250293575E+03  0.00000000000E+00 0. -1.
         -4    1    6    6    0  503 -0.71517815257E+01 -0.14015276262E+03  0.75996889838E+02  0.15959157908E+03  0.00000000000E+00 0.  1.
<mgrwt>
<rscale>  0 0.72993137E+03</rscale>
<asrwt>0</asrwt>
<pdfrwt beam="1">  1        2 0.47800073E+00 0.72993137E+03</pdfrwt>
<pdfrwt beam="2">  1       -2 0.43391323E-01 0.72993137E+03</pdfrwt>
<totfact> 0.80389481E+00</totfact>
</mgrwt>
</event>
<event>
12    1  0.1338445E-007  0.6175783E+03  0.7818608E-02  0.9869593E-01
         -1   -1    0    0    0  501 -0.00000000000E+00  0.00000000000E+00  0.36584703899E+03  0.36584703899E+03  0.00000000000E+00 0.  1.
          1   -1    0    0  501    0  0.00000000000E+00 -0.00000000000E+00 -0.13625813163E+04  0.13625813163E+04  0.00000000000E+00 0. -1.
         23    2    1    2    0    0  0.37679918496E+03 -0.33570630611E+03 -0.74635846394E+03  0.90566266853E+03  0.92182225663E+02 0.  0.
    5000000    2    1    2    0    0 -0.37679918496E+03  0.33570630611E+03 -0.25037581334E+03  0.82276568672E+03  0.59964904536E+03 0.  0.
         23    2    4    4    0    0  0.33712714206E+02 -0.86487973766E+02  0.67632688064E+02  0.14736337672E+03  0.92331292631E+02 0.  0.
         23    2    4    4    0    0 -0.41051189916E+03  0.42219427987E+03 -0.31800850140E+03  0.67540231000E+03  0.90944181097E+02 0.  0.
          4    1    3    3  502    0  0.16083300269E+03 -0.84346965265E+02 -0.26343505195E+03  0.31996826702E+03  0.00000000000E+00 0. -1.
         -4    1    3    3    0  502  0.21596618227E+03 -0.25135934084E+03 -0.48292341199E+03  0.58569440151E+03  0.00000000000E+00 0.  1.
         11    1    5    5    0    0 -0.30156469572E+02 -0.19374767614E+02  0.66724361508E+01  0.36459781696E+02  0.00000000000E+00 0. -1.
        -11    1    5    5    0    0  0.63869183778E+02 -0.67113206152E+02  0.60960251913E+02  0.11090359503E+03  0.00000000000E+00 0.  1.
          2    1    6    6  503    0 -0.22718566822E+03  0.28615738685E+03 -0.22360086698E+03  0.42836517787E+03  0.00000000000E+00 0. -1.
         -2    1    6    6    0  503 -0.18332623094E+03  0.13603689302E+03 -0.94407634419E+02  0.24703713213E+03  0.00000000000E+00 0.  1.
<mgrwt>
<rscale>  0 0.61757834E+03</rscale>
<asrwt>0</asrwt>
<pdfrwt beam="1">  1        1 0.20962789E+00 0.61757834E+03</pdfrwt>
<pdfrwt beam="2">  1       -1 0.56284160E-01 0.61757834E+03</pdfrwt>
<totfact> 0.27373648E+01</totfact>
</mgrwt>
</event>
<event>
12    1  0.1338445E-007  0.1478017E+04  0.7818608E-02  0.8899204E-01
          1   -1    0    0  501    0  0.00000000000E+00  0.00000000000E+00  0.12832779042E+04  0.12832779042E+04  0.00000000000E+00 0. -1.
         -1   -1    0    0    0  501 -0.00000000000E+00 -0.00000000000E+00 -0.18376867046E+04  0.18376867046E+04  0.00000000000E+00 0.  1.
         23    2    1    2    0    0 -0.13871934714E+04 -0.49154176857E+03 -0.37641590007E+03  0.15217132235E+04  0.89460423706E+02 0.  0.
    5000000    2    1    2    0    0  0.13871934714E+04  0.49154176857E+03 -0.17799290034E+03  0.15992513854E+04  0.60000373649E+03 0.  0.
         23    2    4    4    0    0  0.10857218839E+04  0.35708609927E+03  0.10951786898E+03  0.11517509091E+04  0.90738643414E+02 0.  0.
         23    2    4    4    0    0  0.30147158744E+03  0.13445566930E+03 -0.28751076933E+03  0.44750047629E+03  0.92902038536E+02 0.  0.
          3    1    3    3  502    0 -0.77604313353E+03 -0.27173257809E+03 -0.25595819718E+03  0.86115976322E+03  0.00000000000E+00 0. -1.
         -3    1    3    3    0  502 -0.61115033784E+03 -0.21980919049E+03 -0.12045770290E+03  0.66055346025E+03  0.00000000000E+00 0.  1.
         13    1    5    5    0    0  0.31895086768E+03  0.62185425440E+02  0.26186588780E+02  0.32600984734E+03  0.00000000000E+00 0. -1.
        -13    1    5    5    0    0  0.76677101625E+03  0.29490067383E+03  0.83331280203E+02  0.82574106174E+03  0.00000000000E+00 0.  1.
          1    1    6    6  503    0  0.10217617180E+03  0.83944358921E+02 -0.75952857057E+02  0.15249741628E+03  0.00000000000E+00 0. -1.
         -1    1    6    6    0  503  0.19929541564E+03  0.50511310383E+02 -0.21155791227E+03  0.29500306001E+03  0.00000000000E+00 0.  1.
<mgrwt>
<rscale>  0 0.14780175E+04</rscale>
<asrwt>0</asrwt>
<pdfrwt beam="1">  1        1 0.19742737E+00 0.14780175E+04</pdfrwt>
<pdfrwt beam="2">  1       -1 0.28272103E+00 0.14780175E+04</pdfrwt>
<totfact> 0.37749433E-01</totfact>
</mgrwt>
</event>
<event>
12    1  0.1338445E-007  0.4740130E+03  0.7818608E-02  0.1020794E+00
          2   -1    0    0  501    0  0.00000000000E+00  0.00000000000E+00  0.18025848747E+04  0.18025848747E+04  0.00000000000E+00 0. -1.
         -2   -1    0    0    0  501 -0.00000000000E+00 -0.00000000000E+00 -0.24693380926E+03  0.24693380926E+03  0.00000000000E+00 0.  1.
         23    2    1    2    0    0  0.84646454512E+02 -0.33390963889E+03  0.12375428776E+04  0.12879623209E+04  0.93133759309E+02 0.  0.
    5000000    2    1    2    0    0 -0.84646454512E+02  0.33390963889E+03  0.31810818787E+03  0.76155636302E+03  0.60009549711E+03 0.  0.
         23    2    4    4    0    0 -0.51910876799E+02  0.46177867985E+03  0.91012502360E+02  0.48234353758E+03  0.91857086617E+02 0.  0.
         23    2    4    4    0    0 -0.32735577713E+02 -0.12786904096E+03  0.22709568550E+03  0.27921282544E+03  0.94684960949E+02 0.  0.
          4    1    3    3  502    0  0.76368796636E+02 -0.24131433638E+03  0.74780486386E+03  0.78947888917E+03  0.00000000000E+00 0. -1.
         -4    1    3    3    0  502  0.82776578758E+01 -0.92595302513E+02  0.48973801372E+03  0.49848343177E+03  0.00000000000E+00 0.  1.
         13    1    5    5    0    0 -0.27139374485E+02  0.16509615593E+03 -0.10905128926E+02  0.16766695615E+03  0.00000000000E+00 0. -1.
        -13    1    5    5    0    0 -0.24771502314E+02  0.29668252393E+03  0.10191763129E+03  0.31467658142E+03  0.00000000000E+00 0.  1.
          3    1    6    6  503    0 -0.22579946490E+02 -0.25530290846E+02  0.49810441257E+01  0.34445036431E+02  0.00000000000E+00 0. -1.
         -3    1    6    6    0  503 -0.10155631223E+02 -0.10233875011E+03  0.22211464138E+03  0.24476778901E+03  0.00000000000E+00 0.  1.
<mgrwt>
<rscale>  0 0.47401302E+03</rscale>
<asrwt>0</asrwt>
<pdfrwt beam="1">  1        2 0.27732074E+00 0.47401302E+03</pdfrwt>
<pdfrwt beam="2">  1       -2 0.37989818E-01 0.47401302E+03</pdfrwt>
<totfact> 0.59951809E+01</totfact>
</mgrwt>
</event>
<event>
12    1  0.1338445E-007  0.1588488E+04  0.7818608E-02  0.8827652E-01
         -1   -1    0    0    0  501 -0.00000000000E+00  0.00000000000E+00  0.12823169427E+04  0.12823169427E+04  0.00000000000E+00 0.  1.
          1   -1    0    0  501    0  0.00000000000E+00 -0.00000000000E+00 -0.21264906411E+04  0.21264906411E+04  0.00000000000E+00 0. -1.
         23    2    1    2    0    0 -0.74676213980E+03 -0.13675773629E+04 -0.76269095379E+03  0.17372391115E+04  0.91546177146E+02 0.  0.
    5000000    2    1    2    0    0  0.74676213980E+03  0.13675773629E+04 -0.81482744578E+02  0.16715684723E+04  0.59965005043E+03 0.  0.
         23    2    4    4    0    0 -0.19253559555E+02  0.24372854292E+03 -0.16085979388E+03  0.30614646835E+03  0.89863700181E+02 0.  0.
         23    2    4    4    0    0  0.76601569936E+03  0.11238488200E+04  0.79377049301E+02  0.13654220040E+04  0.90886253531E+02 0.  0.
          3    1    3    3  502    0 -0.33139180502E+03 -0.66827891753E+03 -0.32592279463E+03  0.81402881282E+03  0.00000000000E+00 0. -1.
         -3    1    3    3    0  502 -0.41537033478E+03 -0.69929844541E+03 -0.43676815916E+03  0.92321029870E+03  0.00000000000E+00 0.  1.
         11    1    5    5    0    0 -0.44537720891E+02  0.84098799610E+02 -0.85045805661E+02  0.12762838923E+03  0.00000000000E+00 0. -1.
        -11    1    5    5    0    0  0.25284161336E+02  0.15962974331E+03 -0.75813988218E+02  0.17851807912E+03  0.00000000000E+00 0.  1.
          4    1    6    6  503    0  0.24806774820E+03  0.40391995120E+03  0.64743993922E+02  0.47841479850E+03  0.00000000000E+00 0. -1.
         -4    1    6    6    0  503  0.51794795116E+03  0.71992886882E+03  0.14633055379E+02  0.88700720548E+03  0.00000000000E+00 0.  1.
<mgrwt>
<rscale>  0 0.15884878E+04</rscale>
<asrwt>0</asrwt>
<pdfrwt beam="1">  1        1 0.32715241E+00 0.15884878E+04</pdfrwt>
<pdfrwt beam="2">  1       -1 0.19727953E+00 0.15884878E+04</pdfrwt>
<totfact> 0.35978782E-01</totfact>
</mgrwt>
</event>
<event>
12    1  0.1338445E-007  0.7269547E+03  0.7818608E-02  0.9672215E-01
         -2   -1    0    0    0  501 -0.00000000000E+00  0.00000000000E+00  0.35839677622E+03  0.35839677622E+03  0.00000000000E+00 0.  1.
          2   -1    0    0  501    0  0.00000000000E+00 -0.00000000000E+00 -0.31726423292E+04  0.31726423292E+04  0.00000000000E+00 0. -1.
         23    2    1    2    0    0  0.42151774080E+02 -0.61098254853E+03 -0.32089567267E+02  0.61973419469E+03  0.89242843258E+02 0.  0.
    5000000    2    1    2    0    0 -0.42151774080E+02  0.61098254853E+03 -0.27821559857E+04  0.29113049107E+04  0.60018989305E+03 0.  0.
         23    2    4    4    0    0 -0.25960978107E+03  0.51810294224E+03 -0.16399463880E+04  0.17416625618E+04  0.90202143245E+02 0.  0.
         23    2    4    4    0    0  0.21745800699E+03  0.92879606287E+02 -0.11422095977E+04  0.11696423489E+04  0.86636326742E+02 0.  0.
          3    1    3    3  502    0 -0.97943452668E+01 -0.33558077745E+03 -0.47425786946E+02  0.33905691655E+03  0.00000000000E+00 0. -1.
         -3    1    3    3    0  502  0.51946119346E+02 -0.27540177108E+03  0.15336219679E+02  0.28067727814E+03  0.00000000000E+00 0.  1.
         11    1    5    5    0    0 -0.12281780341E+03  0.15195712011E+03 -0.57006194703E+03  0.60261580019E+03  0.00000000000E+00 0. -1.
        -11    1    5    5    0    0 -0.13679197765E+03  0.36614582213E+03 -0.10698844409E+04  0.11390467616E+04  0.00000000000E+00 0.  1.
          2    1    6    6  503    0  0.87422277861E+02 -0.70140608217E+01 -0.37867317235E+03  0.38869682681E+03  0.00000000000E+00 0. -1.
         -2    1    6    6    0  503  0.13003572913E+03  0.99893667109E+02 -0.76353642538E+03  0.78094552208E+03  0.00000000000E+00 0.  1.
<mgrwt>
<rscale>  0 0.72695473E+03</rscale>
<asrwt>0</asrwt>
<pdfrwt beam="1">  1        2 0.48809879E+00 0.72695473E+03</pdfrwt>
<pdfrwt beam="2">  1       -2 0.55137969E-01 0.72695473E+03</pdfrwt>
<totfact> 0.45018285E+00</totfact>
</mgrwt>
</event>
<event>
12    1  0.1338445E-007  0.1057014E+04  0.7818608E-02  0.9248132E-01
         -2   -1    0    0    0  501 -0.00000000000E+00  0.00000000000E+00  0.95621496553E+03  0.95621496553E+03  0.00000000000E+00 0.  1.
          2   -1    0    0  501    0  0.00000000000E+00 -0.00000000000E+00 -0.12187305511E+04  0.12187305511E+04  0.00000000000E+00 0. -1.
         23    2    1    2    0    0  0.84764690185E+03 -0.50395316424E+03  0.34307289298E+01  0.99036817079E+03  0.91341566930E+02 0.  0.
    5000000    2    1    2    0    0 -0.84764690185E+03  0.50395316424E+03 -0.26594631448E+03  0.11845773458E+04  0.60001831981E+03 0.  0.
         23    2    4    4    0    0 -0.74509807294E+03  0.61885267745E+03 -0.25328364133E+03  0.10052179583E+04  0.90336958216E+02 0.  0.
         23    2    4    4    0    0 -0.10254882891E+03 -0.11489951321E+03 -0.12662673149E+02  0.17935938754E+03  0.91056499827E+02 0.  0.
          2    1    3    3  502    0  0.27563787381E+03 -0.20119603203E+03  0.30457316427E+02  0.34261308922E+03  0.00000000000E+00 0. -1.
         -2    1    3    3    0  502  0.57200902804E+03 -0.30275713220E+03 -0.27026587497E+02  0.64775508156E+03  0.00000000000E+00 0.  1.
         13    1    5    5    0    0 -0.34100284649E+03  0.23541761777E+03 -0.81878753635E+02  0.42238433490E+03  0.00000000000E+00 0. -1.
        -13    1    5    5    0    0 -0.40409522645E+03  0.38343505968E+03 -0.17140488770E+03  0.58283362339E+03  0.00000000000E+00 0.  1.
          4    1    6    6  503    0 -0.73899427640E+02 -0.78238970724E+02 -0.50979274721E+02  0.11908546677E+03  0.00000000000E+00 0. -1.
         -4    1    6    6    0  503 -0.28649401266E+02 -0.36660542485E+02  0.38316601572E+02  0.60273920764E+02  0.00000000000E+00 0.  1.
<mgrwt>
<rscale>  0 0.10570143E+04</rscale>
<asrwt>0</asrwt>
<pdfrwt beam="1">  1        2 0.18749701E+00 0.10570143E+04</pdfrwt>
<pdfrwt beam="2">  1       -2 0.14711000E+00 0.10570143E+04</pdfrwt>
<totfact> 0.57405300E+00</totfact>
</mgrwt>
</event>
<event>
12    1  0.1338445E-007  0.1424235E+04  0.7818608E-02  0.8936460E-01
          2   -1    0    0  501    0  0.00000000000E+00  0.00000000000E+00  0.14202101184E+04  0.14202101184E+04  0.00000000000E+00 0.  1.
         -2   -1    0    0    0  501 -0.00000000000E+00 -0.00000000000E+00 -0.15093518888E+04  0.15093518888E+04  0.00000000000E+00 0. -1.
         23    2    1    2    0    0 -0.13846274359E+04 -0.20302351201E+03  0.27342357497E+02  0.14024728032E+04  0.88151440774E+02 0.  0.
    5000000    2    1    2    0    0  0.13846274359E+04  0.20302351201E+03 -0.11648412784E+03  0.15270892040E+04  0.60001766833E+03 0.  0.
         23    2    4    4    0    0  0.29417089202E+03  0.19711897409E+03  0.15924733540E+03  0.39861792898E+03  0.90244865880E+02 0.  0.
         23    2    4    4    0    0  0.10904565439E+04  0.59045379233E+01 -0.27573146325E+03  0.11284712750E+04  0.91045269461E+02 0.  0.
          4    1    3    3  502    0 -0.63164283839E+03 -0.11711450062E+03 -0.24092264551E+02  0.64285995268E+03  0.00000000000E+00 0. -1.
         -4    1    3    3    0  502 -0.75298459750E+03 -0.85909011385E+02  0.51434622048E+02  0.75961285051E+03  0.00000000000E+00 0.  1.
         13    1    5    5    0    0  0.33690922584E+02  0.25710191003E+02 -0.10399866507E+02  0.43637706279E+02  0.00000000000E+00 0.  1.
        -13    1    5    5    0    0  0.26047996944E+03  0.17140878308E+03  0.16964720191E+03  0.35498022271E+03  0.00000000000E+00 0. -1.
          1    1    6    6  503    0  0.77209673324E+03  0.44075351550E+02 -0.18341493407E+03  0.79480629095E+03  0.00000000000E+00 0.  1.
         -1    1    6    6    0  503  0.31835981063E+03 -0.38170813626E+02 -0.92316529174E+02  0.33366498408E+03  0.00000000000E+00 0. -1.
<mgrwt>
<rscale>  0 0.14242352E+04</rscale>
<asrwt>0</asrwt>
<pdfrwt beam="1">  1        2 0.21849386E+00 0.14242352E+04</pdfrwt>
<pdfrwt beam="2">  1       -2 0.23220798E+00 0.14242352E+04</pdfrwt>
<totfact> 0.11067024E+00</totfact>
</mgrwt>
</event>
<event>
12    1  0.1338445E-007  0.5211377E+03  0.7818608E-02  0.1008404E+00
         -1   -1    0    0    0  501 -0.00000000000E+00  0.00000000000E+00  0.33963843093E+03  0.33963843093E+03  0.00000000000E+00 0.  1.
          1   -1    0    0  501    0  0.00000000000E+00 -0.00000000000E+00 -0.97864290970E+03  0.97864290970E+03  0.00000000000E+00 0. -1.
         23    2    1    2    0    0  0.30634352456E+00  0.40329800791E+03 -0.34410403700E+03  0.53749866422E+03  0.88588084566E+02 0.  0.
    5000000    2    1    2    0    0 -0.30634352456E+00 -0.40329800791E+03 -0.29490044177E+03  0.78078267642E+03  0.60000495016E+03 0.  0.
         23    2    4    4    0    0  0.24270041370E+03 -0.21004446339E+03  0.13212749034E+02  0.33420670047E+03  0.92181204643E+02 0.  0.
         23    2    4    4    0    0 -0.24300675723E+03 -0.19325354452E+03 -0.30811319081E+03  0.44657597595E+03  0.89984150936E+02 0.  0.
          1    1    3    3  502    0  0.81805798020E+01  0.35450031805E+03 -0.25910666884E+03  0.43917384169E+03  0.00000000000E+00 0. -1.
         -1    1    3    3    0  502 -0.78742362775E+01  0.48797689862E+02 -0.84997368152E+02  0.98324822530E+02  0.00000000000E+00 0.  1.
         11    1    5    5    0    0  0.10118568566E+03 -0.46092523085E+02 -0.25795650411E+02  0.11414236394E+03  0.00000000000E+00 0. -1.
        -11    1    5    5    0    0  0.14151472805E+03 -0.16395194031E+03  0.39008399446E+02  0.22006433653E+03  0.00000000000E+00 0.  1.
          3    1    6    6  503    0 -0.16802653080E+03 -0.13320124263E+03 -0.15039413293E+03  0.26190433618E+03  0.00000000000E+00 0. -1.
         -3    1    6    6    0  503 -0.74980226427E+02 -0.60052301886E+02 -0.15771905788E+03  0.18467163977E+03  0.00000000000E+00 0.  1.
<mgrwt>
<rscale>  0 0.52113772E+03</rscale>
<asrwt>0</asrwt>
<pdfrwt beam="1">  1        1 0.15056045E+00 0.52113772E+03</pdfrwt>
<pdfrwt beam="2">  1       -1 0.52252066E-01 0.52113772E+03</pdfrwt>
<totfact> 0.60878317E+01</totfact>
</mgrwt>
</event>
<event>
12    1  0.1338445E-007  0.7342769E+03  0.7818608E-02  0.9660345E-01
         -3   -1    0    0    0  501 -0.00000000000E+00  0.00000000000E+00  0.84232270094E+03  0.84232270094E+03  0.00000000000E+00 0.  1.
          3   -1    0    0  501    0  0.00000000000E+00 -0.00000000000E+00 -0.75636246636E+03  0.75636246636E+03  0.00000000000E+00 0. -1.
         23    2    1    2    0    0 -0.44082486675E+03 -0.51712860667E+03  0.93319343055E+02  0.69220118059E+03  0.93195577342E+02 0.  0.
    5000000    2    1    2    0    0  0.44082486675E+03  0.51712860667E+03 -0.73591084805E+01  0.90648398671E+03  0.59992541429E+03 0.  0.
         23    2    4    4    0    0  0.25120341562E+03  0.20477008195E+02 -0.20027199240E+03  0.33478624617E+03  0.91926578322E+02 0.  0.
         23    2    4    4    0    0  0.18962145113E+03  0.49665159848E+03  0.19291288392E+03  0.57169774055E+03  0.83688832995E+02 0.  0.
          1    1    3    3  502    0 -0.20715804472E+03 -0.27108002460E+03  0.34955729878E+01  0.34119064210E+03  0.00000000000E+00 0. -1.
         -1    1    3    3    0  502 -0.23366682203E+03 -0.24604858207E+03  0.89823770068E+02  0.35101053848E+03  0.00000000000E+00 0.  1.
         11    1    5    5    0    0  0.48622697133E+02  0.33240513089E+01 -0.92807598266E+02  0.10482588559E+03  0.00000000000E+00 0.  1.
        -11    1    5    5    0    0  0.20258071848E+03  0.17152956886E+02 -0.10746439413E+03  0.22996036058E+03  0.00000000000E+00 0. -1.
          1    1    6    6  503    0  0.17410859292E+03  0.37580132091E+03  0.17007385964E+03  0.44773379665E+03  0.00000000000E+00 0. -1.
         -1    1    6    6    0  503  0.15512858214E+02  0.12085027757E+03  0.22839024272E+02  0.12396394390E+03  0.00000000000E+00 0.  1.
<mgrwt>
<rscale>  0 0.73427689E+03</rscale>
<asrwt>0</asrwt>
<pdfrwt beam="1">  1        3 0.11636346E+00 0.73427689E+03</pdfrwt>
<pdfrwt beam="2">  1       -3 0.12958811E+00 0.73427689E+03</pdfrwt>
<totfact> 0.74017316E-01</totfact>
</mgrwt>
</event>
<event>
12    1  0.1338445E-007  0.1399012E+04  0.7818608E-02  0.8954534E-01
          2   -1    0    0  501    0  0.00000000000E+00  0.00000000000E+00  0.32458731100E+04  0.32458731100E+04  0.00000000000E+00 0. -1.
         -2   -1    0    0    0  501 -0.00000000000E+00 -0.00000000000E+00 -0.19118159102E+04  0.19118159102E+04  0.00000000000E+00 0.  1.
         23    2    1    2    0    0 -0.13847161702E+04  0.98823176660E+02  0.27525307363E+04  0.30841511916E+04  0.91423333989E+02 0.  0.
    5000000    2    1    2    0    0  0.13847161702E+04 -0.98823176660E+02 -0.14184735366E+04  0.20735378285E+04  0.60023916916E+03 0.  0.
         23    2    4    4    0    0  0.11366335386E+04  0.10201770100E+02 -0.80246288819E+03  0.13944227116E+04  0.91804871066E+02 0.  0.
         23    2    4    4    0    0  0.24808263156E+03 -0.10902494676E+03 -0.61601064837E+03  0.67911511697E+03  0.91086728366E+02 0.  0.
          4    1    3    3  502    0 -0.35617992601E+03  0.29554705152E+02  0.62328161061E+03  0.71848283655E+03  0.00000000000E+00 0. -1.
         -4    1    3    3    0  502 -0.10285362442E+04  0.69268471508E+02  0.21292491257E+04  0.23656683551E+04  0.00000000000E+00 0.  1.
         11    1    5    5    0    0  0.45610954471E+03  0.20347740371E+02 -0.27130939309E+03  0.53109202036E+03  0.00000000000E+00 0. -1.
        -11    1    5    5    0    0  0.68052399394E+03 -0.10145970271E+02 -0.53115349510E+03  0.86333069122E+03  0.00000000000E+00 0.  1.
          2    1    6    6  503    0  0.11914352991E+03 -0.68512320705E+02 -0.20802784809E+03  0.24932850697E+03  0.00000000000E+00 0.  1.
         -2    1    6    6    0  503  0.12893910166E+03 -0.40512626055E+02 -0.40798280028E+03  0.42978660999E+03  0.00000000000E+00 0. -1.
<mgrwt>
<rscale>  0 0.13990122E+04</rscale>
<asrwt>0</asrwt>
<pdfrwt beam="1">  1        2 0.49936509E+00 0.13990122E+04</pdfrwt>
<pdfrwt beam="2">  1       -2 0.29412552E+00 0.13990122E+04</pdfrwt>
<totfact> 0.40035842E-02</totfact>
</mgrwt>
</event>
<event>
12    1  0.1338445E-007  0.6059986E+03  0.7818608E-02  0.9893038E-01
         -1   -1    0    0    0  501 -0.00000000000E+00  0.00000000000E+00  0.22761212594E+03  0.22761212594E+03  0.00000000000E+00 0.  1.
          1   -1    0    0  501    0  0.00000000000E+00 -0.00000000000E+00 -0.19966362610E+04  0.19966362610E+04  0.00000000000E+00 0. -1.
         23    2    1    2    0    0 -0.49210735616E+03  0.18983097795E+02 -0.10554658018E+04  0.11698087939E+04  0.10915377897E+03 0.  0.
    5000000    2    1    2    0    0  0.49210735616E+03 -0.18983097795E+02 -0.71355833321E+03  0.10544395930E+04  0.60012278115E+03 0.  0.
         23    2    4    4    0    0  0.53295219222E+03  0.11562019443E+03 -0.69275839147E+03  0.88577379508E+03  0.85293367568E+02 0.  0.
         23    2    4    4    0    0 -0.40844836055E+02 -0.13460329223E+03 -0.20799941749E+02  0.16866579795E+03  0.90714755746E+02 0.  0.
          4    1    3    3  502    0 -0.10120778594E+03 -0.32779705809E+02 -0.17043738119E+03  0.20091397651E+03  0.00000000000E+00 0. -1.
         -4    1    3    3    0  502 -0.39089957022E+03  0.51762803604E+02 -0.88502842066E+03  0.96889481741E+03  0.00000000000E+00 0.  1.
         13    1    5    5    0    0  0.18919576778E+03  0.49827072496E+02 -0.31487692396E+03  0.37070912175E+03  0.00000000000E+00 0.  1.
        -13    1    5    5    0    0  0.34375642443E+03  0.65793121938E+02 -0.37788146750E+03  0.51506467333E+03  0.00000000000E+00 0. -1.
          2    1    6    6  503    0 -0.52313529009E+02 -0.29752769812E+02  0.39942980327E+01  0.60314899035E+02  0.00000000000E+00 0. -1.
         -2    1    6    6    0  503  0.11468692954E+02 -0.10485052242E+03 -0.24794239781E+02  0.10835089891E+03  0.00000000000E+00 0.  1.
<mgrwt>
<rscale>  0 0.60599861E+03</rscale>
<asrwt>0</asrwt>
<pdfrwt beam="1">  1        1 0.30717480E+00 0.60599861E+03</pdfrwt>
<pdfrwt beam="2">  1       -1 0.35017251E-01 0.60599861E+03</pdfrwt>
<totfact> 0.24667717E+01</totfact>
</mgrwt>
</event>
<event>
12    1  0.1338445E-007  0.1175227E+04  0.7818608E-02  0.9134821E-01
          1   -1    0    0  501    0  0.00000000000E+00  0.00000000000E+00  0.72665977996E+03  0.72665977996E+03  0.00000000000E+00 0. -1.
         -1   -1    0    0    0  501 -0.00000000000E+00 -0.00000000000E+00 -0.25263309937E+04  0.25263309937E+04  0.00000000000E+00 0.  1.
         23    2    1    2    0    0 -0.11527591643E+04  0.14451658018E+03 -0.19245751441E+03  0.11811332194E+04  0.91088168479E+02 0.  0.
    5000000    2    1    2    0    0  0.11527591643E+04 -0.14451658018E+03 -0.16072136993E+04  0.20718575542E+04  0.59976588506E+03 0.  0.
         23    2    4    4    0    0  0.62718598918E+03  0.13192471402E+02 -0.12751492022E+04  0.14240212214E+04  0.91074941303E+02 0.  0.
         23    2    4    4    0    0  0.52557317509E+03 -0.15770905158E+03 -0.33206449710E+03  0.64783633275E+03  0.91245692855E+02 0.  0.
          3    1    3    3  502    0 -0.76593755287E+03  0.11251082522E+03 -0.16829293336E+03  0.79223830513E+03  0.00000000000E+00 0. -1.
         -3    1    3    3    0  502 -0.38682161140E+03  0.32005754958E+02 -0.24164581053E+02  0.38889491430E+03  0.00000000000E+00 0.  1.
         13    1    5    5    0    0  0.24167251504E+03 -0.36840592961E+02 -0.52496309254E+03  0.57909332784E+03  0.00000000000E+00 0. -1.
        -13    1    5    5    0    0  0.38551347414E+03  0.50033064363E+02 -0.75018610964E+03  0.84492789360E+03  0.00000000000E+00 0.  1.
          2    1    6    6  503    0  0.56410277604E+02 -0.45687058423E+02 -0.28946796496E+02  0.78149496186E+02  0.00000000000E+00 0. -1.
         -2    1    6    6    0  503  0.46916289749E+03 -0.11202199316E+03 -0.30311770061E+03  0.56968683656E+03  0.00000000000E+00 0.  1.
<mgrwt>
<rscale>  0 0.11752268E+04</rscale>
<asrwt>0</asrwt>
<pdfrwt beam="1">  1        1 0.11179381E+00 0.11752268E+04</pdfrwt>
<pdfrwt beam="2">  1       -1 0.38866631E+00 0.11752268E+04</pdfrwt>
<totfact> 0.21930382E-01</totfact>
</mgrwt>
</event>
<event>
12    1  0.1338445E-007  0.1737497E+04  0.7818608E-02  0.8740263E-01
         -1   -1    0    0    0  501 -0.00000000000E+00  0.00000000000E+00  0.69379156872E+03  0.69379156872E+03  0.00000000000E+00 0. -1.
          1   -1    0    0  501    0  0.00000000000E+00 -0.00000000000E+00 -0.46579256275E+04  0.46579256275E+04  0.00000000000E+00 0.  1.
         23    2    1    2    0    0  0.83841225468E+03 -0.15055457541E+04 -0.15066853985E+04  0.22908996848E+04  0.92289487409E+02 0.  0.
    5000000    2    1    2    0    0 -0.83841225468E+03  0.15055457541E+04 -0.24574486603E+04  0.30608175114E+04  0.59995565988E+03 0.  0.
         23    2    4    4    0    0 -0.57838007658E+03  0.12360121558E+04 -0.15078024610E+04  0.20357986343E+04  0.93585554022E+02 0.  0.
         23    2    4    4    0    0 -0.26003217809E+03  0.26953359828E+03 -0.94964619929E+03  0.10250188771E+04  0.92578076740E+02 0.  0.
          3    1    3    3  502    0  0.56017205194E+03 -0.10679452145E+04 -0.10925769686E+04  0.16272750663E+04  0.00000000000E+00 0. -1.
         -3    1    3    3    0  502  0.27824020274E+03 -0.43760053958E+03 -0.41410842984E+03  0.66362461854E+03  0.00000000000E+00 0.  1.
         11    1    5    5    0    0 -0.38815775161E+03  0.81322358750E+03 -0.10596615249E+04  0.13910002123E+04  0.00000000000E+00 0.  1.
        -11    1    5    5    0    0 -0.19022232498E+03  0.42278856827E+03 -0.44814093615E+03  0.64479842201E+03  0.00000000000E+00 0. -1.
          3    1    6    6  503    0 -0.88275068983E+02  0.34765746888E+02 -0.22817966436E+03  0.24711759182E+03  0.00000000000E+00 0. -1.
         -3    1    6    6    0  503 -0.17175710911E+03  0.23476785139E+03 -0.72146653493E+03  0.77790128526E+03  0.00000000000E+00 0.  1.
<mgrwt>
<rscale>  0 0.17374972E+04</rscale>
<asrwt>0</asrwt>
<pdfrwt beam="1">  1        1 0.71660393E+00 0.17374972E+04</pdfrwt>
<pdfrwt beam="2">  1       -1 0.10673717E+00 0.17374972E+04</pdfrwt>
<totfact> 0.17023895E-02</totfact>
</mgrwt>
</event>
<event>
12    1  0.1338445E-007  0.6158353E+03  0.7818608E-02  0.9873087E-01
         -1   -1    0    0    0  501 -0.00000000000E+00  0.00000000000E+00  0.87206038821E+03  0.87206038821E+03  0.00000000000E+00 0.  1.
          1   -1    0    0  501    0  0.00000000000E+00 -0.00000000000E+00 -0.50217648029E+03  0.50217648029E+03  0.00000000000E+00 0. -1.
         23    2    1    2    0    0  0.56444375168E+02  0.51773397250E+03  0.15637674834E+03  0.55176195120E+03  0.93558161596E+02 0.  0.
    5000000    2    1    2    0    0 -0.56444375168E+02 -0.51773397250E+03  0.21350715958E+03  0.82247491731E+03  0.59970430101E+03 0.  0.
         23    2    4    4    0    0  0.19918042645E+03 -0.26657920148E+03  0.28367321974E+03  0.44622128386E+03  0.88913585166E+02 0.  0.
         23    2    4    4    0    0 -0.25562480161E+03 -0.25115477101E+03 -0.70166060157E+02  0.37625363345E+03  0.90668420556E+02 0.  0.
          3    1    3    3  502    0  0.38509763716E+02  0.28021842703E+03  0.36787275023E+02  0.28523441650E+03  0.00000000000E+00 0. -1.
         -3    1    3    3    0  502  0.17934611452E+02  0.23751554546E+03  0.11958947332E+03  0.26652753470E+03  0.00000000000E+00 0.  1.
         13    1    5    5    0    0  0.36389527110E+02 -0.57706830507E+01  0.34631496263E+02  0.50565195536E+02  0.00000000000E+00 0. -1.
        -13    1    5    5    0    0  0.16279089934E+03 -0.26080851843E+03  0.24904172348E+03  0.39565608832E+03  0.00000000000E+00 0.  1.
          1    1    6    6  503    0 -0.86109995000E+02 -0.38333371934E+02 -0.40395814410E+02  0.10254852736E+03  0.00000000000E+00 0. -1.
         -1    1    6    6    0  503 -0.16951480661E+03 -0.21282139908E+03 -0.29770245747E+02  0.27370510609E+03  0.00000000000E+00 0.  1.
<mgrwt>
<rscale>  0 0.61583532E+03</rscale>
<asrwt>0</asrwt>
<pdfrwt beam="1">  1        1 0.77257920E-01 0.61583532E+03</pdfrwt>
<pdfrwt beam="2">  1       -1 0.13416314E+00 0.61583532E+03</pdfrwt>
<totfact> 0.21484192E+01</totfact>
</mgrwt>
</event>
<event>
12    1  0.1347412E-007  0.1308099E+04  0.7818608E-02  0.9023167E-01
         -1   -1    0    0    0  501 -0.00000000000E+00  0.00000000000E+00  0.11657600092E+04  0.11657600092E+04  0.00000000000E+00 0.  1.
          1   -1    0    0  501    0  0.00000000000E+00 -0.00000000000E+00 -0.16544723996E+04  0.16544723996E+04  0.00000000000E+00 0. -1.
         23    2    1    2    0    0  0.10397715992E+04 -0.72620177797E+03 -0.61298981218E+03  0.14116871571E+04  0.92790726088E+02 0.  0.
    5000000    2    1    2    0    0 -0.10397715992E+04  0.72620177797E+03  0.12427742184E+03  0.14085452517E+04  0.60005070415E+03 0.  0.
         23    2    4    4    0    0 -0.64900255024E+02  0.22728856728E+03  0.17716715341E+03  0.30857777864E+03  0.89218323828E+02 0.  0.
         23    2    4    4    0    0 -0.97487134419E+03  0.49891321069E+03 -0.52889731573E+02  0.10999674730E+04  0.88558390203E+02 0.  0.
          1    1    3    3  502    0  0.69653691729E+03 -0.44632425686E+03 -0.36625718657E+03  0.90471727413E+03  0.00000000000E+00 0. -1.
         -1    1    3    3    0  502  0.34323468193E+03 -0.27987752111E+03 -0.24673262561E+03  0.50696988297E+03  0.00000000000E+00 0.  1.
         11    1    5    5    0    0 -0.77506924691E+02  0.14057934877E+03  0.14144611282E+03  0.21395532129E+03  0.00000000000E+00 0.  1.
        -11    1    5    5    0    0  0.12606669667E+02  0.86709218512E+02  0.35721040584E+02  0.94622457353E+02  0.00000000000E+00 0. -1.
          3    1    6    6  503    0 -0.51519575967E+03  0.21979441015E+03 -0.47857461233E+02  0.56216242324E+03  0.00000000000E+00 0. -1.
         -3    1    6    6    0  503 -0.45967558452E+03  0.27911880054E+03 -0.50322703396E+01  0.53780504978E+03  0.00000000000E+00 0.  1.
<mgrwt>
<rscale>  0 0.13080993E+04</rscale>
<asrwt>0</asrwt>
<pdfrwt beam="1">  1        1 0.25453422E+00 0.13080993E+04</pdfrwt>
<pdfrwt beam="2">  1       -1 0.17934769E+00 0.13080993E+04</pdfrwt>
<totfact> 0.10424169E+00</totfact>
</mgrwt>
</event>
<event>
12    1  0.1338445E-007  0.1237715E+04  0.7818608E-02  0.9080471E-01
         -1   -1    0    0    0  501 -0.00000000000E+00  0.00000000000E+00  0.16974228662E+04  0.16974228662E+04  0.00000000000E+00 0.  1.
          1   -1    0    0  501    0  0.00000000000E+00 -0.00000000000E+00 -0.13127313917E+04  0.13127313917E+04  0.00000000000E+00 0. -1.
         23    2    1    2    0    0 -0.10729458684E+04 -0.55666415452E+03  0.95680534059E+03  0.15443520296E+04  0.91972354837E+02 0.  0.
    5000000    2    1    2    0    0  0.10729458684E+04  0.55666415452E+03 -0.57211386610E+03  0.14658022284E+04  0.60014504874E+03 0.  0.
         23    2    4    4    0    0  0.67920626441E+03  0.54442123312E+03 -0.59786949857E+03  0.10596680266E+04  0.87936116826E+02 0.  0.
         23    2    4    4    0    0  0.39373960397E+03  0.12242921400E+02  0.25755632474E+02  0.40613420175E+03  0.95398492488E+02 0.  0.
          3    1    3    3  502    0 -0.66438502383E+03 -0.30690406181E+03  0.53995945723E+03  0.90947994947E+03  0.00000000000E+00 0. -1.
         -3    1    3    3    0  502 -0.40856084455E+03 -0.24976009271E+03  0.41684588336E+03  0.63487208010E+03  0.00000000000E+00 0.  1.
         13    1    5    5    0    0  0.65750875048E+02  0.57076015485E+02 -0.30207386510E+02  0.92159293145E+02  0.00000000000E+00 0.  1.
        -13    1    5    5    0    0  0.61345538936E+03  0.48734521764E+03 -0.56766211206E+03  0.96750873348E+03  0.00000000000E+00 0. -1.
          1    1    6    6  503    0  0.18502747336E+03 -0.13466319270E+01 -0.35045296971E+02  0.18832193753E+03  0.00000000000E+00 0. -1.
         -1    1    6    6    0  503  0.20871213061E+03  0.13589553327E+02  0.60800929445E+02  0.21781226422E+03  0.00000000000E+00 0.  1.
<mgrwt>
<rscale>  0 0.12377148E+04</rscale>
<asrwt>0</asrwt>
<pdfrwt beam="1">  1        1 0.20195868E+00 0.12377148E+04</pdfrwt>
<pdfrwt beam="2">  1       -1 0.26114198E+00 0.12377148E+04</pdfrwt>
<totfact> 0.51032506E-01</totfact>
</mgrwt>
</event>
<event>
12    1  0.1338445E-007  0.8656520E+03  0.7818608E-02  0.9469567E-01
          2   -1    0    0  501    0  0.00000000000E+00  0.00000000000E+00  0.15558654597E+04  0.15558654597E+04  0.00000000000E+00 0.  1.
         -2   -1    0    0    0  501 -0.00000000000E+00 -0.00000000000E+00 -0.61181010082E+03  0.61181010082E+03  0.00000000000E+00 0. -1.
         23    2    1    2    0    0  0.81723114979E+01 -0.76193380927E+03 -0.62496831632E+02  0.76993732876E+03  0.91036914826E+02 0.  0.
    5000000    2    1    2    0    0 -0.81723114979E+01  0.76193380927E+03  0.10065521906E+04  0.13977382318E+04  0.59992910909E+03 0.  0.
         23    2    4    4    0    0 -0.47798020709E+02  0.83670834317E+03  0.90729330405E+03  0.12384876934E+04  0.91132457308E+02 0.  0.
         23    2    4    4    0    0  0.39625709211E+02 -0.74774533898E+02  0.99258886512E+02  0.15925053842E+03  0.91361806492E+02 0.  0.
          4    1    3    3  502    0  0.30990713253E+02 -0.34668425383E+03  0.78415119317E+01  0.34815497336E+03  0.00000000000E+00 0.  1.
         -4    1    3    3    0  502 -0.22818401755E+02 -0.41524955544E+03 -0.70338343564E+02  0.42178235540E+03  0.00000000000E+00 0. -1.
         11    1    5    5    0    0 -0.17306747346E+02  0.76206100416E+03  0.81422700886E+03  0.11153484297E+04  0.00000000000E+00 0.  1.
        -11    1    5    5    0    0 -0.30491273362E+02  0.74647339008E+02  0.93066295189E+02  0.12313926373E+03  0.00000000000E+00 0. -1.
          3    1    6    6  503    0 -0.28937564616E+02 -0.34200124646E+02  0.38181055227E+02  0.58862756900E+02  0.00000000000E+00 0. -1.
         -3    1    6    6    0  503  0.68563273827E+02 -0.40574409252E+02  0.61077831285E+02  0.10038778152E+03  0.00000000000E+00 0.  1.
<mgrwt>
<rscale>  0 0.86565203E+03</rscale>
<asrwt>0</asrwt>
<pdfrwt beam="1">  1        2 0.23936392E+00 0.86565203E+03</pdfrwt>
<pdfrwt beam="2">  1       -2 0.94124631E-01 0.86565203E+03</pdfrwt>
<totfact> 0.11365856E+01</totfact>
</mgrwt>
</event>
<event>
12    1  0.1338445E-007  0.2107917E+04  0.7818608E-02  0.8557764E-01
         -2   -1    0    0    0  501 -0.00000000000E+00  0.00000000000E+00  0.13181709414E+04  0.13181709414E+04  0.00000000000E+00 0.  1.
          2   -1    0    0  501    0  0.00000000000E+00 -0.00000000000E+00 -0.36333167560E+04  0.36333167560E+04  0.00000000000E+00 0. -1.
         23    2    1    2    0    0 -0.20959885315E+04  0.19724572117E+03 -0.16082101960E+04  0.26510781021E+04  0.99001365431E+02 0.  0.
    5000000    2    1    2    0    0  0.20959885315E+04 -0.19724572117E+03 -0.70693561860E+03  0.23004095952E+04  0.60004378020E+03 0.  0.
         23    2    4    4    0    0  0.60034681918E+03 -0.34151235557E+02 -0.48228172706E+03  0.77615285831E+03  0.90746818237E+02 0.  0.
         23    2    4    4    0    0  0.14956417124E+04 -0.16309448561E+03 -0.22465389154E+03  0.15242567369E+04  0.96671019978E+02 0.  0.
          1    1    3    3  502    0 -0.15714002329E+04  0.10621128944E+03 -0.12161048134E+04  0.19898468402E+04  0.00000000000E+00 0. -1.
         -1    1    3    3    0  502 -0.52458829863E+03  0.91034431730E+02 -0.39210538251E+03  0.66123126198E+03  0.00000000000E+00 0.  1.
         13    1    5    5    0    0  0.20532751972E+03 -0.35277607963E+02 -0.21386080231E+03  0.29856380012E+03  0.00000000000E+00 0.  1.
        -13    1    5    5    0    0  0.39501929946E+03  0.11263724061E+01 -0.26842092475E+03  0.47758905819E+03  0.00000000000E+00 0. -1.
          1    1    6    6  503    0  0.94208157080E+03 -0.82862574333E+02 -0.18387298759E+03  0.96342782181E+03  0.00000000000E+00 0. -1.
         -1    1    6    6    0  503  0.55356014157E+03 -0.80231911280E+02 -0.40780903953E+02  0.56082891513E+03  0.00000000000E+00 0.  1.
<mgrwt>
<rscale>  0 0.21079170E+04</rscale>
<asrwt>0</asrwt>
<pdfrwt beam="1">  1        2 0.55897180E+00 0.21079170E+04</pdfrwt>
<pdfrwt beam="2">  1       -2 0.20279553E+00 0.21079170E+04</pdfrwt>
<totfact> 0.73656854E-02</totfact>
</mgrwt>
</event>
<event>
12    1  0.1338445E-007  0.1723791E+04  0.7818608E-02  0.8747911E-01
          2   -1    0    0  501    0  0.00000000000E+00  0.00000000000E+00  0.27982207133E+04  0.27982207133E+04  0.00000000000E+00 0. -1.
         -2   -1    0    0    0  501 -0.00000000000E+00 -0.00000000000E+00 -0.11137337781E+04  0.11137337781E+04  0.00000000000E+00 0.  1.
         23    2    1    2    0    0 -0.15140345847E+04 -0.73465371495E+03  0.11731662308E+04  0.20535177248E+04  0.92732067830E+02 0.  0.
    5000000    2    1    2    0    0  0.15140345847E+04  0.73465371495E+03  0.51132070448E+03  0.18584367666E+04  0.60026789685E+03 0.  0.
         23    2    4    4    0    0  0.44912068617E+03 -0.15686844844E+02  0.67332792513E+01  0.45850282599E+03  0.90686473904E+02 0.  0.
         23    2    4    4    0    0  0.10649138985E+04  0.75034055979E+03  0.50458742523E+03  0.13999339406E+04  0.90299509146E+02 0.  0.
          1    1    3    3  502    0 -0.99292705436E+03 -0.52700616516E+03  0.76309473423E+03  0.13586586057E+04  0.00000000000E+00 0. -1.
         -1    1    3    3    0  502 -0.52110753034E+03 -0.20764754979E+03  0.41007149656E+03  0.69485911911E+03  0.00000000000E+00 0.  1.
         13    1    5    5    0    0  0.31095825584E+03  0.31213694118E+02  0.68908109342E+01  0.31259688874E+03  0.00000000000E+00 0.  1.
        -13    1    5    5    0    0  0.13816243033E+03 -0.46900538962E+02 -0.15753168287E+00  0.14590593725E+03  0.00000000000E+00 0. -1.
          4    1    6    6  503    0  0.91124360994E+03  0.61547792480E+03  0.45140786776E+03  0.11886744952E+04  0.00000000000E+00 0. -1.
         -4    1    6    6    0  503  0.15367028860E+03  0.13486263500E+03  0.53179557469E+02  0.21125944535E+03  0.00000000000E+00 0.  1.
<mgrwt>
<rscale>  0 0.17237910E+04</rscale>
<asrwt>0</asrwt>
<pdfrwt beam="1">  1        2 0.43049549E+00 0.17237910E+04</pdfrwt>
<pdfrwt beam="2">  1       -2 0.17134366E+00 0.17237910E+04</pdfrwt>
<totfact> 0.44552929E-01</totfact>
</mgrwt>
</event>
<event>
12    1  0.1338445E-007  0.1594806E+04  0.7818608E-02  0.8823745E-01
         -2   -1    0    0    0  501 -0.00000000000E+00  0.00000000000E+00  0.10884664441E+04  0.10884664441E+04  0.00000000000E+00 0.  1.
          2   -1    0    0  501    0  0.00000000000E+00 -0.00000000000E+00 -0.27928362674E+04  0.27928362674E+04  0.00000000000E+00 0. -1.
         23    2    1    2    0    0  0.61141580847E+03  0.14235846989E+04 -0.74776539507E+02  0.15541190790E+04  0.96290679333E+02 0.  0.
    5000000    2    1    2    0    0 -0.61141580847E+03 -0.14235846989E+04 -0.16295932838E+04  0.23271836326E+04  0.59982222643E+03 0.  0.
         23    2    4    4    0    0 -0.12160812372E+03 -0.91629721814E+03 -0.11048092075E+04  0.14433805064E+04  0.91404450056E+02 0.  0.
         23    2    4    4    0    0 -0.48980768475E+03 -0.50728748077E+03 -0.52478407625E+03  0.88380312616E+03  0.91964574430E+02 0.  0.
          3    1    3    3  502    0  0.21332580496E+03  0.38682802028E+03 -0.23771409302E+02  0.44238998207E+03  0.00000000000E+00 0. -1.
         -3    1    3    3    0  502  0.39809000351E+03  0.10367566786E+04 -0.51005130205E+02  0.11117290969E+04  0.00000000000E+00 0.  1.
         13    1    5    5    0    0 -0.13632088070E+03 -0.78963157804E+03 -0.95548781766E+03  0.12470197999E+04  0.00000000000E+00 0. -1.
        -13    1    5    5    0    0  0.14712756975E+02 -0.12666564010E+03 -0.14932138985E+03  0.19636070653E+03  0.00000000000E+00 0.  1.
          1    1    6    6  503    0 -0.93052436199E+02 -0.60703874651E+02 -0.55779165363E+02  0.12431826724E+03  0.00000000000E+00 0. -1.
         -1    1    6    6    0  503 -0.39675524855E+03 -0.44658360612E+03 -0.46900491089E+03  0.75948485893E+03  0.00000000000E+00 0.  1.
<mgrwt>
<rscale>  0 0.15948059E+04</rscale>
<asrwt>0</asrwt>
<pdfrwt beam="1">  1        2 0.42966712E+00 0.15948059E+04</pdfrwt>
<pdfrwt beam="2">  1       -2 0.16745638E+00 0.15948059E+04</pdfrwt>
<totfact> 0.48504802E-01</totfact>
</mgrwt>
</event>
<event>
12    1  0.1338445E-007  0.5410407E+03  0.7818608E-02  0.1003589E+00
          2   -1    0    0  501    0  0.00000000000E+00  0.00000000000E+00  0.18142764226E+04  0.18142764226E+04  0.00000000000E+00 0. -1.
         -2   -1    0    0    0  501 -0.00000000000E+00 -0.00000000000E+00 -0.22675538259E+03  0.22675538259E+03  0.00000000000E+00 0.  1.
         23    2    1    2    0    0  0.46662600949E+02 -0.49294175455E+03  0.67606919583E+03  0.84272717138E+03  0.89165891069E+02 0.  0.
    5000000    2    1    2    0    0 -0.46662600949E+02  0.49294175455E+03  0.91145184413E+03  0.11983046338E+04  0.60001713261E+03 0.  0.
         23    2    4    4    0    0  0.10639087161E+03  0.16870558154E+03  0.77273023979E+03  0.80321946443E+03  0.90933457782E+02 0.  0.
         23    2    4    4    0    0 -0.15305347256E+03  0.32423617301E+03  0.13872160434E+03  0.39508516933E+03  0.91072203046E+02 0.  0.
          3    1    3    3  502    0  0.47110822768E+02 -0.13741146643E+03  0.23409845200E+03  0.27550576392E+03  0.00000000000E+00 0. -1.
         -3    1    3    3    0  502 -0.44822181928E+00 -0.35553028812E+03  0.44197074383E+03  0.56722140746E+03  0.00000000000E+00 0.  1.
         11    1    5    5    0    0  0.19631965498E+02 -0.83489192402E+01  0.58279563625E+02  0.62061469996E+02  0.00000000000E+00 0.  1.
        -11    1    5    5    0    0  0.86758906113E+02  0.17705450078E+03  0.71445067617E+03  0.74115799444E+03  0.00000000000E+00 0. -1.
          1    1    6    6  503    0 -0.14953999872E+03  0.27171374536E+03  0.14444917574E+03  0.34213467379E+03  0.00000000000E+00 0. -1.
         -1    1    6    6    0  503 -0.35134738420E+01  0.52522427648E+02 -0.57275714055E+01  0.52950495547E+02  0.00000000000E+00 0.  1.
<mgrwt>
<rscale>  0 0.54104070E+03</rscale>
<asrwt>0</asrwt>
<pdfrwt beam="1">  1        2 0.27911944E+00 0.54104070E+03</pdfrwt>
<pdfrwt beam="2">  1       -2 0.34885445E-01 0.54104070E+03</pdfrwt>
<totfact> 0.68754023E+01</totfact>
</mgrwt>
</event>
<event>
12    1  0.1338445E-007  0.6773636E+03  0.7818608E-02  0.9756746E-01
         -2   -1    0    0    0  501 -0.00000000000E+00  0.00000000000E+00  0.29180119168E+03  0.29180119168E+03  0.00000000000E+00 0.  1.
          2   -1    0    0  501    0  0.00000000000E+00 -0.00000000000E+00 -0.24706552471E+04  0.24706552471E+04  0.00000000000E+00 0. -1.
         23    2    1    2    0    0  0.24379920682E+03 -0.48912929604E+03 -0.17679680264E+04  0.18528307341E+04  0.92656707624E+02 0.  0.
    5000000    2    1    2    0    0 -0.24379920682E+03  0.48912929604E+03 -0.41088602900E+03  0.90962570464E+03  0.59992172174E+03 0.  0.
         23    2    4    4    0    0 -0.40799728642E+03  0.19379791858E+03 -0.22213340052E+03  0.51178208767E+03  0.92510748943E+02 0.  0.
         23    2    4    4    0    0  0.16419807960E+03  0.29533137747E+03 -0.18875262848E+03  0.39784361696E+03  0.92034542095E+02 0.  0.
          3    1    3    3  502    0  0.25328653636E+02 -0.14128425987E+03 -0.45074295705E+03  0.47304544825E+03  0.00000000000E+00 0.  1.
         -3    1    3    3    0  502  0.21847055318E+03 -0.34784503617E+03 -0.13172250693E+04  0.13797852859E+04  0.00000000000E+00 0. -1.
         13    1    5    5    0    0 -0.14422063362E+03  0.97940129621E+02 -0.45506684472E+02  0.18017413378E+03  0.00000000000E+00 0. -1.
        -13    1    5    5    0    0 -0.26377665280E+03  0.95857788954E+02 -0.17662671604E+03  0.33160795389E+03  0.00000000000E+00 0.  1.
          2    1    6    6  503    0  0.98884078844E+02  0.10507998493E+03 -0.46958455233E+02  0.15173977989E+03  0.00000000000E+00 0. -1.
         -2    1    6    6    0  503  0.65314000753E+02  0.19025139254E+03 -0.14179417325E+03  0.24610383708E+03  0.00000000000E+00 0.  1.
<mgrwt>
<rscale>  0 0.67736357E+03</rscale>
<asrwt>0</asrwt>
<pdfrwt beam="1">  1        2 0.38010082E+00 0.67736357E+03</pdfrwt>
<pdfrwt beam="2">  1       -2 0.44892490E-01 0.67736357E+03</pdfrwt>
<totfact> 0.18023085E+01</totfact>
</mgrwt>
</event>
<event>
12    1  0.1634765E-007  0.1584965E+04  0.7818608E-02  0.8829838E-01
          1   -1    0    0  501    0  0.00000000000E+00  0.00000000000E+00  0.14107369787E+04  0.14107369787E+04  0.00000000000E+00 0. -1.
         -1   -1    0    0    0  501 -0.00000000000E+00 -0.00000000000E+00 -0.18537550972E+04  0.18537550972E+04  0.00000000000E+00 0.  1.
         23    2    1    2    0    0  0.38390538343E+03 -0.15107866033E+04 -0.15123088677E+03  0.15688250566E+04  0.92096541064E+02 0.  0.
    5000000    2    1    2    0    0 -0.38390538343E+03  0.15107866033E+04 -0.29178723174E+03  0.16956670194E+04  0.60023940880E+03 0.  0.
         23    2    4    4    0    0 -0.65062171326E+02  0.26478784203E+02 -0.11817931688E+03  0.16489021369E+03  0.91039658841E+02 0.  0.
         23    2    4    4    0    0 -0.31884321211E+03  0.14843078191E+04 -0.17360791486E+03  0.15307768057E+04  0.91143979541E+02 0.  0.
          1    1    3    3  502    0  0.19997205666E+03 -0.61500486508E+03 -0.46309586183E+02  0.64835513824E+03  0.00000000000E+00 0. -1.
         -1    1    3    3    0  502  0.18393332677E+03 -0.89578173824E+03 -0.10492130059E+03  0.92046991834E+03  0.00000000000E+00 0.  1.
         13    1    5    5    0    0 -0.22562945893E+01 -0.15099491182E+02 -0.78082254494E+02  0.79560819290E+02  0.00000000000E+00 0. -1.
        -13    1    5    5    0    0 -0.62805876736E+02  0.41578275385E+02 -0.40097062388E+02  0.85329394401E+02  0.00000000000E+00 0.  1.
          2    1    6    6  503    0 -0.12649280329E+03  0.59693001644E+03 -0.11478546444E+03  0.62088773273E+03  0.00000000000E+00 0. -1.
         -2    1    6    6    0  503 -0.19235040882E+03  0.88737780267E+03 -0.58822450427E+02  0.90988907297E+03  0.00000000000E+00 0.  1.
<mgrwt>
<rscale>  0 0.15849646E+04</rscale>
<asrwt>0</asrwt>
<pdfrwt beam="1">  1        1 0.21703646E+00 0.15849646E+04</pdfrwt>
<pdfrwt beam="2">  1       -1 0.28519309E+00 0.15849646E+04</pdfrwt>
<totfact> 0.29160578E-01</totfact>
</mgrwt>
</event>
<event>
12    1  0.1338445E-007  0.1208591E+04  0.7818608E-02  0.9105370E-01
          1   -1    0    0  501    0  0.00000000000E+00  0.00000000000E+00  0.29199727589E+04  0.29199727589E+04  0.00000000000E+00 0. -1.
         -1   -1    0    0    0  501 -0.00000000000E+00 -0.00000000000E+00 -0.52825618476E+03  0.52825618476E+03  0.00000000000E+00 0.  1.
         23    2    1    2    0    0  0.11578589249E+04 -0.86022777665E+02  0.95631212018E+03  0.15070079120E+04  0.92210450410E+02 0.  0.
    5000000    2    1    2    0    0 -0.11578589249E+04  0.86022777665E+02  0.14354044540E+04  0.19412210317E+04  0.59992994518E+03 0.  0.
         23    2    4    4    0    0 -0.43431217138E+02 -0.11223848945E+03  0.29693360683E+03  0.33306425162E+03  0.90986151190E+02 0.  0.
         23    2    4    4    0    0 -0.11144277078E+04  0.19826126712E+03  0.11384708471E+04  0.16081567801E+04  0.93785465749E+02 0.  0.
          3    1    3    3  502    0  0.31956636251E+02 -0.17460128204E+02  0.24150352904E+02  0.43695791820E+02  0.00000000000E+00 0. -1.
         -3    1    3    3    0  502  0.11259022887E+04 -0.68562649461E+02  0.93216176728E+03  0.14633121201E+04  0.00000000000E+00 0.  1.
         13    1    5    5    0    0 -0.11129457972E+02 -0.17530451095E+02  0.17080645967E+03  0.17206402360E+03  0.00000000000E+00 0.  1.
        -13    1    5    5    0    0 -0.32301759166E+02 -0.94708038358E+02  0.12612714715E+03  0.16100022802E+03  0.00000000000E+00 0. -1.
          1    1    6    6  503    0 -0.51881386883E+03  0.88694469770E+02  0.46360231288E+03  0.70139977472E+03  0.00000000000E+00 0. -1.
         -1    1    6    6    0  503 -0.59561383897E+03  0.10956679735E+03  0.67486853426E+03  0.90675700537E+03  0.00000000000E+00 0.  1.
<mgrwt>
<rscale>  0 0.12085909E+04</rscale>
<asrwt>0</asrwt>
<pdfrwt beam="1">  1        1 0.44922657E+00 0.12085909E+04</pdfrwt>
<pdfrwt beam="2">  1       -1 0.81270184E-01 0.12085909E+04</pdfrwt>
<totfact> 0.10261913E+00</totfact>
</mgrwt>
</event>
<event>
12    1  0.1338445E-007  0.5468766E+03  0.7818608E-02  0.1002219E+00
          2   -1    0    0  501    0  0.00000000000E+00  0.00000000000E+00  0.82376115668E+03  0.82376115668E+03  0.00000000000E+00 0. -1.
         -2   -1    0    0    0  501 -0.00000000000E+00 -0.00000000000E+00 -0.44200962122E+03  0.44200962122E+03  0.00000000000E+00 0.  1.
         23    2    1    2    0    0 -0.43540879274E+03 -0.10544560858E+03  0.15699852192E+03  0.48391787004E+03  0.93959437472E+02 0.  0.
    5000000    2    1    2    0    0  0.43540879274E+03  0.10544560858E+03  0.22475301354E+03  0.78185290787E+03  0.60006704565E+03 0.  0.
         23    2    4    4    0    0 -0.73065431243E+02 -0.67157735374E+02  0.19423107927E+03  0.23631447916E+03  0.90940102493E+02 0.  0.
         23    2    4    4    0    0  0.50847422398E+03  0.17260334396E+03  0.30521934272E+02  0.54553842871E+03  0.91338042054E+02 0.  0.
          3    1    3    3  502    0 -0.61095212333E+02 -0.17752833644E+00  0.54328599980E+02  0.81757282624E+02  0.00000000000E+00 0. -1.
         -3    1    3    3    0  502 -0.37431358041E+03 -0.10526808025E+03  0.10266992194E+03  0.40216058741E+03  0.00000000000E+00 0.  1.
         11    1    5    5    0    0 -0.48453437604E+02 -0.44247859161E+02  0.19167205358E+03  0.20259265727E+03  0.00000000000E+00 0. -1.
        -11    1    5    5    0    0 -0.24611993639E+02 -0.22909876213E+02  0.25590256912E+01  0.33721821888E+02  0.00000000000E+00 0.  1.
          2    1    6    6  503    0  0.44705211066E+03  0.18155266132E+03  0.23679825217E+02  0.48309180556E+03  0.00000000000E+00 0. -1.
         -2    1    6    6    0  503  0.61422113325E+02 -0.89493173613E+01  0.68421090548E+01  0.62446623151E+02  0.00000000000E+00 0.  1.
<mgrwt>
<rscale>  0 0.54687657E+03</rscale>
<asrwt>0</asrwt>
<pdfrwt beam="1">  1        2 0.12673249E+00 0.54687657E+03</pdfrwt>
<pdfrwt beam="2">  1       -2 0.68001480E-01 0.54687657E+03</pdfrwt>
<totfact> 0.67641674E+01</totfact>
</mgrwt>
</event>
<event>
12    1  0.1338445E-007  0.4571790E+03  0.7818608E-02  0.1025603E+00
          1   -1    0    0  501    0  0.00000000000E+00  0.00000000000E+00  0.24725107548E+04  0.24725107548E+04  0.00000000000E+00 0. -1.
         -1   -1    0    0    0  501 -0.00000000000E+00 -0.00000000000E+00 -0.23900832618E+03  0.23900832618E+03  0.00000000000E+00 0.  1.
         23    2    1    2    0    0 -0.31136067464E+03  0.43460612810E+02  0.19497292542E+04  0.19770389672E+04  0.91676706860E+02 0.  0.
    5000000    2    1    2    0    0  0.31136067464E+03 -0.43460612810E+02  0.28377317443E+03  0.73448011379E+03  0.60008293464E+03 0.  0.
         23    2    4    4    0    0  0.10964185060E+03 -0.26219794813E+03  0.29614340132E+03  0.42056124599E+03  0.91661049955E+02 0.  0.
         23    2    4    4    0    0  0.20171882404E+03  0.21873733532E+03 -0.12370226890E+02  0.31391886779E+03  0.99275007962E+02 0.  0.
          2    1    3    3  502    0 -0.25924929305E+03  0.64434015217E+02  0.14747244211E+04  0.14987241429E+04  0.00000000000E+00 0. -1.
         -2    1    3    3    0  502 -0.52111381598E+02 -0.20973402407E+02  0.47500483307E+03  0.47831482430E+03  0.00000000000E+00 0.  1.
         11    1    5    5    0    0  0.31968958005E+02 -0.15919713117E+03  0.20993672457E+03  0.26540378515E+03  0.00000000000E+00 0. -1.
        -11    1    5    5    0    0  0.77672892595E+02 -0.10300081696E+03  0.86206676746E+02  0.15515746084E+03  0.00000000000E+00 0.  1.
          2    1    6    6  503    0  0.72411375484E+02  0.10443544137E+03 -0.51218229443E+02  0.13701633385E+03  0.00000000000E+00 0. -1.
         -2    1    6    6    0  503  0.12930744856E+03  0.11430189395E+03  0.38848002553E+02  0.17690253395E+03  0.00000000000E+00 0.  1.
<mgrwt>
<rscale>  0 0.45717898E+03</rscale>
<asrwt>0</asrwt>
<pdfrwt beam="1">  1        1 0.38038625E+00 0.45717898E+03</pdfrwt>
<pdfrwt beam="2">  1       -1 0.36770513E-01 0.45717898E+03</pdfrwt>
<totfact> 0.11243235E+01</totfact>
</mgrwt>
</event>
<event>
12    1  0.1340616E-007  0.1591010E+04  0.7818608E-02  0.8826090E-01
         -2   -1    0    0    0  501 -0.00000000000E+00  0.00000000000E+00  0.16171359004E+04  0.16171359004E+04  0.00000000000E+00 0.  1.
          2   -1    0    0  501    0  0.00000000000E+00 -0.00000000000E+00 -0.24004391194E+04  0.24004391194E+04  0.00000000000E+00 0. -1.
         23    2    1    2    0    0 -0.15711154335E+04  0.13691682846E+03 -0.15056305873E+04  0.21823193285E+04  0.91892669732E+02 0.  0.
    5000000    2    1    2    0    0  0.15711154335E+04 -0.13691682846E+03  0.72232736832E+03  0.18352556913E+04  0.59938026518E+03 0.  0.
         23    2    4    4    0    0  0.13120494454E+04 -0.17446250515E+03  0.79823872525E+03  0.15484707621E+04  0.93089879824E+02 0.  0.
         23    2    4    4    0    0  0.25906598804E+03  0.37545676698E+02 -0.75911356937E+02  0.28678492918E+03  0.89208729940E+02 0.  0.
          1    1    3    3  502    0 -0.68910627746E+03  0.10175592198E+03 -0.63808934282E+03  0.94465853022E+03  0.00000000000E+00 0. -1.
         -1    1    3    3    0  502 -0.88200915603E+03  0.35160906475E+02 -0.86754124447E+03  0.12376607982E+04  0.00000000000E+00 0.  1.
         13    1    5    5    0    0  0.52564467207E+03 -0.26989613729E+02  0.29779856880E+03  0.60474353911E+03  0.00000000000E+00 0. -1.
        -13    1    5    5    0    0  0.78640477338E+03 -0.14747289143E+03  0.50044015645E+03  0.94372722303E+03  0.00000000000E+00 0.  1.
          3    1    6    6  503    0  0.41199832581E+02  0.41363453420E+02 -0.10862708961E+02  0.59383162003E+02  0.00000000000E+00 0. -1.
         -3    1    6    6    0  503  0.21786615546E+03 -0.38177767222E+01 -0.65048647975E+02  0.22740176718E+03  0.00000000000E+00 0.  1.
<mgrwt>
<rscale>  0 0.15910096E+04</rscale>
<asrwt>0</asrwt>
<pdfrwt beam="1">  1        2 0.36929833E+00 0.15910096E+04</pdfrwt>
<pdfrwt beam="2">  1       -2 0.24879014E+00 0.15910096E+04</pdfrwt>
<totfact> 0.24097640E-01</totfact>
</mgrwt>
</event>
<event>
12    1  0.1338445E-007  0.4112499E+03  0.7818608E-02  0.1039952E+00
         -1   -1    0    0    0  501 -0.00000000000E+00  0.00000000000E+00  0.34265978420E+03  0.34265978420E+03  0.00000000000E+00 0.  1.
          1   -1    0    0  501    0  0.00000000000E+00 -0.00000000000E+00 -0.65544326531E+03  0.65544326531E+03  0.00000000000E+00 0. -1.
         23    2    1    2    0    0 -0.17720652889E+03 -0.80452120251E+02  0.10572189917E+03  0.24106343242E+03  0.95182776544E+02 0.  0.
    5000000    2    1    2    0    0  0.17720652889E+03  0.80452120251E+02 -0.41850538029E+03  0.75703961709E+03  0.60007293805E+03 0.  0.
         23    2    4    4    0    0  0.38481986840E+03  0.80692445702E+02 -0.28479217916E+03  0.49398970801E+03  0.91223047529E+02 0.  0.
         23    2    4    4    0    0 -0.20761333950E+03 -0.24032545112E+00 -0.13371320113E+03  0.26304990908E+03  0.90623826977E+02 0.  0.
          4    1    3    3  502    0 -0.84517214858E+02 -0.22388469040E+02 -0.21292514571E+01  0.87458200673E+02  0.00000000000E+00 0. -1.
         -4    1    3    3    0  502 -0.92689314035E+02 -0.58063651211E+02  0.10785115063E+03  0.15360523175E+03  0.00000000000E+00 0.  1.
         11    1    5    5    0    0  0.67674065520E+02  0.48808882145E+02 -0.42692313546E+02  0.93726835838E+02  0.00000000000E+00 0. -1.
        -11    1    5    5    0    0  0.31714580288E+03  0.31883563557E+02 -0.24209986561E+03  0.40026287217E+03  0.00000000000E+00 0.  1.
          3    1    6    6  503    0 -0.13305941013E+03  0.39799666372E+02 -0.10344051962E+03  0.17317263400E+03  0.00000000000E+00 0. -1.
         -3    1    6    6    0  503 -0.74553929373E+02 -0.40039991823E+02 -0.30272681507E+02  0.89877275080E+02  0.00000000000E+00 0.  1.
<mgrwt>
<rscale>  0 0.41124987E+03</rscale>
<asrwt>0</asrwt>
<pdfrwt beam="1">  1        1 0.10083742E+00 0.41124987E+03</pdfrwt>
<pdfrwt beam="2">  1       -1 0.52716890E-01 0.41124987E+03</pdfrwt>
<totfact> 0.11446657E+02</totfact>
</mgrwt>
</event>
<event>
12    1  0.1338445E-007  0.1525683E+04  0.7818608E-02  0.8867551E-01
         -2   -1    0    0    0  501 -0.00000000000E+00  0.00000000000E+00  0.91827521098E+03  0.91827521098E+03  0.00000000000E+00 0.  1.
          2   -1    0    0  501    0  0.00000000000E+00 -0.00000000000E+00 -0.41172528781E+04  0.41172528781E+04  0.00000000000E+00 0. -1.
         23    2    1    2    0    0  0.35160966206E+03 -0.14559495364E+04 -0.55221358900E+02  0.15018970612E+04  0.96057154568E+02 0.  0.
    5000000    2    1    2    0    0 -0.35160966206E+03  0.14559495364E+04 -0.31437563083E+04  0.35336310279E+04  0.59993842051E+03 0.  0.
         23    2    4    4    0    0  0.63407496504E+02  0.45599067625E+03 -0.14235322382E+04  0.14989853742E+04  0.92547887090E+02 0.  0.
         23    2    4    4    0    0 -0.41501715856E+03  0.99995886019E+03 -0.17202240700E+04  0.20346456537E+04  0.91951731387E+02 0.  0.
          2    1    3    3  502    0  0.31564097876E+03 -0.13385448823E+04 -0.76023474029E+02  0.13773565980E+04  0.00000000000E+00 0. -1.
         -2    1    3    3    0  502  0.35968683296E+02 -0.11740465409E+03  0.20802115129E+02  0.12454046320E+03  0.00000000000E+00 0.  1.
         11    1    5    5    0    0 -0.48730396598E+00  0.28000036503E+03 -0.77814912116E+03  0.82699244050E+03  0.00000000000E+00 0.  1.
        -11    1    5    5    0    0  0.63894800470E+02  0.17599031122E+03 -0.64538311706E+03  0.67199293371E+03  0.00000000000E+00 0. -1.
          1    1    6    6  503    0 -0.21804098339E+03  0.41401635832E+03 -0.71153521695E+03  0.85160658778E+03  0.00000000000E+00 0. -1.
         -1    1    6    6    0  503 -0.19697617517E+03  0.58594250187E+03 -0.10086888531E+04  0.11830390659E+04  0.00000000000E+00 0.  1.
<mgrwt>
<rscale>  0 0.15256832E+04</rscale>
<asrwt>0</asrwt>
<pdfrwt beam="1">  1        2 0.63342351E+00 0.15256832E+04</pdfrwt>
<pdfrwt beam="2">  1       -2 0.14127311E+00 0.15256832E+04</pdfrwt>
<totfact> 0.92273682E-02</totfact>
</mgrwt>
</event>
<event>
12    1  0.1338445E-007  0.1190157E+04  0.7818608E-02  0.9121516E-01
          2   -1    0    0  501    0  0.00000000000E+00  0.00000000000E+00  0.40339776029E+04  0.40339776029E+04  0.00000000000E+00 0. -1.
         -2   -1    0    0    0  501 -0.00000000000E+00 -0.00000000000E+00 -0.42327884939E+03  0.42327884939E+03  0.00000000000E+00 0.  1.
         23    2    1    2    0    0 -0.17867427302E+03 -0.11622917394E+04  0.23617190404E+04  0.26398806606E+04  0.91686928660E+02 0.  0.
    5000000    2    1    2    0    0  0.17867427302E+03  0.11622917394E+04  0.12489797131E+04  0.18173757917E+04  0.60004821574E+03 0.  0.
         23    2    4    4    0    0  0.23285281344E+03  0.74515790857E+03  0.11197782578E+04  0.13681162634E+04  0.91422217834E+02 0.  0.
         23    2    4    4    0    0 -0.54178540413E+02  0.41713383084E+03  0.12920145526E+03  0.44925952835E+03  0.90582342075E+02 0.  0.
          3    1    3    3  502    0  0.27893348846E+01 -0.42616495763E+02  0.12305643603E+03  0.13025679464E+03  0.00000000000E+00 0. -1.
         -3    1    3    3    0  502 -0.18146360791E+03 -0.11196752437E+04  0.22386626044E+04  0.25096238659E+04  0.00000000000E+00 0.  1.
         13    1    5    5    0    0  0.43384478544E+01  0.55537054625E+02  0.49272781344E+02  0.74370649772E+02  0.00000000000E+00 0. -1.
        -13    1    5    5    0    0  0.22851436558E+03  0.68962085395E+03  0.10705054765E+04  0.12937456136E+04  0.00000000000E+00 0.  1.
          1    1    6    6  503    0 -0.10812559401E+02  0.15904411392E+03  0.94353853563E+02  0.18524198038E+03  0.00000000000E+00 0. -1.
         -1    1    6    6    0  503 -0.43365981012E+02  0.25808971693E+03  0.34847601696E+02  0.26401754797E+03  0.00000000000E+00 0.  1.
<mgrwt>
<rscale>  0 0.11901565E+04</rscale>
<asrwt>0</asrwt>
<pdfrwt beam="1">  1        2 0.62061191E+00 0.11901565E+04</pdfrwt>
<pdfrwt beam="2">  1       -2 0.65119826E-01 0.11901565E+04</pdfrwt>
<totfact> 0.71303346E-01</totfact>
</mgrwt>
</event>
<event>
12    1  0.1338445E-007  0.6357234E+03  0.7818608E-02  0.9833943E-01
         -2   -1    0    0    0  501 -0.00000000000E+00  0.00000000000E+00  0.62880010667E+03  0.62880010667E+03  0.00000000000E+00 0.  1.
          2   -1    0    0  501    0  0.00000000000E+00 -0.00000000000E+00 -0.86556207302E+03  0.86556207302E+03  0.00000000000E+00 0. -1.
         23    2    1    2    0    0 -0.52324070210E+03 -0.78669281289E+02  0.21201578475E+03  0.57670761284E+03  0.87585898235E+02 0.  0.
    5000000    2    1    2    0    0  0.52324070210E+03  0.78669281289E+02 -0.44877775110E+03  0.91765456685E+03  0.60059865636E+03 0.  0.
         23    2    4    4    0    0  0.61904849227E+03  0.46407408963E+02 -0.46403962776E+03  0.78083726336E+03  0.94865021625E+02 0.  0.
         23    2    4    4    0    0 -0.95807790171E+02  0.32261872326E+02  0.15261876653E+02  0.13681730349E+03  0.90918032271E+02 0.  0.
          2    1    3    3  502    0 -0.62020171056E+02  0.55699537626E+01  0.29680840364E+00  0.62270491390E+02  0.00000000000E+00 0. -1.
         -2    1    3    3    0  502 -0.46122053104E+03 -0.84239235052E+02  0.21171897635E+03  0.51443712145E+03  0.00000000000E+00 0.  1.
         13    1    5    5    0    0  0.20312125977E+03 -0.27500125611E+02 -0.16741735860E+03  0.26465652276E+03  0.00000000000E+00 0. -1.
        -13    1    5    5    0    0  0.41592723250E+03  0.73907534573E+02 -0.29662226916E+03  0.51618074060E+03  0.00000000000E+00 0.  1.
          4    1    6    6  503    0 -0.44117709513E+02  0.41303495696E+02  0.46047480385E+02  0.75978427854E+02  0.00000000000E+00 0.  1.
         -4    1    6    6    0  503 -0.51690080658E+02 -0.90416233696E+01 -0.30785603732E+02  0.60838875637E+02  0.00000000000E+00 0. -1.
<mgrwt>
<rscale>  0 0.63572337E+03</rscale>
<asrwt>0</asrwt>
<pdfrwt beam="1">  1        2 0.13316340E+00 0.63572337E+03</pdfrwt>
<pdfrwt beam="2">  1       -2 0.96738478E-01 0.63572337E+03</pdfrwt>
<totfact> 0.28386539E+01</totfact>
</mgrwt>
</event>
<event>
12    1  0.1338445E-007  0.5953243E+03  0.7818608E-02  0.9915154E-01
          2   -1    0    0  501    0  0.00000000000E+00  0.00000000000E+00  0.31505301190E+04  0.31505301190E+04  0.00000000000E+00 0. -1.
         -2   -1    0    0    0  501 -0.00000000000E+00 -0.00000000000E+00 -0.16666508388E+03  0.16666508388E+03  0.00000000000E+00 0.  1.
         23    2    1    2    0    0 -0.40479903950E+03 -0.17487010619E+03  0.21596423781E+04  0.22064233176E+04  0.99029484105E+02 0.  0.
    5000000    2    1    2    0    0  0.40479903950E+03  0.17487010619E+03  0.82422265701E+03  0.11107718853E+04  0.60002447980E+03 0.  0.
         23    2    4    4    0    0  0.20364619369E+03  0.38144689649E+03  0.46641555708E+03  0.64219606661E+03  0.88875244247E+02 0.  0.
         23    2    4    4    0    0  0.20115284581E+03 -0.20657679030E+03  0.35780709993E+03  0.46857581866E+03  0.91656638615E+02 0.  0.
          2    1    3    3  502    0 -0.17557608678E+03 -0.23259949827E+02  0.84203152500E+03  0.86045631882E+03  0.00000000000E+00 0. -1.
         -2    1    3    3    0  502 -0.22922295272E+03 -0.15161015637E+03  0.13176108531E+04  0.13459669987E+04  0.00000000000E+00 0.  1.
         11    1    5    5    0    0  0.20459062145E+03  0.33211237953E+03  0.39283477168E+03  0.55360194442E+03  0.00000000000E+00 0.  1.
        -11    1    5    5    0    0 -0.94442775899E+00  0.49334516960E+02  0.73580785399E+02  0.88594122195E+02  0.00000000000E+00 0. -1.
          4    1    6    6  503    0  0.13840115794E+03 -0.18876714777E+03  0.30610021053E+03  0.38533784590E+03  0.00000000000E+00 0. -1.
         -4    1    6    6    0  503  0.62751687869E+02 -0.17809642530E+02  0.51706889403E+02  0.83237972760E+02  0.00000000000E+00 0.  1.
<mgrwt>
<rscale>  0 0.59532432E+03</rscale>
<asrwt>0</asrwt>
<pdfrwt beam="1">  1        2 0.48469690E+00 0.59532432E+03</pdfrwt>
<pdfrwt beam="2">  1       -2 0.25640784E-01 0.59532432E+03</pdfrwt>
<totfact> 0.20942589E+01</totfact>
</mgrwt>
</event>
<event>
12    1  0.1338445E-007  0.6007736E+03  0.7818608E-02  0.9903802E-01
          2   -1    0    0  501    0  0.00000000000E+00  0.00000000000E+00  0.31775377617E+04  0.31775377617E+04  0.00000000000E+00 0.  1.
         -2   -1    0    0    0  501 -0.00000000000E+00 -0.00000000000E+00 -0.13312255428E+03  0.13312255428E+03  0.00000000000E+00 0. -1.
         23    2    1    2    0    0 -0.10500387204E+03  0.49296844743E+03  0.10715592444E+04  0.11878880116E+04  0.93781717181E+02 0.  0.
    5000000    2    1    2    0    0  0.10500387204E+03 -0.49296844743E+03  0.19728559630E+04  0.21227723044E+04  0.59996491746E+03 0.  0.
         23    2    4    4    0    0 -0.17933217635E+03 -0.24347681680E+03  0.13614697049E+04  0.13976313633E+04  0.91283516432E+02 0.  0.
         23    2    4    4    0    0  0.28433604839E+03 -0.24949163063E+03  0.61138625808E+03  0.72514094111E+03  0.94568312540E+02 0.  0.
          4    1    3    3  502    0 -0.11605168347E+03  0.35688801822E+03  0.81542875722E+03  0.89764197144E+03  0.00000000000E+00 0. -1.
         -4    1    3    3    0  502  0.11047811432E+02  0.13608042921E+03  0.25613048717E+03  0.29024604013E+03  0.00000000000E+00 0.  1.
         13    1    5    5    0    0 -0.10367867766E+03 -0.14452344764E+03  0.98953514782E+03  0.10053935070E+04  0.00000000000E+00 0. -1.
        -13    1    5    5    0    0 -0.75653498695E+02 -0.98953369164E+02  0.37193455711E+03  0.39223785629E+03  0.00000000000E+00 0.  1.
          3    1    6    6  503    0  0.26478132290E+03 -0.19335321728E+03  0.54508773244E+03  0.63609374438E+03  0.00000000000E+00 0. -1.
         -3    1    6    6    0  503  0.19554725490E+02 -0.56138413354E+02  0.66298525645E+02  0.89047196730E+02  0.00000000000E+00 0.  1.
<mgrwt>
<rscale>  0 0.60077362E+03</rscale>
<asrwt>0</asrwt>
<pdfrwt beam="1">  1        2 0.48885190E+00 0.60077362E+03</pdfrwt>
<pdfrwt beam="2">  1       -2 0.20480395E-01 0.60077362E+03</pdfrwt>
<totfact> 0.29983795E+01</totfact>
</mgrwt>
</event>
<event>
12    1  0.1338445E-007  0.5067117E+03  0.7818608E-02  0.1012042E+00
          1   -1    0    0  501    0  0.00000000000E+00  0.00000000000E+00  0.56326244317E+03  0.56326244317E+03  0.00000000000E+00 0. -1.
         -1   -1    0    0    0  501 -0.00000000000E+00 -0.00000000000E+00 -0.75126077639E+03  0.75126077639E+03  0.00000000000E+00 0.  1.
         23    2    1    2    0    0  0.14997894296E+02 -0.48001209643E+03  0.96928733990E+02  0.49502476455E+03  0.70836350105E+02 0.  0.
    5000000    2    1    2    0    0 -0.14997894296E+02  0.48001209643E+03 -0.28492706721E+03  0.81949845501E+03  0.59979807818E+03 0.  0.
         23    2    4    4    0    0  0.36117798077E+02  0.43500030234E+03  0.64943185545E+02  0.45021132167E+03  0.89122715650E+02 0.  0.
         23    2    4    4    0    0 -0.51115692373E+02  0.45011794093E+02 -0.34987025275E+03  0.36928713334E+03  0.96565612255E+02 0.  0.
          3    1    3    3  502    0  0.35869466394E+01 -0.81641633966E+02 -0.10171395072E+02  0.82350955432E+02  0.00000000000E+00 0. -1.
         -3    1    3    3    0  502  0.11410947656E+02 -0.39837046246E+03  0.10710012906E+03  0.41267380912E+03  0.00000000000E+00 0.  1.
         11    1    5    5    0    0  0.40873018575E+02  0.96177016129E+02 -0.32880507820E+01  0.10455349519E+03  0.00000000000E+00 0. -1.
        -11    1    5    5    0    0 -0.47552204975E+01  0.33882328621E+03  0.68231236327E+02  0.34565782648E+03  0.00000000000E+00 0.  1.
          2    1    6    6  503    0 -0.17731147281E+02  0.52656836270E+02 -0.31694655886E+03  0.32177982716E+03  0.00000000000E+00 0. -1.
         -2    1    6    6    0  503 -0.33384545091E+02 -0.76450421779E+01 -0.32923693891E+02  0.47507306178E+02  0.00000000000E+00 0.  1.
<mgrwt>
<rscale>  0 0.50671170E+03</rscale>
<asrwt>0</asrwt>
<pdfrwt beam="1">  1        1 0.86655761E-01 0.50671170E+03</pdfrwt>
<pdfrwt beam="2">  1       -1 0.11557858E+00 0.50671170E+03</pdfrwt>
<totfact> 0.26862051E+01</totfact>
</mgrwt>
</event>
<event>
12    1  0.1338445E-007  0.2091014E+04  0.7818608E-02  0.8565212E-01
          2   -1    0    0  501    0  0.00000000000E+00  0.00000000000E+00  0.31813769785E+04  0.31813769785E+04  0.00000000000E+00 0.  1.
         -2   -1    0    0    0  501 -0.00000000000E+00 -0.00000000000E+00 -0.14064648267E+04  0.14064648267E+04  0.00000000000E+00 0. -1.
         23    2    1    2    0    0  0.13620926033E+04 -0.15288515750E+04  0.12125565698E+04  0.23812749916E+04  0.86566462438E+02 0.  0.
    5000000    2    1    2    0    0 -0.13620926033E+04  0.15288515750E+04  0.56235558193E+03  0.22065668136E+04  0.60000825349E+03 0.  0.
         23    2    4    4    0    0 -0.10552057088E+04  0.76991133164E+03  0.36025540161E+03  0.13584451346E+04  0.96781623899E+02 0.  0.
         23    2    4    4    0    0 -0.30688689449E+03  0.75894024332E+03  0.20210018032E+03  0.84812167907E+03  0.91082603625E+02 0.  0.
          2    1    3    3  502    0  0.72250778061E+03 -0.74694210230E+03  0.60591427101E+03  0.12029430997E+04  0.00000000000E+00 0. -1.
         -2    1    3    3    0  502  0.63958482268E+03 -0.78190947266E+03  0.60664229878E+03  0.11783318919E+04  0.00000000000E+00 0.  1.
         11    1    5    5    0    0 -0.97016870921E+03  0.73669492675E+03  0.32720174729E+03  0.12613515461E+04  0.00000000000E+00 0. -1.
        -11    1    5    5    0    0 -0.85036999602E+02  0.33216404882E+02  0.33053654317E+02  0.97093588451E+02  0.00000000000E+00 0.  1.
          2    1    6    6  503    0 -0.12180188840E+03  0.19765928241E+03  0.43675557958E+02  0.23624657945E+03  0.00000000000E+00 0. -1.
         -2    1    6    6    0  503 -0.18508500609E+03  0.56128096091E+03  0.15842462236E+03  0.61187509962E+03  0.00000000000E+00 0.  1.
<mgrwt>
<rscale>  0 0.20910137E+04</rscale>
<asrwt>0</asrwt>
<pdfrwt beam="1">  1        2 0.48944261E+00 0.20910137E+04</pdfrwt>
<pdfrwt beam="2">  1       -2 0.21637920E+00 0.20910137E+04</pdfrwt>
<totfact> 0.12283464E-01</totfact>
</mgrwt>
</event>
<event>
12    1  0.1338445E-007  0.5208021E+03  0.7818608E-02  0.1008488E+00
          1   -1    0    0  501    0  0.00000000000E+00  0.00000000000E+00  0.13986401261E+04  0.13986401261E+04  0.00000000000E+00 0. -1.
         -1   -1    0    0    0  501 -0.00000000000E+00 -0.00000000000E+00 -0.20834032981E+03  0.20834032981E+03  0.00000000000E+00 0.  1.
         23    2    1    2    0    0  0.16859981782E+03 -0.32305516828E+03  0.45108584636E+03  0.58756898945E+03  0.94701300173E+02 0.  0.
    5000000    2    1    2    0    0 -0.16859981782E+03  0.32305516828E+03  0.73921394994E+03  0.10194114665E+04  0.59997661110E+03 0.  0.
         23    2    4    4    0    0  0.78111243184E+02  0.39711046323E+03  0.34466741321E+03  0.53942885845E+03  0.91595749223E+02 0.  0.
         23    2    4    4    0    0 -0.24671106101E+03 -0.74055294951E+02  0.39454653673E+03  0.47998260803E+03  0.91464747459E+02 0.  0.
          1    1    3    3  502    0  0.11927408634E+03 -0.20183004821E+03  0.35409718889E+03  0.42467222091E+03  0.00000000000E+00 0. -1.
         -1    1    3    3    0  502  0.49325731482E+02 -0.12122512007E+03  0.96988657466E+02  0.16289676854E+03  0.00000000000E+00 0.  1.
         13    1    5    5    0    0  0.30670676543E+02  0.24452161387E+03  0.26136381793E+03  0.35922493701E+03  0.00000000000E+00 0.  1.
        -13    1    5    5    0    0  0.47440566641E+02  0.15258884937E+03  0.83303595278E+02  0.18020392143E+03  0.00000000000E+00 0. -1.
          4    1    6    6  503    0 -0.69212396692E+01  0.13184970203E+02  0.43635087549E+02  0.46106050180E+02  0.00000000000E+00 0.  1.
         -4    1    6    6    0  503 -0.23978982134E+03 -0.87240265154E+02  0.35091144918E+03  0.43387655785E+03  0.00000000000E+00 0. -1.
<mgrwt>
<rscale>  0 0.52080208E+03</rscale>
<asrwt>0</asrwt>
<pdfrwt beam="1">  1        1 0.21517540E+00 0.52080208E+03</pdfrwt>
<pdfrwt beam="2">  1       -1 0.32052359E-01 0.52080208E+03</pdfrwt>
<totfact> 0.73542665E+01</totfact>
</mgrwt>
</event>
<event>
12    1  0.1338445E-007  0.6662543E+03  0.7818608E-02  0.9776748E-01
         -2   -1    0    0    0  501 -0.00000000000E+00  0.00000000000E+00  0.34983828259E+03  0.34983828259E+03  0.00000000000E+00 0.  1.
          2   -1    0    0  501    0  0.00000000000E+00 -0.00000000000E+00 -0.17140470748E+04  0.17140470748E+04  0.00000000000E+00 0. -1.
         23    2    1    2    0    0  0.18080195290E+03 -0.62874363479E+03 -0.58837446941E+03  0.88489619300E+03  0.94068335091E+02 0.  0.
    5000000    2    1    2    0    0 -0.18080195290E+03  0.62874363479E+03 -0.77583432276E+03  0.11789891644E+04  0.60007386946E+03 0.  0.
         23    2    4    4    0    0 -0.11959959246E+03  0.41647900995E+03 -0.82444276115E+03  0.93530814747E+03  0.85654165532E+02 0.  0.
         23    2    4    4    0    0 -0.61202360442E+02  0.21226462484E+03  0.48608438381E+02  0.24368101688E+03  0.90640266016E+02 0.  0.
          2    1    3    3  502    0  0.66232539323E+02 -0.39228694750E+03 -0.36861056947E+03  0.54235555715E+03  0.00000000000E+00 0. -1.
         -2    1    3    3    0  502  0.11456941358E+03 -0.23645668729E+03 -0.21976389994E+03  0.34254063585E+03  0.00000000000E+00 0.  1.
         11    1    5    5    0    0 -0.35316525785E+02  0.23698213495E+03 -0.51135479925E+03  0.56470480784E+03  0.00000000000E+00 0.  1.
        -11    1    5    5    0    0 -0.84283066673E+02  0.17949687500E+03 -0.31308796189E+03  0.37060333963E+03  0.00000000000E+00 0. -1.
          4    1    6    6  503    0 -0.71920431781E+02  0.11147460149E+03  0.34200473869E+01  0.13270581000E+03  0.00000000000E+00 0. -1.
         -4    1    6    6    0  503  0.10718071339E+02  0.10079002335E+03  0.45188390994E+02  0.11097520688E+03  0.00000000000E+00 0.  1.
<mgrwt>
<rscale>  0 0.66625426E+03</rscale>
<asrwt>0</asrwt>
<pdfrwt beam="1">  1        2 0.26369955E+00 0.66625426E+03</pdfrwt>
<pdfrwt beam="2">  1       -2 0.53821274E-01 0.66625426E+03</pdfrwt>
<totfact> 0.32509383E+01</totfact>
</mgrwt>
</event>
<event>
12    1  0.1338445E-007  0.4895612E+03  0.7818608E-02  0.1016540E+00
          2   -1    0    0  501    0  0.00000000000E+00  0.00000000000E+00  0.32222937306E+03  0.32222937306E+03  0.00000000000E+00 0.  1.
         -2   -1    0    0    0  501 -0.00000000000E+00 -0.00000000000E+00 -0.14815761959E+04  0.14815761959E+04  0.00000000000E+00 0. -1.
         23    2    1    2    0    0 -0.22308627550E+03 -0.25903985752E+03  0.98702821423E+02  0.36872646833E+03  0.96684163084E+02 0.  0.
    5000000    2    1    2    0    0  0.22308627550E+03  0.25903985752E+03 -0.12580496442E+04  0.14350791006E+04  0.59991164644E+03 0.  0.
         23    2    4    4    0    0  0.67998524419E+01  0.37888155268E+03 -0.96759230908E+03  0.10432783892E+04  0.92722444629E+02 0.  0.
         23    2    4    4    0    0  0.21628642306E+03 -0.11984169517E+03 -0.29045733515E+03  0.39180071144E+03  0.89445431655E+02 0.  0.
          2    1    3    3  502    0 -0.87184892539E+02 -0.11281924424E+03  0.90614351809E+02  0.16893888869E+03  0.00000000000E+00 0. -1.
         -2    1    3    3    0  502 -0.13590138296E+03 -0.14622061328E+03  0.80884696138E+01  0.19978757964E+03  0.00000000000E+00 0.  1.
         11    1    5    5    0    0  0.56440406975E+01  0.37702625334E+03 -0.90190532081E+03  0.97755504121E+03  0.00000000000E+00 0. -1.
        -11    1    5    5    0    0  0.11558117444E+01  0.18552993387E+01 -0.65686988276E+02  0.65723347946E+02  0.00000000000E+00 0.  1.
          2    1    6    6  503    0  0.16687088122E+03 -0.54102365779E+02 -0.15911153385E+03  0.23683208648E+03  0.00000000000E+00 0. -1.
         -2    1    6    6    0  503  0.49415541838E+02 -0.65739329388E+02 -0.13134580130E+03  0.15496862496E+03  0.00000000000E+00 0.  1.
<mgrwt>
<rscale>  0 0.48956119E+03</rscale>
<asrwt>0</asrwt>
<pdfrwt beam="1">  1        2 0.49573748E-01 0.48956119E+03</pdfrwt>
<pdfrwt beam="2">  1       -2 0.22793481E+00 0.48956119E+03</pdfrwt>
<totfact> 0.94472519E+00</totfact>
</mgrwt>
</event>
<event>
12    1  0.1338445E-007  0.4903786E+03  0.7818608E-02  0.1016321E+00
         -2   -1    0    0    0  501 -0.00000000000E+00  0.00000000000E+00  0.39181512345E+03  0.39181512345E+03  0.00000000000E+00 0.  1.
          2   -1    0    0  501    0  0.00000000000E+00 -0.00000000000E+00 -0.11613220677E+04  0.11613220677E+04  0.00000000000E+00 0. -1.
         23    2    1    2    0    0 -0.51322085168E+02  0.35425725447E+03 -0.77064836704E+03  0.85447456046E+03  0.89976163972E+02 0.  0.
    5000000    2    1    2    0    0  0.51322085168E+02 -0.35425725447E+03  0.11414228267E+01  0.69866263066E+03  0.59999667487E+03 0.  0.
         23    2    4    4    0    0  0.16835874155E+03  0.60025342337E+02 -0.12945505191E+03  0.23978668631E+03  0.93762129290E+02 0.  0.
         23    2    4    4    0    0 -0.11703665638E+03 -0.41428259681E+03  0.13059647473E+03  0.45887594434E+03  0.90465706901E+02 0.  0.
          1    1    3    3  502    0 -0.54290247459E+02  0.25128335918E+03 -0.45706779898E+03  0.52440607398E+03  0.00000000000E+00 0. -1.
         -1    1    3    3    0  502  0.29681622911E+01  0.10297389529E+03 -0.31358056806E+03  0.33006848648E+03  0.00000000000E+00 0.  1.
         11    1    5    5    0    0  0.15400409529E+03  0.33234654517E+02 -0.68747119925E+02  0.17189523009E+03  0.00000000000E+00 0. -1.
        -11    1    5    5    0    0  0.14354646258E+02  0.26790687820E+02 -0.60707931982E+02  0.67891456227E+02  0.00000000000E+00 0.  1.
          4    1    6    6  503    0 -0.33980492437E+02 -0.20063043127E+03  0.20315441098E+02  0.20449929331E+03  0.00000000000E+00 0. -1.
         -4    1    6    6    0  503 -0.83056163947E+02 -0.21365216554E+03  0.11028103364E+03  0.25437665103E+03  0.00000000000E+00 0.  1.
<mgrwt>
<rscale>  0 0.49037860E+03</rscale>
<asrwt>0</asrwt>
<pdfrwt beam="1">  1        2 0.17866493E+00 0.49037860E+03</pdfrwt>
<pdfrwt beam="2">  1       -2 0.60279250E-01 0.49037860E+03</pdfrwt>
<totfact> 0.53681629E+01</totfact>
</mgrwt>
</event>
<event>
12    1  0.1338445E-007  0.3297692E+03  0.7818608E-02  0.1071239E+00
          1   -1    0    0  501    0  0.00000000000E+00  0.00000000000E+00  0.48672472536E+03  0.48672472536E+03  0.00000000000E+00 0. -1.
         -1   -1    0    0    0  501 -0.00000000000E+00 -0.00000000000E+00 -0.16809559392E+04  0.16809559392E+04  0.00000000000E+00 0.  1.
         23    2    1    2    0    0  0.64166684080E+02  0.14939774577E+02  0.42495258975E+03  0.43958861836E+03  0.91175049458E+02 0.  0.
    5000000    2    1    2    0    0 -0.64166684080E+02 -0.14939774577E+02 -0.16191838036E+04  0.17280920462E+04  0.60017111735E+03 0.  0.
         23    2    4    4    0    0  0.40133518876E+02  0.24680212485E+03 -0.45775775709E+03  0.52947962380E+03  0.91019336852E+02 0.  0.
         23    2    4    4    0    0 -0.10430020296E+03 -0.26174189943E+03 -0.11614260465E+04  0.11986124224E+04  0.91509143612E+02 0.  0.
          3    1    3    3  502    0 -0.16720966163E+02 -0.18278130105E+02  0.10707542891E+03  0.10990372253E+03  0.00000000000E+00 0. -1.
         -3    1    3    3    0  502  0.80887650243E+02  0.33217904682E+02  0.31787716084E+03  0.32968489582E+03  0.00000000000E+00 0.  1.
         13    1    5    5    0    0 -0.13827230673E+02  0.47012708966E+02 -0.15646645951E+03  0.16396078819E+03  0.00000000000E+00 0.  1.
        -13    1    5    5    0    0  0.53960749549E+02  0.19978941589E+03 -0.30129129757E+03  0.36551883561E+03  0.00000000000E+00 0. -1.
          4    1    6    6  503    0 -0.32410075728E+02 -0.17834200886E+03 -0.82299976213E+03  0.84272468434E+03  0.00000000000E+00 0. -1.
         -4    1    6    6    0  503 -0.71890127228E+02 -0.83399890575E+02 -0.33842628434E+03  0.35588773802E+03  0.00000000000E+00 0.  1.
<mgrwt>
<rscale>  0 0.32976920E+03</rscale>
<asrwt>0</asrwt>
<pdfrwt beam="1">  1        1 0.74880727E-01 0.32976920E+03</pdfrwt>
<pdfrwt beam="2">  1       -1 0.25860860E+00 0.32976920E+03</pdfrwt>
<totfact> 0.32500615E+00</totfact>
</mgrwt>
</event>
<event>
12    1  0.1338445E-007  0.5415110E+03  0.7818608E-02  0.1003478E+00
          2   -1    0    0  501    0  0.00000000000E+00  0.00000000000E+00  0.29385380714E+04  0.29385380714E+04  0.00000000000E+00 0. -1.
         -2   -1    0    0    0  501 -0.00000000000E+00 -0.00000000000E+00 -0.17060385125E+03  0.17060385125E+03  0.00000000000E+00 0.  1.
         23    2    1    2    0    0  0.47766094154E+03  0.93952493524E+02  0.18204295950E+04  0.18865168392E+04  0.89413804049E+02 0.  0.
    5000000    2    1    2    0    0 -0.47766094154E+03 -0.93952493524E+02  0.94750462518E+03  0.12226250834E+04  0.60005002603E+03 0.  0.
         23    2    4    4    0    0 -0.19566346919E+03  0.12252497742E+03  0.78053626806E+03  0.81914553585E+03  0.92010759606E+02 0.  0.
         23    2    4    4    0    0 -0.28199747235E+03 -0.21647747094E+03  0.16696835712E+03  0.40347954756E+03  0.92370142277E+02 0.  0.
          1    1    3    3  502    0  0.17235082686E+03  0.18239655662E+01  0.53293775816E+03  0.56011676322E+03  0.00000000000E+00 0. -1.
         -1    1    3    3    0  502  0.30531011468E+03  0.92128527958E+02  0.12874918368E+04  0.13264000760E+04  0.00000000000E+00 0.  1.
         11    1    5    5    0    0 -0.94710833511E+02  0.77986002577E+02  0.55062096489E+03  0.56412357295E+03  0.00000000000E+00 0. -1.
        -11    1    5    5    0    0 -0.10095263568E+03  0.44538974838E+02  0.22991530317E+03  0.25502196290E+03  0.00000000000E+00 0.  1.
          3    1    6    6  503    0 -0.72692626596E+02 -0.30857838710E+02  0.26068863669E+01  0.79014049560E+02  0.00000000000E+00 0. -1.
         -3    1    6    6    0  503 -0.20930484575E+03 -0.18561963223E+03  0.16436147075E+03  0.32446549800E+03  0.00000000000E+00 0.  1.
<mgrwt>
<rscale>  0 0.54151099E+03</rscale>
<asrwt>0</asrwt>
<pdfrwt beam="1">  1        2 0.45208274E+00 0.54151099E+03</pdfrwt>
<pdfrwt beam="2">  1       -2 0.26246748E-01 0.54151099E+03</pdfrwt>
<totfact> 0.27392319E+01</totfact>
</mgrwt>
</event>
<event>
12    1  0.1338445E-007  0.6676140E+03  0.7818608E-02  0.9774278E-01
         -2   -1    0    0    0  501 -0.00000000000E+00  0.00000000000E+00  0.90171548070E+03  0.90171548070E+03  0.00000000000E+00 0.  1.
          2   -1    0    0  501    0  0.00000000000E+00 -0.00000000000E+00 -0.52730120890E+03  0.52730120890E+03  0.00000000000E+00 0. -1.
         23    2    1    2    0    0 -0.54925778837E+03  0.19637866131E+02  0.73270067552E+02  0.56133238352E+03  0.87497303455E+02 0.  0.
    5000000    2    1    2    0    0  0.54925778837E+03 -0.19637866131E+02  0.30114420425E+03  0.86768430609E+03  0.60009870805E+03 0.  0.
         23    2    4    4    0    0  0.14037229667E+03 -0.26039983157E+03  0.19563510145E+02  0.30915382444E+03  0.87640756959E+02 0.  0.
         23    2    4    4    0    0  0.40888549170E+03  0.24076196544E+03  0.28158069411E+03  0.55853048165E+03  0.86688766916E+02 0.  0.
          1    1    3    3  502    0 -0.12408925034E+03 -0.80152120316E+01  0.51857414289E+02  0.13472778886E+03  0.00000000000E+00 0. -1.
         -1    1    3    3    0  502 -0.42516853803E+03  0.27653078163E+02  0.21412653263E+02  0.42660459466E+03  0.00000000000E+00 0.  1.
         11    1    5    5    0    0 -0.73660578385E+01 -0.35966178292E+02  0.16972582615E+02  0.40446178431E+02  0.00000000000E+00 0.  1.
        -11    1    5    5    0    0  0.14773835451E+03 -0.22443365328E+03  0.25909275299E+01  0.26870764600E+03  0.00000000000E+00 0. -1.
          2    1    6    6  503    0  0.29114156374E+03  0.13412922391E+03  0.21676204608E+03  0.38696232823E+03  0.00000000000E+00 0. -1.
         -2    1    6    6    0  503  0.11774392796E+03  0.10663274152E+03  0.64818648033E+02  0.17156815342E+03  0.00000000000E+00 0.  1.
<mgrwt>
<rscale>  0 0.66761401E+03</rscale>
<asrwt>0</asrwt>
<pdfrwt beam="1">  1        2 0.81123263E-01 0.66761401E+03</pdfrwt>
<pdfrwt beam="2">  1       -2 0.13872546E+00 0.66761401E+03</pdfrwt>
<totfact> 0.21723992E+01</totfact>
</mgrwt>
</event>
<event>
12    1  0.1338445E-007  0.1048435E+04  0.7818608E-02  0.9256962E-01
         -2   -1    0    0    0  501 -0.00000000000E+00  0.00000000000E+00  0.43912344910E+03  0.43912344910E+03  0.00000000000E+00 0.  1.
          2   -1    0    0  501    0  0.00000000000E+00 -0.00000000000E+00 -0.29561195542E+04  0.29561195542E+04  0.00000000000E+00 0. -1.
         23    2    1    2    0    0  0.84898490430E+03 -0.51290143954E+03 -0.17246981587E+04  0.19910895147E+04  0.77527171611E+02 0.  0.
    5000000    2    1    2    0    0 -0.84898490430E+03  0.51290143954E+03 -0.79229794636E+03  0.14041534886E+04  0.60005643849E+03 0.  0.
         23    2    4    4    0    0 -0.70767134694E+03  0.17749585540E+03 -0.70480428705E+03  0.10187768123E+04  0.94093550943E+02 0.  0.
         23    2    4    4    0    0 -0.14131355736E+03  0.33540558413E+03 -0.87493659311E+02  0.38537667629E+03  0.91616673402E+02 0.  0.
          3    1    3    3  502    0  0.13573312108E+03 -0.89626881490E+02 -0.23004568815E+03  0.28174008710E+03  0.00000000000E+00 0.  1.
         -3    1    3    3    0  502  0.71325178322E+03 -0.42327455805E+03 -0.14946524705E+04  0.17093494275E+04  0.00000000000E+00 0. -1.
         11    1    5    5    0    0 -0.28940419425E+03  0.48089025055E+02 -0.22886626265E+03  0.37208481313E+03  0.00000000000E+00 0.  1.
        -11    1    5    5    0    0 -0.41826715269E+03  0.12940683035E+03 -0.47593802441E+03  0.64669199920E+03  0.00000000000E+00 0. -1.
          2    1    6    6  503    0 -0.20529377348E+01  0.10064224010E+03 -0.75285218555E+01  0.10094430983E+03  0.00000000000E+00 0. -1.
         -2    1    6    6    0  503 -0.13926061963E+03  0.23476334403E+03 -0.79965137456E+02  0.28443236646E+03  0.00000000000E+00 0.  1.
<mgrwt>
<rscale>  0 0.10484348E+04</rscale>
<asrwt>0</asrwt>
<pdfrwt beam="1">  1        2 0.45478761E+00 0.10484348E+04</pdfrwt>
<pdfrwt beam="2">  1       -2 0.67557455E-01 0.10484348E+04</pdfrwt>
<totfact> 0.37774407E+00</totfact>
</mgrwt>
</event>
<event>
12    1  0.1338445E-007  0.6091140E+03  0.7818608E-02  0.9886676E-01
         -2   -1    0    0    0  501 -0.00000000000E+00  0.00000000000E+00  0.63428079778E+03  0.63428079778E+03  0.00000000000E+00 0.  1.
          2   -1    0    0  501    0  0.00000000000E+00 -0.00000000000E+00 -0.83237083796E+03  0.83237083796E+03  0.00000000000E+00 0. -1.
         23    2    1    2    0    0 -0.46713591483E+03  0.37169689512E+03 -0.13018874075E+03  0.61754789821E+03  0.89675825046E+02 0.  0.
    5000000    2    1    2    0    0  0.46713591483E+03 -0.37169689512E+03 -0.67901299429E+02  0.84910373754E+03  0.59999335486E+03 0.  0.
         23    2    4    4    0    0  0.26822528707E+03 -0.23312226958E+03 -0.31939306419E+03  0.48823045307E+03  0.10033069647E+03 0.  0.
         23    2    4    4    0    0  0.19891062777E+03 -0.13857462554E+03  0.25149176476E+03  0.36087328447E+03  0.90625907029E+02 0.  0.
          4    1    3    3  502    0 -0.11217821945E+02  0.32880177901E+02  0.21407046041E+00  0.34741782542E+02  0.00000000000E+00 0. -1.
         -4    1    3    3    0  502 -0.45591809289E+03  0.33881671722E+03 -0.13040281121E+03  0.58280611567E+03  0.00000000000E+00 0.  1.
         11    1    5    5    0    0  0.13446397428E+03 -0.17787388937E+03 -0.17146017363E+03  0.28127970428E+03  0.00000000000E+00 0. -1.
        -11    1    5    5    0    0  0.13376131279E+03 -0.55248380209E+02 -0.14793289056E+03  0.20695074879E+03  0.00000000000E+00 0.  1.
          2    1    6    6  503    0  0.58778901764E+02 -0.71024602060E+02  0.45693266332E+02  0.10289474223E+03  0.00000000000E+00 0. -1.
         -2    1    6    6    0  503  0.14013172600E+03 -0.67550023475E+02  0.20579849842E+03  0.25797854224E+03  0.00000000000E+00 0.  1.
<mgrwt>
<rscale>  0 0.60911397E+03</rscale>
<asrwt>0</asrwt>
<pdfrwt beam="1">  1        2 0.12805705E+00 0.60911397E+03</pdfrwt>
<pdfrwt beam="2">  1       -2 0.97581662E-01 0.60911397E+03</pdfrwt>
<totfact> 0.29409217E+01</totfact>
</mgrwt>
</event>
<event>
12    1  0.1338445E-007  0.6475482E+03  0.7818608E-02  0.9811391E-01
         -1   -1    0    0    0  501 -0.00000000000E+00  0.00000000000E+00  0.64216050895E+03  0.64216050895E+03  0.00000000000E+00 0.  1.
          1   -1    0    0  501    0  0.00000000000E+00 -0.00000000000E+00 -0.12388106249E+04  0.12388106249E+04  0.00000000000E+00 0. -1.
         23    2    1    2    0    0  0.52041977033E+03  0.14426050578E+03 -0.87091937711E+03  0.10283997747E+04  0.86358000775E+02 0.  0.
    5000000    2    1    2    0    0 -0.52041977033E+03 -0.14426050578E+03  0.27426926115E+03  0.85257135916E+03  0.60000538662E+03 0.  0.
         23    2    4    4    0    0  0.15668816534E+02 -0.19058638134E+03  0.21762528786E+03  0.30365716194E+03  0.90984754307E+02 0.  0.
         23    2    4    4    0    0 -0.53608858686E+03  0.46325875556E+02  0.56643973286E+02  0.54891419722E+03  0.92526733925E+02 0.  0.
          1    1    3    3  502    0  0.19155610015E+03  0.43192473254E+02 -0.24318695903E+03  0.31256875450E+03  0.00000000000E+00 0. -1.
         -1    1    3    3    0  502  0.32886367018E+03  0.10106803253E+03 -0.62773241808E+03  0.71583102020E+03  0.00000000000E+00 0.  1.
         13    1    5    5    0    0 -0.36342854022E+02 -0.92548354437E+02  0.85748611593E+02  0.13129670726E+03  0.00000000000E+00 0. -1.
        -13    1    5    5    0    0  0.52011670556E+02 -0.98038026899E+02  0.13187667627E+03  0.17236045468E+03  0.00000000000E+00 0.  1.
          2    1    6    6  503    0 -0.36312111247E+03 -0.72821461294E+01  0.17305835663E+02  0.36360619346E+03  0.00000000000E+00 0. -1.
         -2    1    6    6    0  503 -0.17296747440E+03  0.53608021685E+02  0.39338137623E+02  0.18530800377E+03  0.00000000000E+00 0.  1.
<mgrwt>
<rscale>  0 0.64754819E+03</rscale>
<asrwt>0</asrwt>
<pdfrwt beam="1">  1        1 0.19058625E+00 0.64754819E+03</pdfrwt>
<pdfrwt beam="2">  1       -1 0.98793927E-01 0.64754819E+03</pdfrwt>
<totfact> 0.10316626E+01</totfact>
</mgrwt>
</event>
<event>
12    1  0.1338445E-007  0.5670042E+03  0.7818608E-02  0.9976330E-01
         -2   -1    0    0    0  501 -0.00000000000E+00  0.00000000000E+00  0.19636856292E+03  0.19636856292E+03  0.00000000000E+00 0.  1.
          2   -1    0    0  501    0  0.00000000000E+00 -0.00000000000E+00 -0.17363978918E+04  0.17363978918E+04  0.00000000000E+00 0. -1.
         23    2    1    2    0    0  0.39722579894E+03 -0.88588316215E+02 -0.76683342959E+03  0.87281083613E+03  0.90161088202E+02 0.  0.
    5000000    2    1    2    0    0 -0.39722579894E+03  0.88588316215E+02 -0.77319589928E+03  0.10599556186E+04  0.60003149049E+03 0.  0.
         23    2    4    4    0    0 -0.15315483068E+03  0.32678421189E+03 -0.42186833819E+03  0.56298455566E+03  0.93457968351E+02 0.  0.
         23    2    4    4    0    0 -0.24407096826E+03 -0.23819589567E+03 -0.35132756109E+03  0.49697106292E+03  0.85095592915E+02 0.  0.
          3    1    3    3  502    0  0.32815316686E+03 -0.98178602940E+02 -0.58272290244E+03  0.67593603250E+03  0.00000000000E+00 0. -1.
         -3    1    3    3    0  502  0.69072632083E+02  0.95902867243E+01 -0.18411052714E+03  0.19687480364E+03  0.00000000000E+00 0.  1.
         11    1    5    5    0    0 -0.86422417966E+02  0.27280651900E+03 -0.33959044562E+03  0.44408771869E+03  0.00000000000E+00 0.  1.
        -11    1    5    5    0    0 -0.66732412716E+02  0.53977692890E+02 -0.82277892569E+02  0.11889683697E+03  0.00000000000E+00 0. -1.
          4    1    6    6  503    0 -0.57089262464E+02 -0.10717829642E+03 -0.14607917656E+03  0.18996183021E+03  0.00000000000E+00 0.  1.
         -4    1    6    6    0  503 -0.18698170580E+03 -0.13101759925E+03 -0.20524838453E+03  0.30700923271E+03  0.00000000000E+00 0. -1.
<mgrwt>
<rscale>  0 0.56700423E+03</rscale>
<asrwt>0</asrwt>
<pdfrwt beam="1">  1        2 0.26713815E+00 0.56700423E+03</pdfrwt>
<pdfrwt beam="2">  1       -2 0.30210547E-01 0.56700423E+03</pdfrwt>
<totfact> 0.98786244E+01</totfact>
</mgrwt>
</event>
<event>
12    1  0.1338445E-007  0.1222789E+04  0.7818608E-02  0.9093140E-01
         -1   -1    0    0    0  501 -0.00000000000E+00  0.00000000000E+00  0.13223105197E+04  0.13223105197E+04  0.00000000000E+00 0.  1.
          1   -1    0    0  501    0  0.00000000000E+00 -0.00000000000E+00 -0.25233887188E+04  0.25233887188E+04  0.00000000000E+00 0. -1.
         23    2    1    2    0    0  0.11606703379E+04  0.31756207145E+03  0.79052895242E+03  0.14426840001E+04  0.91650406540E+02 0.  0.
    5000000    2    1    2    0    0 -0.11606703379E+04 -0.31756207145E+03 -0.19916071515E+04  0.24030152385E+04  0.59998490628E+03 0.  0.
         23    2    4    4    0    0 -0.84216211104E+03 -0.33366835202E+03 -0.97869774564E+03  0.13372211458E+04  0.98689031460E+02 0.  0.
         23    2    4    4    0    0 -0.31850822687E+03  0.16106280577E+02 -0.10129094059E+04  0.10657940927E+04  0.90690025129E+02 0.  0.
          1    1    3    3  502    0  0.67805854628E+03  0.16080340015E+03  0.50316677703E+03  0.85953355443E+03  0.00000000000E+00 0. -1.
         -1    1    3    3    0  502  0.48261179163E+03  0.15675867129E+03  0.28736217539E+03  0.58315044567E+03  0.00000000000E+00 0.  1.
         13    1    5    5    0    0 -0.57116491307E+03 -0.17612130008E+03 -0.63557640285E+03  0.87247087867E+03  0.00000000000E+00 0.  1.
        -13    1    5    5    0    0 -0.27099719797E+03 -0.15754705194E+03 -0.34312134278E+03  0.46475026709E+03  0.00000000000E+00 0. -1.
          4    1    6    6  503    0 -0.16549099866E+03 -0.34298321353E+02 -0.56817861668E+03  0.59278207289E+03  0.00000000000E+00 0. -1.
         -4    1    6    6    0  503 -0.15301722822E+03  0.50404601930E+02 -0.44473078921E+03  0.47301201983E+03  0.00000000000E+00 0.  1.
<mgrwt>
<rscale>  0 0.12227891E+04</rscale>
<asrwt>0</asrwt>
<pdfrwt beam="1">  1        1 0.38821364E+00 0.12227891E+04</pdfrwt>
<pdfrwt beam="2">  1       -1 0.20343239E+00 0.12227891E+04</pdfrwt>
<totfact> 0.18272783E-01</totfact>
</mgrwt>
</event>
<event>
12    1  0.1338445E-007  0.5252897E+03  0.7818608E-02  0.1007381E+00
          2   -1    0    0  501    0  0.00000000000E+00  0.00000000000E+00  0.66025317118E+03  0.66025317118E+03  0.00000000000E+00 0. -1.
         -2   -1    0    0    0  501 -0.00000000000E+00 -0.00000000000E+00 -0.64793791320E+03  0.64793791320E+03  0.00000000000E+00 0.  1.
         23    2    1    2    0    0 -0.29290160008E+03 -0.35429735144E+03  0.22957375296E+03  0.52195947059E+03  0.91758489122E+02 0.  0.
    5000000    2    1    2    0    0  0.29290160008E+03  0.35429735144E+03 -0.21725849498E+03  0.78623161379E+03  0.59970070562E+03 0.  0.
         23    2    4    4    0    0  0.29177004069E+03  0.87846415161E+02 -0.35193451340E+03  0.47406357390E+03  0.89619311950E+02 0.  0.
         23    2    4    4    0    0  0.11315593835E+01  0.26645093628E+03  0.13467601842E+03  0.31216803989E+03  0.91180443735E+02 0.  0.
          3    1    3    3  502    0 -0.51627128655E+02 -0.10681943859E+03  0.28199283643E+02  0.12194651480E+03  0.00000000000E+00 0. -1.
         -3    1    3    3    0  502 -0.24127447142E+03 -0.24747791286E+03  0.20137446931E+03  0.40001295579E+03  0.00000000000E+00 0.  1.
         13    1    5    5    0    0  0.20351228241E+02 -0.78461366146E+01 -0.61227984310E+02  0.64996926184E+02  0.00000000000E+00 0.  1.
        -13    1    5    5    0    0  0.27141881245E+03  0.95692551775E+02 -0.29070652909E+03  0.40906664771E+03  0.00000000000E+00 0. -1.
          1    1    6    6  503    0 -0.36412754457E+02  0.11268951384E+03  0.29227157257E+02  0.12197967838E+03  0.00000000000E+00 0. -1.
         -1    1    6    6    0  503  0.37544313840E+02  0.15376142244E+03  0.10544886117E+03  0.19018836151E+03  0.00000000000E+00 0.  1.
<mgrwt>
<rscale>  0 0.52528972E+03</rscale>
<asrwt>0</asrwt>
<pdfrwt beam="1">  1        2 0.10157741E+00 0.52528972E+03</pdfrwt>
<pdfrwt beam="2">  1       -2 0.99682756E-01 0.52528972E+03</pdfrwt>
<totfact> 0.37967374E+01</totfact>
</mgrwt>
</event>
<event>
12    1  0.1338445E-007  0.5052198E+03  0.7818608E-02  0.1012425E+00
         -1   -1    0    0    0  501 -0.00000000000E+00  0.00000000000E+00  0.39173402057E+03  0.39173402057E+03  0.00000000000E+00 0.  1.
          1   -1    0    0  501    0  0.00000000000E+00 -0.00000000000E+00 -0.10007801376E+04  0.10007801376E+04  0.00000000000E+00 0. -1.
         23    2    1    2    0    0  0.32809403594E+03 -0.63621617639E+02  0.14193331163E+03  0.37484426127E+03  0.93111484816E+02 0.  0.
    5000000    2    1    2    0    0 -0.32809403594E+03  0.63621617639E+02 -0.75097942861E+03  0.10176698969E+04  0.59999042502E+03 0.  0.
         23    2    4    4    0    0 -0.44029684301E+03 -0.10267138919E+03 -0.45041071506E+03  0.64481097011E+03  0.92242348250E+02 0.  0.
         23    2    4    4    0    0  0.11220280706E+03  0.16629300683E+03 -0.30056871355E+03  0.37285892674E+03  0.91866172509E+02 0.  0.
          1    1    3    3  502    0  0.59580844719E+02 -0.39638781829E+02  0.59135000253E+02  0.92833497927E+02  0.00000000000E+00 0. -1.
         -1    1    3    3    0  502  0.26851319122E+03 -0.23982835810E+02  0.82798311376E+02  0.28201076334E+03  0.00000000000E+00 0.  1.
         13    1    5    5    0    0 -0.38838882723E+03 -0.99242895306E+02 -0.35191770921E+03  0.53342394719E+03  0.00000000000E+00 0.  1.
        -13    1    5    5    0    0 -0.51908015781E+02 -0.34284938885E+01 -0.98493005852E+02  0.11138702292E+03  0.00000000000E+00 0. -1.
          3    1    6    6  503    0  0.64491340565E+02  0.15426427680E+03 -0.25982557629E+03  0.30897561424E+03  0.00000000000E+00 0. -1.
         -3    1    6    6    0  503  0.47711466499E+02  0.12028730032E+02 -0.40743137266E+02  0.63883312500E+02  0.00000000000E+00 0.  1.
<mgrwt>
<rscale>  0 0.50521984E+03</rscale>
<asrwt>0</asrwt>
<pdfrwt beam="1">  1        1 0.15396617E+00 0.50521984E+03</pdfrwt>
<pdfrwt beam="2">  1       -1 0.60266773E-01 0.50521984E+03</pdfrwt>
<totfact> 0.44564955E+01</totfact>
</mgrwt>
</event>
<event>
12    1  0.1338445E-007  0.7192104E+03  0.7818608E-02  0.9684932E-01
         -1   -1    0    0    0  501 -0.00000000000E+00  0.00000000000E+00  0.26527894065E+03  0.26527894065E+03  0.00000000000E+00 0.  1.
          1   -1    0    0  501    0  0.00000000000E+00 -0.00000000000E+00 -0.20422364966E+04  0.20422364966E+04  0.00000000000E+00 0. -1.
         23    2    1    2    0    0 -0.32873186753E+02  0.59369915986E+03 -0.95817973386E+03  0.11310975313E+04  0.87828719706E+02 0.  0.
    5000000    2    1    2    0    0  0.32873186753E+02 -0.59369915986E+03 -0.81877782205E+03  0.11764179060E+04  0.60000219063E+03 0.  0.
         23    2    4    4    0    0  0.49072106026E+02 -0.69610964608E+03 -0.65094017362E+03  0.95869702929E+03  0.91652459823E+02 0.  0.
         23    2    4    4    0    0 -0.16198919274E+02  0.10241048622E+03 -0.16783764843E+03  0.21772087667E+03  0.92100983884E+02 0.  0.
          3    1    3    3  502    0 -0.38653932988E+02  0.34618327779E+03 -0.48593489972E+03  0.59788771114E+03  0.00000000000E+00 0. -1.
         -3    1    3    3    0  502  0.57807462353E+01  0.24751588207E+03 -0.47224483413E+03  0.53320982011E+03  0.00000000000E+00 0.  1.
         13    1    5    5    0    0  0.25340608162E+02 -0.66079236143E+03 -0.61215345760E+03  0.90112182695E+03  0.00000000000E+00 0.  1.
        -13    1    5    5    0    0  0.23731497864E+02 -0.35317284646E+02 -0.38786716013E+02  0.57575202342E+02  0.00000000000E+00 0. -1.
          2    1    6    6  503    0  0.38503081282E+02  0.47810396962E+02 -0.75444656190E+02  0.97263649292E+02  0.00000000000E+00 0. -1.
         -2    1    6    6    0  503 -0.54702000556E+02  0.54600089258E+02 -0.92392992241E+02  0.12045722738E+03  0.00000000000E+00 0.  1.
<mgrwt>
<rscale>  0 0.71921044E+03</rscale>
<asrwt>0</asrwt>
<pdfrwt beam="1">  1        1 0.31419022E+00 0.71921044E+03</pdfrwt>
<pdfrwt beam="2">  1       -1 0.40812146E-01 0.71921044E+03</pdfrwt>
<totfact> 0.17150683E+01</totfact>
</mgrwt>
</event>
<event>
12    1  0.1338445E-007  0.5322417E+03  0.7818608E-02  0.1005690E+00
         -2   -1    0    0    0  501 -0.00000000000E+00  0.00000000000E+00  0.39036254056E+03  0.39036254056E+03  0.00000000000E+00 0.  1.
          2   -1    0    0  501    0  0.00000000000E+00 -0.00000000000E+00 -0.12017211990E+04  0.12017211990E+04  0.00000000000E+00 0. -1.
         23    2    1    2    0    0 -0.33134697076E+03  0.31883654118E+03  0.18647368277E+02  0.46948499443E+03  0.92848697542E+02 0.  0.
    5000000    2    1    2    0    0  0.33134697076E+03 -0.31883654118E+03 -0.83000602674E+03  0.11225987452E+04  0.59989197625E+03 0.  0.
         23    2    4    4    0    0  0.14959332556E+03 -0.37786417227E+03 -0.20951009952E+03  0.46755505192E+03  0.97743281281E+02 0.  0.
         23    2    4    4    0    0  0.18175364519E+03  0.59027631090E+02 -0.62049592722E+03  0.65504369324E+03  0.86881503083E+02 0.  0.
          2    1    3    3  502    0 -0.26422718609E+03  0.24992722045E+03 -0.23500655347E+02  0.36446111204E+03  0.00000000000E+00 0. -1.
         -2    1    3    3    0  502 -0.67119784667E+02  0.68909320729E+02  0.42148023623E+02  0.10502388239E+03  0.00000000000E+00 0.  1.
         11    1    5    5    0    0  0.47577837198E+02 -0.98593668541E+02 -0.10694592844E+03  0.15304180369E+03  0.00000000000E+00 0.  1.
        -11    1    5    5    0    0  0.10201548836E+03 -0.27927050373E+03 -0.10256417109E+03  0.31451324822E+03  0.00000000000E+00 0. -1.
          4    1    6    6  503    0  0.60723640097E+02 -0.48915260642E+01 -0.30676811565E+03  0.31275863581E+03  0.00000000000E+00 0.  1.
         -4    1    6    6    0  503  0.12103000510E+03  0.63919157154E+02 -0.31372781157E+03  0.34228505743E+03  0.00000000000E+00 0. -1.
<mgrwt>
<rscale>  0 0.53224171E+03</rscale>
<asrwt>0</asrwt>
<pdfrwt beam="1">  1        2 0.18488019E+00 0.53224171E+03</pdfrwt>
<pdfrwt beam="2">  1       -2 0.60055775E-01 0.53224171E+03</pdfrwt>
<totfact> 0.50933651E+01</totfact>
</mgrwt>
</event>
<event>
12    1  0.1338445E-007  0.5156893E+03  0.7818608E-02  0.1009763E+00
         -2   -1    0    0    0  501 -0.00000000000E+00  0.00000000000E+00  0.77531566978E+03  0.77531566978E+03  0.00000000000E+00 0.  1.
          2   -1    0    0  501    0  0.00000000000E+00 -0.00000000000E+00 -0.63465385315E+03  0.63465385315E+03  0.00000000000E+00 0. -1.
         23    2    1    2    0    0 -0.40890604376E+03 -0.88652353633E+02 -0.32923007530E+03  0.54043518197E+03  0.92813528086E+02 0.  0.
    5000000    2    1    2    0    0  0.40890604376E+03  0.88652353633E+02  0.46989189193E+03  0.86953434096E+03  0.60019012619E+03 0.  0.
         23    2    4    4    0    0  0.36923391499E+03 -0.11844174926E+03  0.49691513012E+03  0.63679817253E+03  0.90692524785E+02 0.  0.
         23    2    4    4    0    0  0.39672128772E+02  0.20709410289E+03 -0.27023238185E+02  0.23273616843E+03  0.94731322379E+02 0.  0.
          3    1    3    3  502    0 -0.99396072086E+02  0.13457231846E+02 -0.10248508389E+03  0.14340107620E+03  0.00000000000E+00 0. -1.
         -3    1    3    3    0  502 -0.30950997167E+03 -0.10210958548E+03 -0.22674499141E+03  0.39703410577E+03  0.00000000000E+00 0.  1.
         13    1    5    5    0    0  0.18038300577E+03 -0.66225536460E+02  0.31754041508E+03  0.37115463847E+03  0.00000000000E+00 0.  1.
        -13    1    5    5    0    0  0.18885090922E+03 -0.52216212800E+02  0.17937471504E+03  0.26564353406E+03  0.00000000000E+00 0. -1.
          3    1    6    6  503    0  0.40688152026E+02  0.78070351822E+02 -0.50643668206E+02  0.10156419979E+03  0.00000000000E+00 0. -1.
         -3    1    6    6    0  503 -0.10160232542E+01  0.12902375107E+03  0.23620430021E+02  0.13117196864E+03  0.00000000000E+00 0.  1.
<mgrwt>
<rscale>  0 0.51568926E+03</rscale>
<asrwt>0</asrwt>
<pdfrwt beam="1">  1        2 0.97639055E-01 0.51568926E+03</pdfrwt>
<pdfrwt beam="2">  1       -2 0.11927933E+00 0.51568926E+03</pdfrwt>
<totfact> 0.25909129E+01</totfact>
</mgrwt>
</event>
<event>
12    1  0.1338445E-007  0.7551431E+03  0.7818608E-02  0.9627316E-01
         -2   -1    0    0    0  501 -0.00000000000E+00  0.00000000000E+00  0.77726975218E+03  0.77726975218E+03  0.00000000000E+00 0.  1.
          2   -1    0    0  501    0  0.00000000000E+00 -0.00000000000E+00 -0.11503405866E+04  0.11503405866E+04  0.00000000000E+00 0. -1.
         23    2    1    2    0    0  0.25189030164E+03 -0.61301479176E+03  0.37048234500E+03  0.76473755946E+03  0.91271616168E+02 0.  0.
    5000000    2    1    2    0    0 -0.25189030164E+03  0.61301479176E+03 -0.74355317940E+03  0.11628727793E+04  0.60013824345E+03 0.  0.
         23    2    4    4    0    0 -0.14342553827E+03  0.67627395260E+03 -0.44748629146E+03  0.82861384600E+03  0.91867190763E+02 0.  0.
         23    2    4    4    0    0 -0.10846476337E+03 -0.63259160843E+02 -0.29606688793E+03  0.33425893329E+03  0.91143326864E+02 0.  0.
          1    1    3    3  502    0  0.11425333485E+03 -0.39148737195E+03  0.21332214204E+03  0.46024180949E+03  0.00000000000E+00 0. -1.
         -1    1    3    3    0  502  0.13763696679E+03 -0.22152741981E+03  0.15716020296E+03  0.30449574997E+03  0.00000000000E+00 0.  1.
         11    1    5    5    0    0 -0.28805095171E+02  0.12921341423E+03 -0.13122981077E+03  0.18640574873E+03  0.00000000000E+00 0.  1.
        -11    1    5    5    0    0 -0.11462044310E+03  0.54706053836E+03 -0.31625648070E+03  0.64220809727E+03  0.00000000000E+00 0. -1.
          1    1    6    6  503    0 -0.83414896575E+01 -0.48407478673E+02 -0.13879036091E+03  0.14722645388E+03  0.00000000000E+00 0. -1.
         -1    1    6    6    0  503 -0.10012327371E+03 -0.14851682170E+02 -0.15727652702E+03  0.18703247941E+03  0.00000000000E+00 0.  1.
<mgrwt>
<rscale>  0 0.75514310E+03</rscale>
<asrwt>0</asrwt>
<pdfrwt beam="1">  1        2 0.17697548E+00 0.75514310E+03</pdfrwt>
<pdfrwt beam="2">  1       -2 0.11957996E+00 0.75514310E+03</pdfrwt>
<totfact> 0.11069644E+01</totfact>
</mgrwt>
</event>
<event>
12    1  0.1338445E-007  0.7337023E+03  0.7818608E-02  0.9661272E-01
         -2   -1    0    0    0  501 -0.00000000000E+00  0.00000000000E+00  0.35033746814E+03  0.35033746814E+03  0.00000000000E+00 0.  1.
          2   -1    0    0  501    0  0.00000000000E+00 -0.00000000000E+00 -0.16833630423E+04  0.16833630423E+04  0.00000000000E+00 0. -1.
         23    2    1    2    0    0 -0.63753814013E+03  0.10688631292E+03 -0.60000032425E+03  0.88678336396E+03  0.92221372172E+02 0.  0.
    5000000    2    1    2    0    0  0.63753814013E+03 -0.10688631292E+03 -0.73302524996E+03  0.11469171465E+04  0.60017777359E+03 0.  0.
         23    2    4    4    0    0 -0.71676003833E+02 -0.33870267260E+02  0.23553079441E+01  0.11876963214E+03  0.88408333953E+02 0.  0.
         23    2    4    4    0    0  0.70921414396E+03 -0.73016045658E+02 -0.73538055790E+03  0.10281475144E+04  0.89368347219E+02 0.  0.
          1    1    3    3  502    0 -0.20687980901E+03  0.85172295051E+01 -0.14614347730E+03  0.25343581935E+03  0.00000000000E+00 0. -1.
         -1    1    3    3    0  502 -0.43065833112E+03  0.98369083412E+02 -0.45385684695E+03  0.63334754461E+03  0.00000000000E+00 0.  1.
         11    1    5    5    0    0 -0.23478292539E+02 -0.49646247630E+02  0.28325892038E+02  0.61792687949E+02  0.00000000000E+00 0. -1.
        -11    1    5    5    0    0 -0.48197711294E+02  0.15775980370E+02 -0.25970584094E+02  0.56976944186E+02  0.00000000000E+00 0.  1.
          2    1    6    6  503    0  0.42870206281E+03 -0.42841885963E+02 -0.50572219695E+03  0.66436121676E+03  0.00000000000E+00 0. -1.
         -2    1    6    6    0  503  0.28051208115E+03 -0.30174159695E+02 -0.22965836095E+03  0.36378629763E+03  0.00000000000E+00 0.  1.
<mgrwt>
<rscale>  0 0.73370233E+03</rscale>
<asrwt>0</asrwt>
<pdfrwt beam="1">  1        2 0.25897893E+00 0.73370233E+03</pdfrwt>
<pdfrwt beam="2">  1       -2 0.53898072E-01 0.73370233E+03</pdfrwt>
<totfact> 0.33398071E+01</totfact>
</mgrwt>
</event>
<event>
12    1  0.1338445E-007  0.2079910E+04  0.7818608E-02  0.8570145E-01
          1   -1    0    0  501    0  0.00000000000E+00  0.00000000000E+00  0.42124637063E+04  0.42124637063E+04  0.00000000000E+00 0. -1.
         -1   -1    0    0    0  501 -0.00000000000E+00 -0.00000000000E+00 -0.10526616975E+04  0.10526616975E+04  0.00000000000E+00 0.  1.
         23    2    1    2    0    0  0.15064380622E+04  0.13867772358E+04  0.18533366727E+04  0.27632208359E+04  0.89586991092E+02 0.  0.
    5000000    2    1    2    0    0 -0.15064380622E+04 -0.13867772358E+04  0.13064653361E+04  0.25019045679E+04  0.60014003004E+03 0.  0.
         23    2    4    4    0    0 -0.55988437774E+03 -0.22180559300E+03  0.53879538571E+03  0.81339567203E+03  0.92972114514E+02 0.  0.
         23    2    4    4    0    0 -0.94655368441E+03 -0.11649716428E+04  0.76766995034E+03  0.16885088958E+04  0.92856517023E+02 0.  0.
          3    1    3    3  502    0  0.43905703635E+03  0.35941000137E+03  0.48270791793E+03  0.74495205503E+03  0.00000000000E+00 0. -1.
         -3    1    3    3    0  502  0.10673810258E+04  0.10273672344E+04  0.13706287548E+04  0.20182687809E+04  0.00000000000E+00 0.  1.
         11    1    5    5    0    0 -0.19871974184E+03 -0.12728353302E+03  0.21301801030E+03  0.31791084645E+03  0.00000000000E+00 0.  1.
        -11    1    5    5    0    0 -0.36116463590E+03 -0.94522059984E+02  0.32577737541E+03  0.49548482558E+03  0.00000000000E+00 0. -1.
          2    1    6    6  503    0 -0.94141229662E+03 -0.11625914212E+04  0.76986952180E+03  0.16824312781E+04  0.00000000000E+00 0. -1.
         -2    1    6    6    0  503 -0.51413877917E+01 -0.23802215924E+01 -0.21995714561E+01  0.60776177771E+01  0.00000000000E+00 0.  1.
<mgrwt>
<rscale>  0 0.20799102E+04</rscale>
<asrwt>0</asrwt>
<pdfrwt beam="1">  1        1 0.64807133E+00 0.20799102E+04</pdfrwt>
<pdfrwt beam="2">  1       -1 0.16194796E+00 0.20799102E+04</pdfrwt>
<totfact> 0.15565196E-02</totfact>
</mgrwt>
</event>
<event>
12    1  0.1338445E-007  0.8512567E+03  0.7818608E-02  0.9488652E-01
          2   -1    0    0  501    0  0.00000000000E+00  0.00000000000E+00  0.10496232790E+04  0.10496232790E+04  0.00000000000E+00 0. -1.
         -2   -1    0    0    0  501 -0.00000000000E+00 -0.00000000000E+00 -0.11914164858E+04  0.11914164858E+04  0.00000000000E+00 0.  1.
         23    2    1    2    0    0  0.77921819013E+03 -0.22058226889E+03 -0.71269859340E+03  0.10826683701E+04  0.91618717945E+02 0.  0.
    5000000    2    1    2    0    0 -0.77921819013E+03  0.22058226889E+03  0.57090538659E+03  0.11583713947E+04  0.60004483378E+03 0.  0.
         23    2    4    4    0    0 -0.70800652657E+03  0.27760827095E+03  0.65187114952E+03  0.10057563539E+04  0.90940937297E+02 0.  0.
         23    2    4    4    0    0 -0.71211663568E+02 -0.57026002066E+02 -0.80965762934E+02  0.15261504084E+03  0.91721480497E+02 0.  0.
          2    1    3    3  502    0  0.64377368081E+03 -0.16389151930E+03 -0.62222289057E+03  0.91020124574E+03  0.00000000000E+00 0. -1.
         -2    1    3    3    0  502  0.13544450932E+03 -0.56690749586E+02 -0.90475702836E+02  0.17246712440E+03  0.00000000000E+00 0.  1.
         13    1    5    5    0    0 -0.53252991877E+03  0.16543117187E+03  0.47352752041E+03  0.73156264229E+03  0.00000000000E+00 0. -1.
        -13    1    5    5    0    0 -0.17547660780E+03  0.11217709909E+03  0.17834362911E+03  0.27419371161E+03  0.00000000000E+00 0.  1.
          2    1    6    6  503    0  0.47294056049E+01 -0.48866753133E+02 -0.50365708340E+02  0.70335136424E+02  0.00000000000E+00 0.  1.
         -2    1    6    6    0  503 -0.75941069173E+02 -0.81592489329E+01 -0.30600054593E+02  0.82279904420E+02  0.00000000000E+00 0. -1.
<mgrwt>
<rscale>  0 0.85125674E+03</rscale>
<asrwt>0</asrwt>
<pdfrwt beam="1">  1        2 0.16148051E+00 0.85125674E+03</pdfrwt>
<pdfrwt beam="2">  1       -2 0.18329484E+00 0.85125674E+03</pdfrwt>
<totfact> 0.40655910E+00</totfact>
</mgrwt>
</event>
<event>
12    1  0.1338445E-007  0.6364522E+03  0.7818608E-02  0.9832538E-01
          1   -1    0    0  501    0  0.00000000000E+00  0.00000000000E+00  0.11135185147E+04  0.11135185147E+04  0.00000000000E+00 0. -1.
         -1   -1    0    0    0  501 -0.00000000000E+00 -0.00000000000E+00 -0.78214726735E+03  0.78214726735E+03  0.00000000000E+00 0.  1.
         23    2    1    2    0    0 -0.52075617314E+03 -0.27893307908E+03 -0.44892851716E+03  0.74758295747E+03  0.91393710472E+02 0.  0.
    5000000    2    1    2    0    0  0.52075617314E+03  0.27893307908E+03  0.78029976454E+03  0.11480828246E+04  0.60019646379E+03 0.  0.
         23    2    4    4    0    0  0.47506674315E+03  0.10180877131E+03  0.20117827158E+03  0.53408881616E+03  0.93406264421E+02 0.  0.
         23    2    4    4    0    0  0.45689429992E+02  0.17712430776E+03  0.57912149296E+03  0.61399400844E+03  0.90257378581E+02 0.  0.
          2    1    3    3  502    0 -0.21530670557E+03 -0.76410183524E+02 -0.13754139933E+03  0.26667045232E+03  0.00000000000E+00 0. -1.
         -2    1    3    3    0  502 -0.30544946757E+03 -0.20252289555E+03 -0.31138711783E+03  0.48091250515E+03  0.00000000000E+00 0.  1.
         13    1    5    5    0    0  0.16207182801E+03  0.74618425451E+02  0.97038834754E+02  0.20310520009E+03  0.00000000000E+00 0. -1.
        -13    1    5    5    0    0  0.31299491513E+03  0.27190345862E+02  0.10413943683E+03  0.33098361607E+03  0.00000000000E+00 0.  1.
          2    1    6    6  503    0  0.19401114635E+02  0.12958775602E+03  0.26976216377E+03  0.29990167515E+03  0.00000000000E+00 0. -1.
         -2    1    6    6    0  503  0.26288315357E+02  0.47536551743E+02  0.30935932919E+03  0.31409233329E+03  0.00000000000E+00 0.  1.
<mgrwt>
<rscale>  0 0.63645224E+03</rscale>
<asrwt>0</asrwt>
<pdfrwt beam="1">  1        1 0.17131054E+00 0.63645224E+03</pdfrwt>
<pdfrwt beam="2">  1       -1 0.12033035E+00 0.63645224E+03</pdfrwt>
<totfact> 0.80260740E+00</totfact>
</mgrwt>
</event>
<event>
12    1  0.1338445E-007  0.1864616E+04  0.7818608E-02  0.8672672E-01
          2   -1    0    0  501    0  0.00000000000E+00  0.00000000000E+00  0.40495478741E+04  0.40495478741E+04  0.00000000000E+00 0. -1.
         -2   -1    0    0    0  501 -0.00000000000E+00 -0.00000000000E+00 -0.18378731698E+04  0.18378731698E+04  0.00000000000E+00 0.  1.
         23    2    1    2    0    0 -0.85500185239E+02  0.18171468181E+04 -0.10517025213E+04  0.21033937447E+04  0.94096821555E+02 0.  0.
    5000000    2    1    2    0    0  0.85500185239E+02 -0.18171468181E+04  0.32633772255E+04  0.37840272992E+04  0.59991569814E+03 0.  0.
         23    2    4    4    0    0 -0.15231614626E+03 -0.14887733782E+04  0.25883649574E+04  0.29913252125E+04  0.93525368844E+02 0.  0.
         23    2    4    4    0    0  0.23781633150E+03 -0.32837343994E+03  0.67501226813E+03  0.79270208666E+03  0.91374572426E+02 0.  0.
          3    1    3    3  502    0 -0.62125626885E+02  0.69295687727E+03 -0.44254577888E+03  0.82455781706E+03  0.00000000000E+00 0. -1.
         -3    1    3    3    0  502 -0.23374558354E+02  0.11241899408E+04 -0.60915674237E+03  0.12788359276E+04  0.00000000000E+00 0.  1.
         11    1    5    5    0    0 -0.87607460294E+02 -0.10915088922E+04  0.19586690769E+04  0.22439811233E+04  0.00000000000E+00 0. -1.
        -11    1    5    5    0    0 -0.64708685965E+02 -0.39726448593E+03  0.62969588046E+03  0.74734408922E+03  0.00000000000E+00 0.  1.
          2    1    6    6  503    0  0.13863550864E+03 -0.24702949697E+03  0.41080670843E+03  0.49900453737E+03  0.00000000000E+00 0.  1.
         -2    1    6    6    0  503  0.99180822858E+02 -0.81343942969E+02  0.26420555970E+03  0.29369754929E+03  0.00000000000E+00 0. -1.
<mgrwt>
<rscale>  0 0.18646163E+04</rscale>
<asrwt>0</asrwt>
<pdfrwt beam="1">  1        2 0.62300737E+00 0.18646163E+04</pdfrwt>
<pdfrwt beam="2">  1       -2 0.28274972E+00 0.18646163E+04</pdfrwt>
<totfact> 0.11414352E-02</totfact>
</mgrwt>
</event>
<event>
12    1  0.1338445E-007  0.4578803E+03  0.7818608E-02  0.1025398E+00
         -2   -1    0    0    0  501 -0.00000000000E+00  0.00000000000E+00  0.14148581800E+03  0.14148581800E+03  0.00000000000E+00 0. -1.
          2   -1    0    0  501    0  0.00000000000E+00 -0.00000000000E+00 -0.23420967970E+04  0.23420967970E+04  0.00000000000E+00 0.  1.
         23    2    1    2    0    0 -0.21026991578E+03  0.24054547859E+03 -0.13768456501E+04  0.14163639921E+04  0.91145208771E+02 0.  0.
    5000000    2    1    2    0    0  0.21026991578E+03 -0.24054547859E+03 -0.82376532888E+03  0.10672186229E+04  0.59857389457E+03 0.  0.
         23    2    4    4    0    0  0.20783498000E+03  0.94720731764E+02 -0.10272763601E+03  0.26674671830E+03  0.91833809603E+02 0.  0.
         23    2    4    4    0    0  0.24349357779E+01 -0.33526621036E+03 -0.72103769287E+03  0.80047190460E+03  0.91926899246E+02 0.  0.
          2    1    3    3  502    0 -0.45270171547E+02  0.10359153957E+03 -0.36766268355E+03  0.38465106834E+03  0.00000000000E+00 0. -1.
         -2    1    3    3    0  502 -0.16499974423E+03  0.13695393902E+03 -0.10091829666E+04  0.10317129238E+04  0.00000000000E+00 0.  1.
         11    1    5    5    0    0  0.11509770375E+03  0.93445147172E+02 -0.36208160533E+02  0.15261227942E+03  0.00000000000E+00 0. -1.
        -11    1    5    5    0    0  0.92737276247E+02  0.12755845921E+01 -0.66519475478E+02  0.11413443889E+03  0.00000000000E+00 0.  1.
          4    1    6    6  503    0 -0.38979759978E+02 -0.83799383187E+02 -0.20864448658E+03  0.22819789677E+03  0.00000000000E+00 0. -1.
         -4    1    6    6    0  503  0.41414695756E+02 -0.25146682717E+03 -0.51239320629E+03  0.57227400783E+03  0.00000000000E+00 0.  1.
<mgrwt>
<rscale>  0 0.45788030E+03</rscale>
<asrwt>0</asrwt>
<pdfrwt beam="1">  1        2 0.36032258E+00 0.45788030E+03</pdfrwt>
<pdfrwt beam="2">  1       -2 0.21767049E-01 0.45788030E+03</pdfrwt>
<totfact> 0.85251569E+01</totfact>
</mgrwt>
</event>
<event>
12    1  0.1338445E-007  0.1072726E+04  0.7818608E-02  0.9232190E-01
         -2   -1    0    0    0  501 -0.00000000000E+00  0.00000000000E+00  0.13382318960E+04  0.13382318960E+04  0.00000000000E+00 0. -1.
          2   -1    0    0  501    0  0.00000000000E+00 -0.00000000000E+00 -0.16778993785E+04  0.16778993785E+04  0.00000000000E+00 0.  1.
         23    2    1    2    0    0  0.51236386538E+03 -0.89833734018E+03 -0.11674202836E+04  0.15620125827E+04  0.86524462749E+02 0.  0.
    5000000    2    1    2    0    0 -0.51236386538E+03  0.89833734018E+03  0.82775280116E+03  0.14541186918E+04  0.59979976873E+03 0.  0.
         23    2    4    4    0    0 -0.11203988935E+03  0.20181935236E+02 -0.41203931711E+02  0.15242359047E+03  0.92600969916E+02 0.  0.
         23    2    4    4    0    0 -0.40032397603E+03  0.87815540494E+03  0.86895673287E+03  0.13016951013E+04  0.88927678896E+02 0.  0.
          3    1    3    3  502    0  0.19865266592E+03 -0.42352012375E+03 -0.49432936998E+03  0.68058335487E+03  0.00000000000E+00 0. -1.
         -3    1    3    3    0  502  0.31371119946E+03 -0.47481721643E+03 -0.67309091365E+03  0.88142922786E+03  0.00000000000E+00 0.  1.
         13    1    5    5    0    0 -0.11921217602E+03  0.36810920477E+02 -0.47126763369E+02  0.13336985643E+03  0.00000000000E+00 0. -1.
        -13    1    5    5    0    0  0.71722866722E+01 -0.16628985240E+02  0.59228316583E+01  0.19053734046E+02  0.00000000000E+00 0.  1.
          3    1    6    6  503    0 -0.24914990267E+03  0.58513685148E+03  0.51885921224E+03  0.82077749183E+03  0.00000000000E+00 0. -1.
         -3    1    6    6    0  503 -0.15117407336E+03  0.29301855346E+03  0.35009752063E+03  0.48091760945E+03  0.00000000000E+00 0.  1.
<mgrwt>
<rscale>  0 0.10727264E+04</rscale>
<asrwt>0</asrwt>
<pdfrwt beam="1">  1        2 0.25813837E+00 0.10727264E+04</pdfrwt>
<pdfrwt beam="2">  1       -2 0.20588183E+00 0.10727264E+04</pdfrwt>
<totfact> 0.12105023E+00</totfact>
</mgrwt>
</event>
<event>
12    1  0.1338445E-007  0.6648572E+03  0.7818608E-02  0.9779293E-01
         -2   -1    0    0    0  501 -0.00000000000E+00  0.00000000000E+00  0.28778881663E+03  0.28778881663E+03  0.00000000000E+00 0.  1.
          2   -1    0    0  501    0  0.00000000000E+00 -0.00000000000E+00 -0.19901464117E+04  0.19901464117E+04  0.00000000000E+00 0. -1.
         23    2    1    2    0    0  0.54986034470E+03 -0.23487219964E+03 -0.10383777452E+04  0.12017428467E+04  0.91903095931E+02 0.  0.
    5000000    2    1    2    0    0 -0.54986034470E+03  0.23487219964E+03 -0.66397984984E+03  0.10761923816E+04  0.59984118929E+03 0.  0.
         23    2    4    4    0    0 -0.34951084616E+02  0.18699149001E+03 -0.47252913010E+03  0.51775436790E+03  0.92727617447E+02 0.  0.
         23    2    4    4    0    0 -0.51490926008E+03  0.47880709631E+02 -0.19145071974E+03  0.55843801370E+03  0.88178957665E+02 0.  0.
          4    1    3    3  502    0  0.38226598463E+03 -0.15077370447E+03 -0.79055237386E+03  0.89097309094E+03  0.00000000000E+00 0. -1.
         -4    1    3    3    0  502  0.16759436007E+03 -0.84098495172E+02 -0.24782537133E+03  0.31076975575E+03  0.00000000000E+00 0.  1.
         11    1    5    5    0    0  0.18510731690E+02  0.15494429440E+01 -0.44978690512E+02  0.48663441733E+02  0.00000000000E+00 0. -1.
        -11    1    5    5    0    0 -0.53461816306E+02  0.18544204707E+03 -0.42755043959E+03  0.46909092617E+03  0.00000000000E+00 0.  1.
          3    1    6    6  503    0 -0.35920141343E+02 -0.98645998209E+01  0.48693020824E+01  0.37566966693E+02  0.00000000000E+00 0. -1.
         -3    1    6    6    0  503 -0.47898911874E+03  0.57745309452E+02 -0.19632002183E+03  0.52087104700E+03  0.00000000000E+00 0.  1.
<mgrwt>
<rscale>  0 0.66485720E+03</rscale>
<asrwt>0</asrwt>
<pdfrwt beam="1">  1        2 0.30617638E+00 0.66485720E+03</pdfrwt>
<pdfrwt beam="2">  1       -2 0.44275201E-01 0.66485720E+03</pdfrwt>
<totfact> 0.34166923E+01</totfact>
</mgrwt>
</event>
<event>
12    1  0.1338445E-007  0.7907621E+03  0.7818608E-02  0.9573486E-01
          2   -1    0    0  501    0  0.00000000000E+00  0.00000000000E+00  0.19801231975E+04  0.19801231975E+04  0.00000000000E+00 0. -1.
         -2   -1    0    0    0  501 -0.00000000000E+00 -0.00000000000E+00 -0.46685261196E+03  0.46685261196E+03  0.00000000000E+00 0.  1.
         23    2    1    2    0    0 -0.61057250436E+02 -0.78031621628E+03  0.11543284565E+04  0.13975401358E+04  0.89570422087E+02 0.  0.
    5000000    2    1    2    0    0  0.61057250436E+02  0.78031621628E+03  0.35894212908E+03  0.10494356737E+04  0.59987865101E+03 0.  0.
         23    2    4    4    0    0 -0.97658497260E+01  0.43658990155E+03 -0.10772042867E+03  0.45860897969E+03  0.89511963112E+02 0.  0.
         23    2    4    4    0    0  0.70823100162E+02  0.34372631473E+03  0.46666255776E+03  0.59082669399E+03  0.90213904510E+02 0.  0.
          4    1    3    3  502    0 -0.33990816553E+01 -0.15049164132E+03  0.28731807186E+03  0.32436239345E+03  0.00000000000E+00 0. -1.
         -4    1    3    3    0  502 -0.57658168780E+02 -0.62982457495E+03  0.86701038460E+03  0.10731777423E+04  0.00000000000E+00 0.  1.
         13    1    5    5    0    0 -0.94036484764E+01  0.23114968500E+03 -0.11166734546E+02  0.23161023605E+03  0.00000000000E+00 0. -1.
        -13    1    5    5    0    0 -0.36220124957E+00  0.20544021655E+03 -0.96553694126E+02  0.22699874364E+03  0.00000000000E+00 0.  1.
          4    1    6    6  503    0  0.17750949998E+02  0.43802806437E+01  0.16772532008E+02  0.24811306179E+02  0.00000000000E+00 0. -1.
         -4    1    6    6    0  503  0.53072150164E+02  0.33934603408E+03  0.44989002575E+03  0.56601538781E+03  0.00000000000E+00 0.  1.
<mgrwt>
<rscale>  0 0.79076210E+03</rscale>
<asrwt>0</asrwt>
<pdfrwt beam="1">  1        2 0.30463433E+00 0.79076210E+03</pdfrwt>
<pdfrwt beam="2">  1       -2 0.71823480E-01 0.79076210E+03</pdfrwt>
<totfact> 0.12386477E+01</totfact>
</mgrwt>
</event>
<event>
12    1  0.1338445E-007  0.4423236E+03  0.7818608E-02  0.1030036E+00
         -1   -1    0    0    0  501 -0.00000000000E+00  0.00000000000E+00  0.52151430050E+03  0.52151430050E+03  0.00000000000E+00 0.  1.
          1   -1    0    0  501    0  0.00000000000E+00 -0.00000000000E+00 -0.57405897426E+03  0.57405897426E+03  0.00000000000E+00 0. -1.
         23    2    1    2    0    0  0.71734502841E+02 -0.29748967301E+03  0.19916390155E+03  0.37658723870E+03  0.92226591754E+02 0.  0.
    5000000    2    1    2    0    0 -0.71734502841E+02  0.29748967301E+03 -0.25170857531E+03  0.71898603605E+03  0.59994813835E+03 0.  0.
         23    2    4    4    0    0 -0.22090729299E+03 -0.57050748368E+01 -0.28474619137E+03  0.37013443377E+03  0.84181503858E+02 0.  0.
         23    2    4    4    0    0  0.14917279014E+03  0.30319474785E+03  0.33037616059E+02  0.34885160228E+03  0.80164704814E+02 0.  0.
          4    1    3    3  502    0  0.43003769857E+02 -0.14669083722E+03  0.15301443107E+03  0.21628902436E+03  0.00000000000E+00 0. -1.
         -4    1    3    3    0  502  0.28730732984E+02 -0.15079883579E+03  0.46149470487E+02  0.16029821434E+03  0.00000000000E+00 0.  1.
         13    1    5    5    0    0 -0.57670608649E+02  0.33991638352E+02 -0.10096317018E+03  0.12113996992E+03  0.00000000000E+00 0. -1.
        -13    1    5    5    0    0 -0.16323668434E+03 -0.39696713189E+02 -0.18378302119E+03  0.24899446385E+03  0.00000000000E+00 0.  1.
          4    1    6    6  503    0  0.10852570325E+03  0.26952372827E+03  0.46817974232E+02  0.29430051151E+03  0.00000000000E+00 0. -1.
         -4    1    6    6    0  503  0.40647086898E+02  0.33671019577E+02 -0.13780358173E+02  0.54551090769E+02  0.00000000000E+00 0.  1.
<mgrwt>
<rscale>  0 0.44232362E+03</rscale>
<asrwt>0</asrwt>
<pdfrwt beam="1">  1        1 0.88316765E-01 0.44232362E+03</pdfrwt>
<pdfrwt beam="2">  1       -1 0.80232970E-01 0.44232362E+03</pdfrwt>
<totfact> 0.59688632E+01</totfact>
</mgrwt>
</event>
<event>
12    1  0.1338445E-007  0.8243535E+03  0.7818608E-02  0.9525420E-01
         -2   -1    0    0    0  501 -0.00000000000E+00  0.00000000000E+00  0.10551577522E+04  0.10551577522E+04  0.00000000000E+00 0.  1.
          2   -1    0    0  501    0  0.00000000000E+00 -0.00000000000E+00 -0.66960910541E+03  0.66960910541E+03  0.00000000000E+00 0. -1.
         23    2    1    2    0    0 -0.67520176300E+03 -0.28272767448E+03  0.17323118147E+03  0.75490627378E+03  0.63577364544E+02 0.  0.
    5000000    2    1    2    0    0  0.67520176300E+03  0.28272767448E+03  0.21231746537E+03  0.96986058388E+03  0.59976536027E+03 0.  0.
         23    2    4    4    0    0  0.58725537159E+03 -0.29999665368E+02  0.53693048790E+02  0.59756495424E+03  0.91826355995E+02 0.  0.
         23    2    4    4    0    0  0.87946391403E+02  0.31272733985E+03  0.15862441658E+03  0.37229562964E+03  0.88934658396E+02 0.  0.
          4    1    3    3  502    0 -0.22236161199E+03 -0.11663284233E+03  0.37872239445E+02  0.25393348128E+03  0.00000000000E+00 0. -1.
         -4    1    3    3    0  502 -0.45284015101E+03 -0.16609483215E+03  0.13535894202E+03  0.50097279249E+03  0.00000000000E+00 0.  1.
         13    1    5    5    0    0  0.91328053634E+02 -0.23611568892E+02 -0.19210081824E+02  0.96267059838E+02  0.00000000000E+00 0.  1.
        -13    1    5    5    0    0  0.49592731796E+03 -0.63880964767E+01  0.72903130615E+02  0.50129789440E+03  0.00000000000E+00 0. -1.
          1    1    6    6  503    0  0.65619848571E+02  0.21867412586E+03  0.15424751421E+03  0.27552973250E+03  0.00000000000E+00 0. -1.
         -1    1    6    6    0  503  0.22326542832E+02  0.94053213986E+02  0.43769023682E+01  0.96765897145E+02  0.00000000000E+00 0.  1.
<mgrwt>
<rscale>  0 0.82435350E+03</rscale>
<asrwt>0</asrwt>
<pdfrwt beam="1">  1        2 0.10301679E+00 0.82435350E+03</pdfrwt>
<pdfrwt beam="2">  1       -2 0.16233196E+00 0.82435350E+03</pdfrwt>
<totfact> 0.10577910E+01</totfact>
</mgrwt>
</event>
<event>
12    1  0.1338445E-007  0.7735956E+03  0.7818608E-02  0.9599043E-01
         -2   -1    0    0    0  501 -0.00000000000E+00  0.00000000000E+00  0.13072851290E+04  0.13072851290E+04  0.00000000000E+00 0.  1.
          2   -1    0    0  501    0  0.00000000000E+00 -0.00000000000E+00 -0.60944666796E+03  0.60944666796E+03  0.00000000000E+00 0. -1.
         23    2    1    2    0    0  0.65646866301E+03  0.21700980799E+03  0.71817239234E+03  0.10010507282E+04  0.91030835143E+02 0.  0.
    5000000    2    1    2    0    0 -0.65646866301E+03 -0.21700980799E+03 -0.20333931355E+02  0.91568106876E+03  0.60001165708E+03 0.  0.
         23    2    4    4    0    0 -0.52277397888E+02  0.12008155575E+03 -0.13493709548E+03  0.20882626261E+03  0.90817849893E+02 0.  0.
         23    2    4    4    0    0 -0.60419126512E+03 -0.33709136374E+03  0.11460316413E+03  0.70685480615E+03  0.88499488040E+02 0.  0.
          4    1    3    3  502    0  0.15238760406E+03  0.17656695726E+02  0.19014190916E+03  0.24431063504E+03  0.00000000000E+00 0. -1.
         -4    1    3    3    0  502  0.50408105895E+03  0.19935311227E+03  0.52803048318E+03  0.75674009312E+03  0.00000000000E+00 0.  1.
         11    1    5    5    0    0  0.20189307251E+02  0.48433218021E+02 -0.71856486553E+02  0.88976060797E+02  0.00000000000E+00 0. -1.
        -11    1    5    5    0    0 -0.72466705138E+02  0.71648337724E+02 -0.63080608928E+02  0.11985020181E+03  0.00000000000E+00 0.  1.
          4    1    6    6  503    0 -0.21457438078E+02 -0.34742083486E+02  0.30987429898E+01  0.40951632714E+02  0.00000000000E+00 0. -1.
         -4    1    6    6    0  503 -0.58273382705E+03 -0.30234928025E+03  0.11150442114E+03  0.66590317343E+03  0.00000000000E+00 0.  1.
<mgrwt>
<rscale>  0 0.77359556E+03</rscale>
<asrwt>0</asrwt>
<pdfrwt beam="1">  1        2 0.93761026E-01 0.77359556E+03</pdfrwt>
<pdfrwt beam="2">  1       -2 0.20112079E+00 0.77359556E+03</pdfrwt>
<totfact> 0.64753383E+00</totfact>
</mgrwt>
</event>
<event>
12    1  0.1338445E-007  0.8821382E+03  0.7818608E-02  0.9448189E-01
          1   -1    0    0  501    0  0.00000000000E+00  0.00000000000E+00  0.74781678306E+03  0.74781678306E+03  0.00000000000E+00 0. -1.
         -1   -1    0    0    0  501 -0.00000000000E+00 -0.00000000000E+00 -0.22160568815E+04  0.22160568815E+04  0.00000000000E+00 0.  1.
         23    2    1    2    0    0  0.33470566075E+03 -0.78227716341E+03 -0.16945899602E+04  0.18984150787E+04  0.91428868256E+02 0.  0.
    5000000    2    1    2    0    0 -0.33470566075E+03  0.78227716341E+03  0.22634986179E+03  0.10654585859E+04  0.59998524861E+03 0.  0.
         23    2    4    4    0    0 -0.25914165894E+03  0.22376595652E+03 -0.14563226954E+03  0.38410992708E+03  0.95425758869E+02 0.  0.
         23    2    4    4    0    0 -0.75564001807E+02  0.55851120690E+03  0.37198213133E+03  0.68134865879E+03  0.90667536703E+02 0.  0.
          4    1    3    3  502    0  0.16144401824E+03 -0.40235695325E+03 -0.96203889469E+03  0.10552128334E+04  0.00000000000E+00 0.  1.
         -4    1    3    3    0  502  0.17326164251E+03 -0.37992021016E+03 -0.73255106553E+03  0.84320224529E+03  0.00000000000E+00 0. -1.
         11    1    5    5    0    0 -0.18590853466E+03  0.16062815468E+03 -0.14903329704E+03  0.28735746199E+03  0.00000000000E+00 0.  1.
        -11    1    5    5    0    0 -0.73233124279E+02  0.63137801838E+02  0.34010275007E+01  0.96752465088E+02  0.00000000000E+00 0. -1.
          4    1    6    6  503    0  0.17855124691E+02  0.38265598432E+02  0.29984017731E+02  0.51789022200E+02  0.00000000000E+00 0. -1.
         -4    1    6    6    0  503 -0.93419126498E+02  0.52024560846E+03  0.34199811360E+03  0.62955963659E+03  0.00000000000E+00 0.  1.
<mgrwt>
<rscale>  0 0.88213820E+03</rscale>
<asrwt>0</asrwt>
<pdfrwt beam="1">  1        1 0.11504874E+00 0.88213820E+03</pdfrwt>
<pdfrwt beam="2">  1       -1 0.34093182E+00 0.88213820E+03</pdfrwt>
<totfact> 0.45629849E-01</totfact>
</mgrwt>
</event>
<event>
12    1  0.1338445E-007  0.4872496E+03  0.7818608E-02  0.1017162E+00
         -2   -1    0    0    0  501 -0.00000000000E+00  0.00000000000E+00  0.19936674760E+03  0.19936674760E+03  0.00000000000E+00 0.  1.
          2   -1    0    0  501    0  0.00000000000E+00 -0.00000000000E+00 -0.20417693724E+04  0.20417693724E+04  0.00000000000E+00 0. -1.
         23    2    1    2    0    0 -0.13443827762E+03 -0.35229456133E+03 -0.12768472375E+04  0.13345019268E+04  0.91495443214E+02 0.  0.
    5000000    2    1    2    0    0  0.13443827762E+03  0.35229456133E+03 -0.56555538726E+03  0.90663419322E+03  0.59995629493E+03 0.  0.
         23    2    4    4    0    0  0.30420400867E+03  0.17832962402E+03 -0.53243452972E+03  0.64460875244E+03  0.87706223203E+02 0.  0.
         23    2    4    4    0    0 -0.16976573105E+03  0.17396493732E+03 -0.33120857539E+02  0.26202544079E+03  0.92065941361E+02 0.  0.
          2    1    3    3  502    0 -0.64611883643E+02 -0.19715197013E+03 -0.54536531309E+03  0.58349543234E+03  0.00000000000E+00 0.  1.
         -2    1    3    3    0  502 -0.69826393975E+02 -0.15514259121E+03 -0.73148192443E+03  0.75100649442E+03  0.00000000000E+00 0. -1.
         11    1    5    5    0    0  0.19381292993E+03  0.12003453263E+03 -0.26564120926E+03  0.35005284300E+03  0.00000000000E+00 0. -1.
        -11    1    5    5    0    0  0.11039107874E+03  0.58295091384E+02 -0.26679332046E+03  0.29455590944E+03  0.00000000000E+00 0.  1.
          3    1    6    6  503    0 -0.31675201203E+02  0.20966530209E+02  0.27843130334E+02  0.47097278764E+02  0.00000000000E+00 0. -1.
         -3    1    6    6    0  503 -0.13809052985E+03  0.15299840711E+03 -0.60963987872E+02  0.21492816202E+03  0.00000000000E+00 0.  1.
<mgrwt>
<rscale>  0 0.48724956E+03</rscale>
<asrwt>0</asrwt>
<pdfrwt beam="1">  1        2 0.31411838E+00 0.48724956E+03</pdfrwt>
<pdfrwt beam="2">  1       -2 0.30671806E-01 0.48724956E+03</pdfrwt>
<totfact> 0.66567902E+01</totfact>
</mgrwt>
</event>
<event>
12    1  0.1338445E-007  0.6128273E+03  0.7818608E-02  0.9879145E-01
          2   -1    0    0  501    0  0.00000000000E+00  0.00000000000E+00  0.15355845429E+04  0.15355845429E+04  0.00000000000E+00 0.  1.
         -2   -1    0    0    0  501 -0.00000000000E+00 -0.00000000000E+00 -0.30872454119E+03  0.30872454119E+03  0.00000000000E+00 0. -1.
         23    2    1    2    0    0  0.31432214736E+03  0.43192389997E+03  0.69151775733E+03  0.87871963104E+03  0.92707678208E+02 0.  0.
    5000000    2    1    2    0    0 -0.31432214736E+03 -0.43192389997E+03  0.53534224434E+03  0.96558945300E+03  0.60034573829E+03 0.  0.
         23    2    4    4    0    0 -0.24355755632E+03 -0.50647844704E+03  0.58725472964E+03  0.81792751810E+03  0.91085711430E+02 0.  0.
         23    2    4    4    0    0 -0.70764591031E+02  0.74554547072E+02 -0.51912485298E+02  0.14766193489E+03  0.92429070394E+02 0.  0.
          3    1    3    3  502    0  0.98428462083E+02  0.16754695434E+03  0.18772495167E+03  0.27018660502E+03  0.00000000000E+00 0. -1.
         -3    1    3    3    0  502  0.21589368527E+03  0.26437694563E+03  0.50379280566E+03  0.60853302602E+03  0.00000000000E+00 0.  1.
         11    1    5    5    0    0 -0.80807691936E+02 -0.16277669022E+03  0.13130578753E+03  0.22420379969E+03  0.00000000000E+00 0. -1.
        -11    1    5    5    0    0 -0.16274986439E+03 -0.34370175682E+03  0.45594894211E+03  0.59372371842E+03  0.00000000000E+00 0.  1.
          1    1    6    6  503    0  0.14814274692E+01 -0.13787149259E+02 -0.27733712198E+02  0.31007078294E+02  0.00000000000E+00 0. -1.
         -1    1    6    6    0  503 -0.72246018501E+02  0.88341696331E+02 -0.24178773100E+02  0.11665485660E+03  0.00000000000E+00 0.  1.
<mgrwt>
<rscale>  0 0.61282735E+03</rscale>
<asrwt>0</asrwt>
<pdfrwt beam="1">  1        2 0.23624377E+00 0.61282735E+03</pdfrwt>
<pdfrwt beam="2">  1       -2 0.47496084E-01 0.61282735E+03</pdfrwt>
<totfact> 0.52875173E+01</totfact>
</mgrwt>
</event>
<event>
12    1  0.1706681E-007  0.9076366E+03  0.7818608E-02  0.9416085E-01
          1   -1    0    0  501    0  0.00000000000E+00  0.00000000000E+00  0.17237810107E+04  0.17237810107E+04  0.00000000000E+00 0. -1.
         -1   -1    0    0    0  501 -0.00000000000E+00 -0.00000000000E+00 -0.52418454026E+03  0.52418454026E+03  0.00000000000E+00 0.  1.
         23    2    1    2    0    0 -0.35975830610E+03 -0.74965464946E+03  0.76777347957E+03  0.11353622736E+04  0.90350672829E+02 0.  0.
    5000000    2    1    2    0    0  0.35975830610E+03  0.74965464946E+03  0.43182299086E+03  0.11126032774E+04  0.60000568756E+03 0.  0.
         23    2    4    4    0    0  0.42901522491E+03  0.75223123094E+03  0.47212060321E+03  0.99042045489E+03  0.90160553869E+02 0.  0.
         23    2    4    4    0    0 -0.69256918816E+02 -0.25765814879E+01 -0.40297612351E+02  0.12218282247E+03  0.92204039882E+02 0.  0.
          2    1    3    3  502    0 -0.22184065071E+03 -0.52174174374E+03  0.47602110030E+03  0.74028630231E+03  0.00000000000E+00 0. -1.
         -2    1    3    3    0  502 -0.13791765538E+03 -0.22791290572E+03  0.29175237927E+03  0.39507597127E+03  0.00000000000E+00 0.  1.
         13    1    5    5    0    0  0.20180019537E+03  0.38893242035E+03  0.19135967444E+03  0.47813206487E+03  0.00000000000E+00 0. -1.
        -13    1    5    5    0    0  0.22721502954E+03  0.36329881059E+03  0.28076092877E+03  0.51228839002E+03  0.00000000000E+00 0.  1.
          1    1    6    6  503    0 -0.43659132697E+02  0.44083422307E+02 -0.23982549838E+02  0.66517897493E+02  0.00000000000E+00 0. -1.
         -1    1    6    6    0  503 -0.25597786119E+02 -0.46660003795E+02 -0.16315062513E+02  0.55664924981E+02  0.00000000000E+00 0.  1.
<mgrwt>
<rscale>  0 0.90763658E+03</rscale>
<asrwt>0</asrwt>
<pdfrwt beam="1">  1        1 0.26519708E+00 0.90763658E+03</pdfrwt>
<pdfrwt beam="2">  1       -1 0.80643776E-01 0.90763658E+03</pdfrwt>
<totfact> 0.71791004E+00</totfact>
</mgrwt>
</event>
<event>
12    1  0.1338445E-007  0.3744813E+03  0.7818608E-02  0.1052993E+00
         -1   -1    0    0    0  501 -0.00000000000E+00  0.00000000000E+00  0.17410335182E+04  0.17410335182E+04  0.00000000000E+00 0.  1.
          1   -1    0    0  501    0  0.00000000000E+00 -0.00000000000E+00 -0.10280099333E+03  0.10280099333E+03  0.00000000000E+00 0. -1.
         23    2    1    2    0    0 -0.17765200486E+03  0.31911011421E+02  0.57895919303E+03  0.61318934490E+03  0.90713163410E+02 0.  0.
    5000000    2    1    2    0    0  0.17765200486E+03 -0.31911011421E+02  0.10592733318E+04  0.12306451666E+04  0.59987414277E+03 0.  0.
         23    2    4    4    0    0 -0.16932471846E+03 -0.76777581324E+02  0.16711511070E+03  0.26782476943E+03  0.96109258749E+02 0.  0.
         23    2    4    4    0    0  0.34697672332E+03  0.44866569903E+02  0.89215822114E+03  0.96282039722E+03  0.93118044064E+02 0.  0.
          3    1    3    3  502    0 -0.35707278336E+02  0.11070916344E+02  0.37135841347E+02  0.52693886053E+02  0.00000000000E+00 0. -1.
         -3    1    3    3    0  502 -0.14194472652E+03  0.20840095077E+02  0.54182335169E+03  0.56049545884E+03  0.00000000000E+00 0.  1.
         13    1    5    5    0    0  0.10825371108E+02 -0.14213086328E+01  0.17929438051E+00  0.10919749279E+02  0.00000000000E+00 0. -1.
        -13    1    5    5    0    0 -0.18015008957E+03 -0.75356272691E+02  0.16693581632E+03  0.25690502015E+03  0.00000000000E+00 0.  1.
          3    1    6    6  503    0  0.58548265235E+02  0.44415774950E+02  0.17106961131E+03  0.18618665994E+03  0.00000000000E+00 0. -1.
         -3    1    6    6    0  503  0.28842845808E+03  0.45079495369E+00  0.72108860983E+03  0.77663373728E+03  0.00000000000E+00 0.  1.
<mgrwt>
<rscale>  0 0.37448131E+03</rscale>
<asrwt>0</asrwt>
<pdfrwt beam="1">  1        1 0.15815539E-01 0.37448131E+03</pdfrwt>
<pdfrwt beam="2">  1       -1 0.26785129E+00 0.37448131E+03</pdfrwt>
<totfact> 0.20881762E+01</totfact>
</mgrwt>
</event>
<event>
12    1  0.1338445E-007  0.1216460E+04  0.7818608E-02  0.9098570E-01
         -2   -1    0    0    0  501 -0.00000000000E+00  0.00000000000E+00  0.16808872703E+04  0.16808872703E+04  0.00000000000E+00 0. -1.
          2   -1    0    0  501    0  0.00000000000E+00 -0.00000000000E+00 -0.90719931794E+03  0.90719931794E+03  0.00000000000E+00 0.  1.
         23    2    1    2    0    0 -0.63244026565E+03  0.96638749102E+03  0.47887989608E+03  0.12536213967E+04  0.91406667653E+02 0.  0.
    5000000    2    1    2    0    0  0.63244026565E+03 -0.96638749102E+03  0.29480805627E+03  0.13344651916E+04  0.60000007092E+03 0.  0.
         23    2    4    4    0    0  0.49380776088E+03 -0.99861814046E+03  0.32106217312E+03  0.11630193598E+04  0.91917447477E+02 0.  0.
         23    2    4    4    0    0  0.13863250477E+03  0.32230649445E+02 -0.26254116854E+02  0.17144583176E+03  0.91905432017E+02 0.  0.
          2    1    3    3  502    0 -0.35213931169E+03  0.61397486426E+03  0.31000996175E+03  0.77270525115E+03  0.00000000000E+00 0. -1.
         -2    1    3    3    0  502 -0.28030095395E+03  0.35241262676E+03  0.16886993434E+03  0.48091614551E+03  0.00000000000E+00 0.  1.
         11    1    5    5    0    0  0.30499999776E+03 -0.65160970477E+03  0.24982915945E+03  0.76160016734E+03  0.00000000000E+00 0. -1.
        -11    1    5    5    0    0  0.18880776312E+03 -0.34700843569E+03  0.71233013669E+02  0.40141919248E+03  0.00000000000E+00 0.  1.
          4    1    6    6  503    0  0.14556040867E+03  0.20906241332E+02 -0.39937566662E+02  0.15238081484E+03  0.00000000000E+00 0. -1.
         -4    1    6    6    0  503 -0.69279039047E+01  0.11324408113E+02  0.13683449808E+02  0.19065016923E+02  0.00000000000E+00 0.  1.
<mgrwt>
<rscale>  0 0.12164595E+04</rscale>
<asrwt>0</asrwt>
<pdfrwt beam="1">  1        2 0.13956913E+00 0.12164595E+04</pdfrwt>
<pdfrwt beam="2">  1       -2 0.25859804E+00 0.12164595E+04</pdfrwt>
<totfact> 0.16073268E+00</totfact>
</mgrwt>
</event>
<event>
12    1  0.1338445E-007  0.9201060E+03  0.7818608E-02  0.9400791E-01
         -1   -1    0    0    0  501 -0.00000000000E+00  0.00000000000E+00  0.11202768375E+04  0.11202768375E+04  0.00000000000E+00 0.  1.
          1   -1    0    0  501    0  0.00000000000E+00 -0.00000000000E+00 -0.91715200597E+03  0.91715200597E+03  0.00000000000E+00 0. -1.
         23    2    1    2    0    0  0.30712137149E+03  0.77554572407E+03  0.48862251078E+03  0.97095560107E+03  0.90598643761E+02 0.  0.
    5000000    2    1    2    0    0 -0.30712137149E+03 -0.77554572407E+03 -0.28549767928E+03  0.10664732424E+04  0.60005128520E+03 0.  0.
         23    2    4    4    0    0 -0.33774945512E+02 -0.70586779105E+03 -0.10759178801E+03  0.72084158807E+03  0.92986648833E+02 0.  0.
         23    2    4    4    0    0 -0.27334642598E+03 -0.69677933023E+02 -0.17790589127E+03  0.34563165430E+03  0.90760406348E+02 0.  0.
          1    1    3    3  502    0  0.21245364226E+03  0.43723941204E+03  0.31329413645E+03  0.57833214461E+03  0.00000000000E+00 0. -1.
         -1    1    3    3    0  502  0.94667729228E+02  0.33830631203E+03  0.17532837433E+03  0.39262345646E+03  0.00000000000E+00 0.  1.
         11    1    5    5    0    0  0.16013376614E+02 -0.31639477075E+03 -0.13524820452E+02  0.31708831571E+03  0.00000000000E+00 0. -1.
        -11    1    5    5    0    0 -0.49788322126E+02 -0.38947302030E+03 -0.94066967555E+02  0.40375327236E+03  0.00000000000E+00 0.  1.
          4    1    6    6  503    0 -0.59155310229E+02  0.18105194185E+02 -0.18492343728E+02  0.64568688707E+02  0.00000000000E+00 0. -1.
         -4    1    6    6    0  503 -0.21419111575E+03 -0.87783127209E+02 -0.15941354754E+03  0.28106296560E+03  0.00000000000E+00 0.  1.
<mgrwt>
<rscale>  0 0.92010603E+03</rscale>
<asrwt>0</asrwt>
<pdfrwt beam="1">  1        1 0.14110031E+00 0.92010603E+03</pdfrwt>
<pdfrwt beam="2">  1       -1 0.17235028E+00 0.92010603E+03</pdfrwt>
<totfact> 0.42193375E+00</totfact>
</mgrwt>
</event>
<event>
12    1  0.1338445E-007  0.1195550E+04  0.7818608E-02  0.9116761E-01
         -2   -1    0    0    0  501 -0.00000000000E+00  0.00000000000E+00  0.68932268360E+03  0.68932268360E+03  0.00000000000E+00 0.  1.
          2   -1    0    0  501    0  0.00000000000E+00 -0.00000000000E+00 -0.31961778541E+04  0.31961778541E+04  0.00000000000E+00 0. -1.
         23    2    1    2    0    0  0.11802248221E+04 -0.13798458234E+03 -0.18048016074E+03  0.12052449518E+04  0.89843918598E+02 0.  0.
    5000000    2    1    2    0    0 -0.11802248221E+04  0.13798458234E+03 -0.23263750098E+04  0.26802555859E+04  0.59981575865E+03 0.  0.
         23    2    4    4    0    0 -0.10155562109E+04  0.76900433379E+02 -0.22433624451E+04  0.24654286184E+04  0.91624879667E+02 0.  0.
         23    2    4    4    0    0 -0.16466861118E+03  0.61084148962E+02 -0.83012564705E+02  0.21482696750E+03  0.91719765081E+02 0.  0.
          1    1    3    3  502    0  0.10256897367E+04 -0.13229080699E+03 -0.12868444239E+03  0.10421612060E+04  0.00000000000E+00 0. -1.
         -1    1    3    3    0  502  0.15453508535E+03 -0.56937753534E+01 -0.51795718345E+02  0.16308374573E+03  0.00000000000E+00 0.  1.
         11    1    5    5    0    0 -0.71456601323E+03  0.43845094456E+02 -0.14751399873E+04  0.16396844092E+04  0.00000000000E+00 0. -1.
        -11    1    5    5    0    0 -0.30099019767E+03  0.33055338923E+02 -0.76822245777E+03  0.82574420927E+03  0.00000000000E+00 0.  1.
          1    1    6    6  503    0 -0.16700312846E+03  0.53093797135E+02 -0.95687823901E+02  0.19966260504E+03  0.00000000000E+00 0. -1.
         -1    1    6    6    0  503  0.23345172789E+01  0.79903518270E+01  0.12675259196E+02  0.15164362464E+02  0.00000000000E+00 0.  1.
<mgrwt>
<rscale>  0 0.11955499E+04</rscale>
<asrwt>0</asrwt>
<pdfrwt beam="1">  1        2 0.49171967E+00 0.11955499E+04</pdfrwt>
<pdfrwt beam="2">  1       -2 0.10604964E+00 0.11955499E+04</pdfrwt>
<totfact> 0.93035285E-01</totfact>
</mgrwt>
</event>
<event>
12    1  0.1338445E-007  0.5683447E+03  0.7818608E-02  0.9973348E-01
          2   -1    0    0  501    0  0.00000000000E+00  0.00000000000E+00  0.37459233134E+04  0.37459233134E+04  0.00000000000E+00 0.  1.
         -2   -1    0    0    0  501 -0.00000000000E+00 -0.00000000000E+00 -0.58244307166E+03  0.58244307166E+03  0.00000000000E+00 0. -1.
         23    2    1    2    0    0 -0.10489234465E+02 -0.45230789931E+03  0.34822081780E+04  0.35121434190E+04  0.68448087788E+02 0.  0.
    5000000    2    1    2    0    0  0.10489234465E+02  0.45230789931E+03 -0.31872793627E+03  0.81622296607E+03  0.59994997555E+03 0.  0.
         23    2    4    4    0    0 -0.15093980672E+03  0.47384419215E+03 -0.36711637866E+03  0.62345056570E+03  0.81271327699E+02 0.  0.
         23    2    4    4    0    0  0.16142904118E+03 -0.21536292842E+02  0.48388442393E+02  0.19277240037E+03  0.91085727419E+02 0.  0.
          2    1    3    3  502    0 -0.32535931771E+02 -0.37358166005E+03  0.27738590555E+04  0.27990919784E+04  0.00000000000E+00 0.  1.
         -2    1    3    3    0  502  0.22046697306E+02 -0.78726239256E+02  0.70834912244E+03  0.71305144055E+03  0.00000000000E+00 0. -1.
         13    1    5    5    0    0 -0.75272315677E+02  0.14865074547E+03 -0.88949698935E+02  0.18887830626E+03  0.00000000000E+00 0. -1.
        -13    1    5    5    0    0 -0.75667491041E+02  0.32519344669E+03 -0.27816667972E+03  0.43457225944E+03  0.00000000000E+00 0.  1.
          4    1    6    6  503    0  0.30626112004E+02 -0.36650898364E+02  0.37359342577E+02  0.60638004298E+02  0.00000000000E+00 0. -1.
         -4    1    6    6    0  503  0.13080292918E+03  0.15114605522E+02  0.11029099815E+02  0.13213439607E+03  0.00000000000E+00 0.  1.
<mgrwt>
<rscale>  0 0.56834472E+03</rscale>
<asrwt>0</asrwt>
<pdfrwt beam="1">  1        2 0.57629588E+00 0.56834472E+03</pdfrwt>
<pdfrwt beam="2">  1       -2 0.89606628E-01 0.56834472E+03</pdfrwt>
<totfact> 0.66846170E-01</totfact>
</mgrwt>
</event>
<event>
12    1  0.1338445E-007  0.5601362E+03  0.7818608E-02  0.9991746E-01
          2   -1    0    0  501    0  0.00000000000E+00  0.00000000000E+00  0.17614760332E+04  0.17614760332E+04  0.00000000000E+00 0. -1.
         -2   -1    0    0    0  501 -0.00000000000E+00 -0.00000000000E+00 -0.24727837084E+03  0.24727837084E+03  0.00000000000E+00 0.  1.
         23    2    1    2    0    0 -0.37657752547E+03  0.33795492019E+03  0.77819574296E+03  0.93280236140E+03  0.92235949059E+02 0.  0.
    5000000    2    1    2    0    0  0.37657752547E+03 -0.33795492019E+03  0.73600191941E+03  0.10759520427E+04  0.59995817518E+03 0.  0.
         23    2    4    4    0    0 -0.12007374555E+02 -0.14540566000E+03 -0.45694284972E+02  0.17767272004E+03  0.90513229772E+02 0.  0.
         23    2    4    4    0    0  0.38858490002E+03 -0.19254926019E+03  0.78169620438E+03  0.89827932262E+03  0.88223258726E+02 0.  0.
          1    1    3    3  502    0 -0.21502239574E+02  0.23663522926E+02  0.10211854501E+03  0.10700703649E+03  0.00000000000E+00 0. -1.
         -1    1    3    3    0  502 -0.35507528589E+03  0.31429139726E+03  0.67607719795E+03  0.82579532491E+03  0.00000000000E+00 0.  1.
         13    1    5    5    0    0 -0.51111643665E+02 -0.95198835818E+02 -0.29463326200E+02  0.11199690197E+03  0.00000000000E+00 0. -1.
        -13    1    5    5    0    0  0.39104269110E+02 -0.50206824180E+02 -0.16230958772E+02  0.65675818073E+02  0.00000000000E+00 0.  1.
          3    1    6    6  503    0  0.24989711477E+03 -0.16916782601E+03  0.54363278765E+03  0.62177401774E+03  0.00000000000E+00 0. -1.
         -3    1    6    6    0  503  0.13868778525E+03 -0.23381434181E+02  0.23806341673E+03  0.27650530488E+03  0.00000000000E+00 0.  1.
<mgrwt>
<rscale>  0 0.56013621E+03</rscale>
<asrwt>0</asrwt>
<pdfrwt beam="1">  1        2 0.27099631E+00 0.56013621E+03</pdfrwt>
<pdfrwt beam="2">  1       -2 0.38042827E-01 0.56013621E+03</pdfrwt>
<totfact> 0.62052509E+01</totfact>
</mgrwt>
</event>
<event>
12    1  0.1338445E-007  0.7490597E+03  0.7818608E-02  0.9636827E-01
          2   -1    0    0  501    0  0.00000000000E+00  0.00000000000E+00  0.30162596717E+04  0.30162596717E+04  0.00000000000E+00 0. -1.
         -2   -1    0    0    0  501 -0.00000000000E+00 -0.00000000000E+00 -0.32993702740E+03  0.32993702740E+03  0.00000000000E+00 0.  1.
         23    2    1    2    0    0  0.62992277551E+03  0.13876550795E+02  0.13391355205E+03  0.64960824440E+03  0.84040287978E+02 0.  0.
    5000000    2    1    2    0    0 -0.62992277551E+03 -0.13876550795E+02  0.25524090922E+04  0.26965884547E+04  0.59983485905E+03 0.  0.
         23    2    4    4    0    0 -0.81740672541E+02 -0.24152309177E+03  0.87045185106E+03  0.91052370919E+03  0.79699802913E+02 0.  0.
         23    2    4    4    0    0 -0.54818210297E+03  0.22764654098E+03  0.16819572412E+04  0.17860647455E+04  0.93383876347E+02 0.  0.
          3    1    3    3  502    0  0.35844683132E+03 -0.17493875774E+02  0.10964913383E+03  0.37525071502E+03  0.00000000000E+00 0. -1.
         -3    1    3    3    0  502  0.27147594419E+03  0.31370426569E+02  0.24264418221E+02  0.27435752938E+03  0.00000000000E+00 0.  1.
         13    1    5    5    0    0 -0.43229590892E+02 -0.32320734968E+02  0.15574720185E+03  0.16483512466E+03  0.00000000000E+00 0. -1.
        -13    1    5    5    0    0 -0.38511081649E+02 -0.20920235680E+03  0.71470464920E+03  0.74568858453E+03  0.00000000000E+00 0.  1.
          2    1    6    6  503    0 -0.14407009072E+03  0.21666023574E+02  0.46717249611E+03  0.48936259434E+03  0.00000000000E+00 0. -1.
         -2    1    6    6    0  503 -0.40411201225E+03  0.20598051740E+03  0.12147847451E+04  0.12967021512E+04  0.00000000000E+00 0.  1.
<mgrwt>
<rscale>  0 0.74905966E+03</rscale>
<asrwt>0</asrwt>
<pdfrwt beam="1">  1        2 0.46403993E+00 0.74905966E+03</pdfrwt>
<pdfrwt beam="2">  1       -2 0.50759545E-01 0.74905966E+03</pdfrwt>
<totfact> 0.66507894E+00</totfact>
</mgrwt>
</event>
<event>
12    1  0.1338445E-007  0.3075686E+03  0.7818608E-02  0.1081517E+00
         -1   -1    0    0    0  501 -0.00000000000E+00  0.00000000000E+00  0.93125203246E+03  0.93125203246E+03  0.00000000000E+00 0.  1.
          1   -1    0    0  501    0  0.00000000000E+00 -0.00000000000E+00 -0.41063837348E+03  0.41063837348E+03  0.00000000000E+00 0. -1.
         23    2    1    2    0    0 -0.16608476804E+03  0.14476493511E+03 -0.24699966480E+03  0.34298131391E+03  0.89923915975E+02 0.  0.
    5000000    2    1    2    0    0  0.16608476804E+03 -0.14476493511E+03  0.76761332379E+03  0.99890909204E+03  0.60004010090E+03 0.  0.
         23    2    4    4    0    0 -0.68646718379E+02 -0.80272887088E+02  0.72260667535E+03  0.73580908848E+03  0.89991661180E+02 0.  0.
         23    2    4    4    0    0  0.23473148641E+03 -0.64492048026E+02  0.45006648434E+02  0.26310000356E+03  0.89094997029E+02 0.  0.
          2    1    3    3  502    0 -0.67154760593E+02  0.10818072299E+03 -0.99234096434E+02  0.16143183265E+03  0.00000000000E+00 0. -1.
         -2    1    3    3    0  502 -0.98930007442E+02  0.36584212120E+02 -0.14776556837E+03  0.18154948126E+03  0.00000000000E+00 0.  1.
         11    1    5    5    0    0 -0.25040136457E+02 -0.86544257768E+02  0.56592757501E+03  0.57305404383E+03  0.00000000000E+00 0. -1.
        -11    1    5    5    0    0 -0.43606581923E+02  0.62713706800E+01  0.15667910034E+03  0.16275504465E+03  0.00000000000E+00 0.  1.
          4    1    6    6  503    0  0.12504641618E+03 -0.59242567435E+02 -0.12876032805E+02  0.13896791074E+03  0.00000000000E+00 0. -1.
         -4    1    6    6    0  503  0.10968507024E+03 -0.52494805913E+01  0.57882681239E+02  0.12413209282E+03  0.00000000000E+00 0.  1.
<mgrwt>
<rscale>  0 0.30756862E+03</rscale>
<asrwt>0</asrwt>
<pdfrwt beam="1">  1        1 0.63175135E-01 0.30756862E+03</pdfrwt>
<pdfrwt beam="2">  1       -1 0.14326954E+00 0.30756862E+03</pdfrwt>
<totfact> 0.25055339E+01</totfact>
</mgrwt>
</event>
<event>
12    1  0.1338445E-007  0.4106054E+03  0.7818608E-02  0.1040168E+00
          2   -1    0    0  501    0  0.00000000000E+00  0.00000000000E+00  0.22895364670E+04  0.22895364670E+04  0.00000000000E+00 0. -1.
         -2   -1    0    0    0  501 -0.00000000000E+00 -0.00000000000E+00 -0.85756613207E+02  0.85756613207E+02  0.00000000000E+00 0.  1.
         23    2    1    2    0    0  0.84726504336E+02 -0.20904157830E+03  0.67767529476E+03  0.72007932149E+03  0.91615839798E+02 0.  0.
    5000000    2    1    2    0    0 -0.84726504336E+02  0.20904157830E+03  0.15261045590E+04  0.16552137587E+04  0.59988373871E+03 0.  0.
         23    2    4    4    0    0 -0.23584756033E+03 -0.78676140116E+02  0.97104746069E+03  0.10064659238E+04  0.90699934020E+02 0.  0.
         23    2    4    4    0    0  0.15112105600E+03  0.28771771842E+03  0.55505709834E+03  0.64874783496E+03  0.84654071941E+02 0.  0.
          1    1    3    3  502    0  0.28668446284E+02 -0.28475466837E+02  0.23904378727E+03  0.24243486601E+03  0.00000000000E+00 0. -1.
         -1    1    3    3    0  502  0.56058058052E+02 -0.18056611147E+03  0.43863150749E+03  0.47764445548E+03  0.00000000000E+00 0.  1.
         11    1    5    5    0    0 -0.58585489089E+02 -0.60714577661E+02  0.25550542164E+03  0.26907534254E+03  0.00000000000E+00 0. -1.
        -11    1    5    5    0    0 -0.17726207124E+03 -0.17961562455E+02  0.71554203904E+03  0.73739058122E+03  0.00000000000E+00 0.  1.
          4    1    6    6  503    0  0.43984941666E+02  0.13978225615E+03  0.18445887383E+03  0.23558189736E+03  0.00000000000E+00 0. -1.
         -4    1    6    6    0  503  0.10713611433E+03  0.14793546227E+03  0.37059822451E+03  0.41316593761E+03  0.00000000000E+00 0.  1.
<mgrwt>
<rscale>  0 0.41060537E+03</rscale>
<asrwt>0</asrwt>
<pdfrwt beam="1">  1        2 0.35223633E+00 0.41060537E+03</pdfrwt>
<pdfrwt beam="2">  1       -2 0.13193327E-01 0.41060537E+03</pdfrwt>
<totfact> 0.21516125E+02</totfact>
</mgrwt>
</event>
<event>
12    1  0.1338445E-007  0.7663561E+03  0.7818608E-02  0.9610034E-01
          1   -1    0    0  501    0  0.00000000000E+00  0.00000000000E+00  0.16038824653E+04  0.16038824653E+04  0.00000000000E+00 0. -1.
         -1   -1    0    0    0  501 -0.00000000000E+00 -0.00000000000E+00 -0.46022462025E+03  0.46022462025E+03  0.00000000000E+00 0.  1.
         23    2    1    2    0    0 -0.39345833431E+03  0.60433909128E+03  0.25119845696E+03  0.76926041198E+03  0.92874746665E+02 0.  0.
    5000000    2    1    2    0    0  0.39345833431E+03 -0.60433909128E+03  0.89245938813E+03  0.12948466736E+04  0.60009078530E+03 0.  0.
         23    2    4    4    0    0  0.26002595229E+03 -0.58931297976E+03  0.92338105186E+03  0.11297060813E+04  0.93273679063E+02 0.  0.
         23    2    4    4    0    0  0.13343238202E+03 -0.15026111520E+02 -0.30921663731E+02  0.16514059231E+03  0.91023520817E+02 0.  0.
          2    1    3    3  502    0 -0.13764364830E+03  0.28869428113E+03  0.90954262110E+02  0.33250990913E+03  0.00000000000E+00 0. -1.
         -2    1    3    3    0  502 -0.25581468601E+03  0.31564481015E+03  0.16024419485E+03  0.43675050285E+03  0.00000000000E+00 0.  1.
         13    1    5    5    0    0  0.17436654436E+03 -0.29481809737E+03  0.52688246923E+03  0.62843180911E+03  0.00000000000E+00 0. -1.
        -13    1    5    5    0    0  0.85659407932E+02 -0.29449488239E+03  0.39649858263E+03  0.50127427218E+03  0.00000000000E+00 0.  1.
          3    1    6    6  503    0  0.35979716452E+02  0.32914891298E+02  0.86969909152E+01  0.49533500947E+02  0.00000000000E+00 0. -1.
         -3    1    6    6    0  503  0.97452665568E+02 -0.47941002818E+02 -0.39618654646E+02  0.11560709136E+03  0.00000000000E+00 0.  1.
<mgrwt>
<rscale>  0 0.76635613E+03</rscale>
<asrwt>0</asrwt>
<pdfrwt beam="1">  1        1 0.24675115E+00 0.76635613E+03</pdfrwt>
<pdfrwt beam="2">  1       -1 0.70803789E-01 0.76635613E+03</pdfrwt>
<totfact> 0.11586156E+01</totfact>
</mgrwt>
</event>
<event>
12    1  0.1338445E-007  0.3200539E+03  0.7818608E-02  0.1075625E+00
         -1   -1    0    0    0  501 -0.00000000000E+00  0.00000000000E+00  0.25584318435E+03  0.25584318435E+03  0.00000000000E+00 0.  1.
          1   -1    0    0  501    0  0.00000000000E+00 -0.00000000000E+00 -0.90960947807E+03  0.90960947807E+03  0.00000000000E+00 0. -1.
         23    2    1    2    0    0  0.53011628578E+02  0.26416273926E+03 -0.32111862576E+03  0.42839389102E+03  0.88385340852E+02 0.  0.
    5000000    2    1    2    0    0 -0.53011628578E+02 -0.26416273926E+03 -0.33264766796E+03  0.73705877140E+03  0.60000747989E+03 0.  0.
         23    2    4    4    0    0  0.20933206944E+02  0.18853030223E+01 -0.42167341736E+03  0.43222281960E+03  0.92554531794E+02 0.  0.
         23    2    4    4    0    0 -0.73944835521E+02 -0.26604804229E+03  0.89025749402E+02  0.30483595180E+03  0.93541295416E+02 0.  0.
          3    1    3    3  502    0  0.75451441871E+02  0.22830489730E+03 -0.26089417433E+03  0.35479827566E+03  0.00000000000E+00 0. -1.
         -3    1    3    3    0  502 -0.22439813294E+02  0.35857841964E+02 -0.60224451426E+02  0.73595615362E+02  0.00000000000E+00 0.  1.
         11    1    5    5    0    0  0.13276068659E+02 -0.36436757478E+02 -0.33387816560E+03  0.33612277631E+03  0.00000000000E+00 0.  1.
        -11    1    5    5    0    0  0.76571382842E+01  0.38322060500E+02 -0.87795251762E+02  0.96100043286E+02  0.00000000000E+00 0. -1.
          3    1    6    6  503    0 -0.23909449583E+02 -0.16518431491E+03  0.95067540080E+02  0.19208164110E+03  0.00000000000E+00 0. -1.
         -3    1    6    6    0  503 -0.50035385938E+02 -0.10086372737E+03 -0.60417906778E+01  0.11275431069E+03  0.00000000000E+00 0.  1.
<mgrwt>
<rscale>  0 0.32005390E+03</rscale>
<asrwt>0</asrwt>
<pdfrwt beam="1">  1        1 0.13993992E+00 0.32005390E+03</pdfrwt>
<pdfrwt beam="2">  1       -1 0.39360490E-01 0.32005390E+03</pdfrwt>
<totfact> 0.11964655E+02</totfact>
</mgrwt>
</event>
<event>
12    1  0.1338445E-007  0.8141132E+03  0.7818608E-02  0.9539811E-01
         -1   -1    0    0    0  501 -0.00000000000E+00  0.00000000000E+00  0.59371125965E+03  0.59371125965E+03  0.00000000000E+00 0.  1.
          1   -1    0    0  501    0  0.00000000000E+00 -0.00000000000E+00 -0.12745048550E+04  0.12745048550E+04  0.00000000000E+00 0. -1.
         23    2    1    2    0    0 -0.35997719367E+03  0.66415499881E+03 -0.17831514163E+03  0.78047487399E+03  0.81604514426E+02 0.  0.
    5000000    2    1    2    0    0  0.35997719367E+03 -0.66415499881E+03 -0.50247845374E+03  0.10877412407E+04  0.60000913975E+03 0.  0.
         23    2    4    4    0    0  0.90601600479E+02 -0.54889913267E+03 -0.53675232122E+03  0.77918311474E+03  0.97592848693E+02 0.  0.
         23    2    4    4    0    0  0.26937559319E+03 -0.11525586615E+03  0.34273867473E+02  0.30855812594E+03  0.90478142119E+02 0.  0.
          4    1    3    3  502    0 -0.27759037030E+03  0.46277350676E+03 -0.15606397995E+03  0.56175768627E+03  0.00000000000E+00 0. -1.
         -4    1    3    3    0  502 -0.82386823371E+02  0.20138149205E+03 -0.22251161675E+02  0.21871718771E+03  0.00000000000E+00 0.  1.
         11    1    5    5    0    0  0.97614948768E+02 -0.30131958489E+03 -0.28651027856E+03  0.42709520037E+03  0.00000000000E+00 0.  1.
        -11    1    5    5    0    0 -0.70133482894E+01 -0.24757954777E+03 -0.25024204266E+03  0.35208791437E+03  0.00000000000E+00 0. -1.
          3    1    6    6  503    0  0.14752941341E+03 -0.14064887151E+02  0.13407572643E+02  0.14880360169E+03  0.00000000000E+00 0. -1.
         -3    1    6    6    0  503  0.12184617979E+03 -0.10119097900E+03  0.20866294830E+02  0.15975452425E+03  0.00000000000E+00 0.  1.
<mgrwt>
<rscale>  0 0.81411318E+03</rscale>
<asrwt>0</asrwt>
<pdfrwt beam="1">  1        1 0.19607767E+00 0.81411318E+03</pdfrwt>
<pdfrwt beam="2">  1       -1 0.91340193E-01 0.81411318E+03</pdfrwt>
<totfact> 0.11315556E+01</totfact>
</mgrwt>
</event>
<event>
12    1  0.1338445E-007  0.4028895E+03  0.7818608E-02  0.1042784E+00
          2   -1    0    0  501    0  0.00000000000E+00  0.00000000000E+00  0.19358024832E+04  0.19358024832E+04  0.00000000000E+00 0. -1.
         -2   -1    0    0    0  501 -0.00000000000E+00 -0.00000000000E+00 -0.14284168947E+03  0.14284168947E+03  0.00000000000E+00 0.  1.
         23    2    1    2    0    0 -0.31673975183E+03  0.42039996840E+02  0.33178171337E+03  0.46706619906E+03  0.77332381659E+02 0.  0.
    5000000    2    1    2    0    0  0.31673975183E+03 -0.42039996840E+02  0.14611790804E+04  0.16115779737E+04  0.60003985573E+03 0.  0.
         23    2    4    4    0    0  0.12666106474E+03  0.14547602794E+03  0.12272195622E+04  0.12455844810E+04  0.90589985133E+02 0.  0.
         23    2    4    4    0    0  0.19007868709E+03 -0.18751602478E+03  0.23395951819E+03  0.36599349266E+03  0.89005694679E+02 0.  0.
          2    1    3    3  502    0 -0.28278679357E+03  0.61509401721E+02  0.28675638789E+03  0.40740766207E+03  0.00000000000E+00 0.  1.
         -2    1    3    3    0  502 -0.33952958255E+02 -0.19469404881E+02  0.45025325482E+02  0.59658536987E+02  0.00000000000E+00 0. -1.
         13    1    5    5    0    0  0.20558139862E+02  0.76523278613E+02  0.32422707284E+03  0.33376884823E+03  0.00000000000E+00 0.  1.
        -13    1    5    5    0    0  0.10610292488E+03  0.68952749325E+02  0.90299248937E+03  0.91181563277E+03  0.00000000000E+00 0. -1.
          2    1    6    6  503    0  0.98428776441E+02 -0.13075487678E+03  0.92021485218E+02  0.18775786422E+03  0.00000000000E+00 0. -1.
         -2    1    6    6    0  503  0.91649910649E+02 -0.56761148000E+02  0.14193803297E+03  0.17823562845E+03  0.00000000000E+00 0.  1.
<mgrwt>
<rscale>  0 0.40288953E+03</rscale>
<asrwt>0</asrwt>
<pdfrwt beam="1">  1        2 0.29781575E+00 0.40288953E+03</pdfrwt>
<pdfrwt beam="2">  1       -2 0.21975646E-01 0.40288953E+03</pdfrwt>
<totfact> 0.14034560E+02</totfact>
</mgrwt>
</event>
<event>
12    1  0.1338445E-007  0.4363838E+03  0.7818608E-02  0.1031862E+00
         -1   -1    0    0    0  501 -0.00000000000E+00  0.00000000000E+00  0.19150206751E+04  0.19150206751E+04  0.00000000000E+00 0.  1.
          1   -1    0    0  501    0  0.00000000000E+00 -0.00000000000E+00 -0.14246324126E+03  0.14246324126E+03  0.00000000000E+00 0. -1.
         23    2    1    2    0    0 -0.13228604541E+03  0.27778524917E+03  0.89499675415E+03  0.95073214381E+03  0.90598989418E+02 0.  0.
    5000000    2    1    2    0    0  0.13228604541E+03 -0.27778524917E+03  0.87756067970E+03  0.11067517726E+04  0.60010207218E+03 0.  0.
         23    2    4    4    0    0  0.19909162811E+03 -0.37112937514E+03  0.85732322849E+03  0.95949478229E+03  0.90843985159E+02 0.  0.
         23    2    4    4    0    0 -0.66805582697E+02  0.93344125974E+02  0.20237451206E+02  0.14725699027E+03  0.89994194366E+02 0.  0.
          3    1    3    3  502    0  0.54932305700E+01  0.52306096497E+02  0.21133382839E+03  0.21777991260E+03  0.00000000000E+00 0. -1.
         -3    1    3    3    0  502 -0.13777927598E+03  0.22547915267E+03  0.68366292576E+03  0.73295223121E+03  0.00000000000E+00 0.  1.
         11    1    5    5    0    0  0.20422060169E+02 -0.40909726949E+01  0.64027822051E+02  0.67330220523E+02  0.00000000000E+00 0. -1.
        -11    1    5    5    0    0  0.17866956794E+03 -0.36703840245E+03  0.79329540644E+03  0.89216456176E+03  0.00000000000E+00 0.  1.
          3    1    6    6  503    0 -0.45644939894E+02  0.95269881638E+02 -0.14404730998E+02  0.10661757435E+03  0.00000000000E+00 0. -1.
         -3    1    6    6    0  503 -0.21160642803E+02 -0.19257556639E+01  0.34642182203E+02  0.40639415922E+02  0.00000000000E+00 0.  1.
<mgrwt>
<rscale>  0 0.43638377E+03</rscale>
<asrwt>0</asrwt>
<pdfrwt beam="1">  1        1 0.21917423E-01 0.43638377E+03</pdfrwt>
<pdfrwt beam="2">  1       -1 0.29461855E+00 0.43638377E+03</pdfrwt>
<totfact> 0.91046945E+00</totfact>
</mgrwt>
</event>
<event>
12    1  0.1338445E-007  0.7638323E+03  0.7818608E-02  0.9613896E-01
          2   -1    0    0  501    0  0.00000000000E+00  0.00000000000E+00  0.10981107623E+04  0.10981107623E+04  0.00000000000E+00 0. -1.
         -2   -1    0    0    0  501 -0.00000000000E+00 -0.00000000000E+00 -0.58297290599E+03  0.58297290599E+03  0.00000000000E+00 0.  1.
         23    2    1    2    0    0  0.67231130006E+03 -0.81951599722E+02  0.31980505024E+03  0.75561240627E+03  0.99781207973E+02 0.  0.
    5000000    2    1    2    0    0 -0.67231130006E+03  0.81951599722E+02  0.19533280610E+03  0.92547126205E+03  0.59968625368E+03 0.  0.
         23    2    4    4    0    0 -0.51681239489E+03  0.26803342424E+03  0.27953591816E+03  0.65216338580E+03  0.90773257185E+02 0.  0.
         23    2    4    4    0    0 -0.15549890517E+03 -0.18608182451E+03 -0.84203112066E+02  0.27330787625E+03  0.93811919357E+02 0.  0.
          3    1    3    3  502    0  0.36922496875E+03 -0.68879100386E+02  0.22474027618E+03  0.43769806917E+03  0.00000000000E+00 0. -1.
         -3    1    3    3    0  502  0.30308633131E+03 -0.13072499336E+02  0.95064774058E+02  0.31791433710E+03  0.00000000000E+00 0.  1.
         11    1    5    5    0    0 -0.12243757441E+03  0.10911579018E+03  0.75197205759E+02  0.18042127105E+03  0.00000000000E+00 0. -1.
        -11    1    5    5    0    0 -0.39437482048E+03  0.15891763405E+03  0.20433871240E+03  0.47174211475E+03  0.00000000000E+00 0.  1.
          3    1    6    6  503    0 -0.13739454805E+03 -0.95963624134E+02 -0.62475983008E+02  0.17885616412E+03  0.00000000000E+00 0. -1.
         -3    1    6    6    0  503 -0.18104357119E+02 -0.90118200379E+02 -0.21727129058E+02  0.94451712125E+02  0.00000000000E+00 0.  1.
<mgrwt>
<rscale>  0 0.76383234E+03</rscale>
<asrwt>0</asrwt>
<pdfrwt beam="1">  1        2 0.16894012E+00 0.76383234E+03</pdfrwt>
<pdfrwt beam="2">  1       -2 0.89688139E-01 0.76383234E+03</pdfrwt>
<totfact> 0.23646347E+01</totfact>
</mgrwt>
</event>
<event>
12    1  0.1338445E-007  0.5309747E+03  0.7818608E-02  0.1005996E+00
          2   -1    0    0  501    0  0.00000000000E+00  0.00000000000E+00  0.88824213681E+03  0.88824213681E+03  0.00000000000E+00 0. -1.
         -2   -1    0    0    0  501 -0.00000000000E+00 -0.00000000000E+00 -0.39070101707E+03  0.39070101707E+03  0.00000000000E+00 0.  1.
         23    2    1    2    0    0 -0.19473421283E+03 -0.33991573550E+03 -0.87241240656E+01  0.40156730308E+03  0.87841150224E+02 0.  0.
    5000000    2    1    2    0    0  0.19473421283E+03  0.33991573550E+03  0.50626524381E+03  0.87737585080E+03  0.60001647110E+03 0.  0.
         23    2    4    4    0    0  0.68817506155E+02  0.46940711339E+03  0.23401974467E+03  0.53678942173E+03  0.91097503407E+02 0.  0.
         23    2    4    4    0    0  0.12591670667E+03 -0.12949137789E+03  0.27224549915E+03  0.34058642908E+03  0.96220943138E+02 0.  0.
          1    1    3    3  502    0 -0.17030607344E+03 -0.21577362606E+03 -0.26524192428E+01  0.27489898450E+03  0.00000000000E+00 0. -1.
         -1    1    3    3    0  502 -0.24428139388E+02 -0.12414210944E+03 -0.60717048228E+01  0.12666831858E+03  0.00000000000E+00 0.  1.
         11    1    5    5    0    0  0.47010973557E+02  0.13474227470E+03  0.10618058630E+03  0.17787588126E+03  0.00000000000E+00 0.  1.
        -11    1    5    5    0    0  0.21806532598E+02  0.33466483869E+03  0.12783915837E+03  0.35891354047E+03  0.00000000000E+00 0. -1.
          4    1    6    6  503    0  0.89990644118E+02 -0.10806270352E+03  0.12716770940E+03  0.18959823373E+03  0.00000000000E+00 0. -1.
         -4    1    6    6    0  503  0.35926062552E+02 -0.21428674377E+02  0.14507778975E+03  0.15098819534E+03  0.00000000000E+00 0.  1.
<mgrwt>
<rscale>  0 0.53097468E+03</rscale>
<asrwt>0</asrwt>
<pdfrwt beam="1">  1        2 0.13665264E+00 0.53097468E+03</pdfrwt>
<pdfrwt beam="2">  1       -2 0.60107849E-01 0.53097468E+03</pdfrwt>
<totfact> 0.79607807E+01</totfact>
</mgrwt>
</event>
<event>
12    1  0.1338445E-007  0.6613075E+03  0.7818608E-02  0.9785790E-01
          2   -1    0    0  501    0  0.00000000000E+00  0.00000000000E+00  0.13619451304E+04  0.13619451304E+04  0.00000000000E+00 0. -1.
         -2   -1    0    0    0  501 -0.00000000000E+00 -0.00000000000E+00 -0.40538109968E+03  0.40538109968E+03  0.00000000000E+00 0.  1.
         23    2    1    2    0    0 -0.10949796996E+03  0.57328795740E+03  0.16008066364E+03  0.61188943895E+03  0.90188575256E+02 0.  0.
    5000000    2    1    2    0    0  0.10949796996E+03 -0.57328795740E+03  0.79648336704E+03  0.11554367911E+04  0.59999961393E+03 0.  0.
         23    2    4    4    0    0 -0.89519711153E+02 -0.50902918752E+03  0.76300606903E+03  0.92612908404E+03  0.91718735805E+02 0.  0.
         23    2    4    4    0    0  0.19901768111E+03 -0.64258769884E+02  0.33477298006E+02  0.22930770705E+03  0.87886677770E+02 0.  0.
          1    1    3    3  502    0 -0.12158042012E+03  0.43408634280E+03  0.11842090285E+03  0.46608610984E+03  0.00000000000E+00 0. -1.
         -1    1    3    3    0  502  0.12082450160E+02  0.13920161460E+03  0.41659760788E+02  0.14580332911E+03  0.00000000000E+00 0.  1.
         13    1    5    5    0    0 -0.17150038948E+02 -0.37299469773E+02  0.10924014918E+03  0.11669954788E+03  0.00000000000E+00 0. -1.
        -13    1    5    5    0    0 -0.72369672204E+02 -0.47172971774E+03  0.65376591985E+03  0.80942953616E+03  0.00000000000E+00 0.  1.
          2    1    6    6  503    0  0.33666800527E+02 -0.29652343544E+02  0.40201942810E+02  0.60240444397E+02  0.00000000000E+00 0. -1.
         -2    1    6    6    0  503  0.16535088058E+03 -0.34606426340E+02 -0.67246448037E+01  0.16906726265E+03  0.00000000000E+00 0.  1.
<mgrwt>
<rscale>  0 0.66130750E+03</rscale>
<asrwt>0</asrwt>
<pdfrwt beam="1">  1        2 0.20953002E+00 0.66130750E+03</pdfrwt>
<pdfrwt beam="2">  1       -2 0.62366324E-01 0.66130750E+03</pdfrwt>
<totfact> 0.37424290E+01</totfact>
</mgrwt>
</event>
<event>
12    1  0.1338445E-007  0.5749997E+03  0.7818608E-02  0.9958676E-01
         -1   -1    0    0    0  501 -0.00000000000E+00  0.00000000000E+00  0.18060515878E+03  0.18060515878E+03  0.00000000000E+00 0.  1.
          1   -1    0    0  501    0  0.00000000000E+00 -0.00000000000E+00 -0.24112102110E+04  0.24112102110E+04  0.00000000000E+00 0. -1.
         23    2    1    2    0    0 -0.27794137952E+03 -0.42588694987E+03 -0.68944134059E+03  0.86157899671E+03  0.91421556272E+02 0.  0.
    5000000    2    1    2    0    0  0.27794137952E+03  0.42588694987E+03 -0.15411637117E+04  0.17302363731E+04  0.59991767443E+03 0.  0.
         23    2    4    4    0    0 -0.79497250305E+02  0.16841217917E+03 -0.10213653652E+04  0.10427003949E+04  0.96718298677E+02 0.  0.
         23    2    4    4    0    0  0.35743862983E+03  0.25747477070E+03 -0.51979834643E+03  0.68753597820E+03  0.91977001123E+02 0.  0.
          3    1    3    3  502    0 -0.10503844108E+03 -0.16717275287E+03 -0.34416303250E+03  0.39677197021E+03  0.00000000000E+00 0. -1.
         -3    1    3    3    0  502 -0.17290293844E+03 -0.25871419700E+03 -0.34527830808E+03  0.46480702650E+03  0.00000000000E+00 0.  1.
         13    1    5    5    0    0  0.22527577639E+01  0.50150395204E+02 -0.47830490916E+03  0.48093213990E+03  0.00000000000E+00 0. -1.
        -13    1    5    5    0    0 -0.81750008069E+02  0.11826178397E+03 -0.54306045607E+03  0.56176825499E+03  0.00000000000E+00 0.  1.
          2    1    6    6  503    0  0.19061999107E+03  0.18469926014E+03 -0.27160082042E+03  0.37975887527E+03  0.00000000000E+00 0. -1.
         -2    1    6    6    0  503  0.16681863875E+03  0.72775510550E+02 -0.24819752601E+03  0.30777710293E+03  0.00000000000E+00 0.  1.
<mgrwt>
<rscale>  0 0.57499971E+03</rscale>
<asrwt>0</asrwt>
<pdfrwt beam="1">  1        1 0.37095539E+00 0.57499971E+03</pdfrwt>
<pdfrwt beam="2">  1       -1 0.27785411E-01 0.57499971E+03</pdfrwt>
<totfact> 0.19629843E+01</totfact>
</mgrwt>
</event>
<event>
12    1  0.1338445E-007  0.8398420E+03  0.7818608E-02  0.9504073E-01
         -1   -1    0    0    0  501 -0.00000000000E+00  0.00000000000E+00  0.91035613380E+03  0.91035613380E+03  0.00000000000E+00 0.  1.
          1   -1    0    0  501    0  0.00000000000E+00 -0.00000000000E+00 -0.85354584629E+03  0.85354584629E+03  0.00000000000E+00 0. -1.
         23    2    1    2    0    0  0.57092527942E+03  0.51657214284E+03 -0.75024859992E+02  0.77888018321E+03  0.90681622953E+02 0.  0.
    5000000    2    1    2    0    0 -0.57092527942E+03 -0.51657214284E+03  0.13183514750E+03  0.98502179688E+03  0.60007081314E+03 0.  0.
         23    2    4    4    0    0 -0.48519657875E+03 -0.59061543071E+03  0.23578856305E+03  0.80528189967E+03  0.92953668299E+02 0.  0.
         23    2    4    4    0    0 -0.85728700662E+02  0.74043287865E+02 -0.10395341555E+03  0.17973989721E+03  0.93103702659E+02 0.  0.
          2    1    3    3  502    0  0.30115563175E+03  0.24540309672E+03  0.30393340623E+01  0.38849276951E+03  0.00000000000E+00 0. -1.
         -2    1    3    3    0  502  0.26976964767E+03  0.27116904612E+03 -0.78064194054E+02  0.39038741370E+03  0.00000000000E+00 0.  1.
         11    1    5    5    0    0 -0.13892278742E+03 -0.23247367098E+03  0.63521578501E+02  0.27816998310E+03  0.00000000000E+00 0. -1.
        -11    1    5    5    0    0 -0.34627379134E+03 -0.35814175973E+03  0.17226698455E+03  0.52711191658E+03  0.00000000000E+00 0.  1.
          3    1    6    6  503    0 -0.28844946221E+02  0.77529962452E+02 -0.87520698839E+02  0.12042756630E+03  0.00000000000E+00 0. -1.
         -3    1    6    6    0  503 -0.56883754441E+02 -0.34866745865E+01 -0.16432716710E+02  0.59312330906E+02  0.00000000000E+00 0.  1.
<mgrwt>
<rscale>  0 0.83984196E+03</rscale>
<asrwt>0</asrwt>
<pdfrwt beam="1">  1        1 0.13131475E+00 0.83984196E+03</pdfrwt>
<pdfrwt beam="2">  1       -1 0.14005479E+00 0.83984196E+03</pdfrwt>
<totfact> 0.84980805E+00</totfact>
</mgrwt>
</event>
<event>
12    1  0.1338445E-007  0.1305646E+04  0.7818608E-02  0.9025100E-01
         -1   -1    0    0    0  501 -0.00000000000E+00  0.00000000000E+00  0.20092607582E+04  0.20092607582E+04  0.00000000000E+00 0.  1.
          1   -1    0    0  501    0  0.00000000000E+00 -0.00000000000E+00 -0.20704073879E+04  0.20704073879E+04  0.00000000000E+00 0. -1.
         23    2    1    2    0    0  0.90996789972E+03 -0.91900600129E+03 -0.15483926127E+04  0.20194058962E+04  0.88695442701E+02 0.  0.
    5000000    2    1    2    0    0 -0.90996789972E+03  0.91900600129E+03  0.14872459831E+04  0.20602622498E+04  0.60013857976E+03 0.  0.
         23    2    4    4    0    0 -0.36377728990E+03  0.49723084360E+03  0.10953097979E+04  0.12600113489E+04  0.91392655161E+02 0.  0.
         23    2    4    4    0    0 -0.54619060983E+03  0.42177515769E+03  0.39193618519E+03  0.80025090096E+03  0.10280595958E+03 0.  0.
          2    1    3    3  502    0  0.76793744537E+02 -0.11486019340E+03 -0.15367319274E+03  0.20665331692E+03  0.00000000000E+00 0. -1.
         -2    1    3    3    0  502  0.83317415519E+03 -0.80414580789E+03 -0.13947194200E+04  0.18127525793E+04  0.00000000000E+00 0.  1.
         13    1    5    5    0    0 -0.21097680278E+03  0.33613183591E+03  0.63248545828E+03  0.74668177784E+03  0.00000000000E+00 0.  1.
        -13    1    5    5    0    0 -0.15280048711E+03  0.16109900769E+03  0.46282433963E+03  0.51332957104E+03  0.00000000000E+00 0. -1.
          3    1    6    6  503    0 -0.38322985709E+03  0.24009142681E+03  0.27862961186E+03  0.53117179632E+03  0.00000000000E+00 0. -1.
         -3    1    6    6    0  503 -0.16296075273E+03  0.18168373088E+03  0.11330657333E+03  0.26907910465E+03  0.00000000000E+00 0.  1.
<mgrwt>
<rscale>  0 0.13056455E+04</rscale>
<asrwt>0</asrwt>
<pdfrwt beam="1">  1        1 0.31852421E+00 0.13056455E+04</pdfrwt>
<pdfrwt beam="2">  1       -1 0.30911704E+00 0.13056455E+04</pdfrwt>
<totfact> 0.74621879E-02</totfact>
</mgrwt>
</event>
<event>
12    1  0.1338445E-007  0.5803806E+03  0.7818608E-02  0.9946967E-01
         -1   -1    0    0    0  501 -0.00000000000E+00  0.00000000000E+00  0.17545513301E+03  0.17545513301E+03  0.00000000000E+00 0.  1.
          1   -1    0    0  501    0  0.00000000000E+00 -0.00000000000E+00 -0.21122720822E+04  0.21122720822E+04  0.00000000000E+00 0. -1.
         23    2    1    2    0    0  0.19906593984E+03 -0.39897889612E+03 -0.56577546147E+03  0.72614853992E+03  0.91533716630E+02 0.  0.
    5000000    2    1    2    0    0 -0.19906593984E+03  0.39897889612E+03 -0.13710414877E+04  0.15615786753E+04  0.59996815761E+03 0.  0.
         23    2    4    4    0    0  0.18453326215E+03  0.13810580467E+03 -0.68693714596E+03  0.73013283208E+03  0.89919807938E+02 0.  0.
         23    2    4    4    0    0 -0.38359920199E+03  0.26087309144E+03 -0.68410434179E+03  0.83144584324E+03  0.90001789892E+02 0.  0.
          1    1    3    3  502    0  0.10336967179E+03 -0.15728939498E+03 -0.30172129614E+03  0.35561353090E+03  0.00000000000E+00 0. -1.
         -1    1    3    3    0  502  0.95696268051E+02 -0.24168950114E+03 -0.26405416533E+03  0.37053500902E+03  0.00000000000E+00 0.  1.
         13    1    5    5    0    0  0.14565271249E+03  0.14265405167E+03 -0.51702181410E+03  0.55576654035E+03  0.00000000000E+00 0.  1.
        -13    1    5    5    0    0  0.38880549660E+02 -0.45482469947E+01 -0.16991533185E+03  0.17436629173E+03  0.00000000000E+00 0. -1.
          4    1    6    6  503    0 -0.16285033178E+03  0.68132742314E+02 -0.21313585080E+03  0.27674752398E+03  0.00000000000E+00 0. -1.
         -4    1    6    6    0  503 -0.22074887021E+03  0.19274034913E+03 -0.47096849099E+03  0.55469831926E+03  0.00000000000E+00 0.  1.
<mgrwt>
<rscale>  0 0.58038059E+03</rscale>
<asrwt>0</asrwt>
<pdfrwt beam="1">  1        1 0.32496492E+00 0.58038059E+03</pdfrwt>
<pdfrwt beam="2">  1       -1 0.26993098E-01 0.58038059E+03</pdfrwt>
<totfact> 0.32662345E+01</totfact>
</mgrwt>
</event>
<event>
12    1  0.1338445E-007  0.4541556E+03  0.7818608E-02  0.1026490E+00
          1   -1    0    0  501    0  0.00000000000E+00  0.00000000000E+00  0.54358924119E+03  0.54358924119E+03  0.00000000000E+00 0. -1.
         -1   -1    0    0    0  501 -0.00000000000E+00 -0.00000000000E+00 -0.40589903539E+03  0.40589903539E+03  0.00000000000E+00 0.  1.
         23    2    1    2    0    0  0.19377667844E+03  0.18382609152E+03  0.29384416711E+02  0.28378226898E+03  0.91255132523E+02 0.  0.
    5000000    2    1    2    0    0 -0.19377667844E+03 -0.18382609152E+03  0.10830578909E+03  0.66570600760E+03  0.60007742132E+03 0.  0.
         23    2    4    4    0    0  0.18285480241E+03 -0.17712453997E+03  0.47471886778E+02  0.27327140594E+03  0.87262247549E+02 0.  0.
         23    2    4    4    0    0 -0.37663148085E+03 -0.67015515525E+01  0.60833902309E+02  0.39243460166E+03  0.91694982148E+02 0.  0.
          2    1    3    3  502    0  0.13972839218E+03  0.17048318303E+03  0.47015172221E+02  0.22538625889E+03  0.00000000000E+00 0.  1.
         -2    1    3    3    0  502  0.54048286258E+02  0.13342908486E+02 -0.17630755509E+02  0.58396010087E+02  0.00000000000E+00 0. -1.
         11    1    5    5    0    0  0.19373201739E+02 -0.20683966265E+02  0.37198958183E+02  0.46764408432E+02  0.00000000000E+00 0.  1.
        -11    1    5    5    0    0  0.16348160067E+03 -0.15644057370E+03  0.10272928594E+02  0.22650699751E+03  0.00000000000E+00 0. -1.
          4    1    6    6  503    0 -0.21679139799E+03 -0.16787431584E+02 -0.91973933522E+01  0.21763483211E+03  0.00000000000E+00 0. -1.
         -4    1    6    6    0  503 -0.15984008286E+03  0.10085880032E+02  0.70031295661E+02  0.17479976956E+03  0.00000000000E+00 0.  1.
<mgrwt>
<rscale>  0 0.45415557E+03</rscale>
<asrwt>0</asrwt>
<pdfrwt beam="1">  1        1 0.83629114E-01 0.45415557E+03</pdfrwt>
<pdfrwt beam="2">  1       -1 0.62446005E-01 0.45415557E+03</pdfrwt>
<totfact> 0.10703457E+02</totfact>
</mgrwt>
</event>
<event>
12    1  0.1338445E-007  0.6557206E+03  0.7818608E-02  0.9796104E-01
         -2   -1    0    0    0  501 -0.00000000000E+00  0.00000000000E+00  0.40345095355E+03  0.40345095355E+03  0.00000000000E+00 0. -1.
          2   -1    0    0  501    0  0.00000000000E+00 -0.00000000000E+00 -0.19323379236E+04  0.19323379236E+04  0.00000000000E+00 0.  1.
         23    2    1    2    0    0  0.39289534134E+03  0.44369475152E+03 -0.13449237934E+04  0.14725334722E+04  0.91120990774E+02 0.  0.
    5000000    2    1    2    0    0 -0.39289534134E+03 -0.44369475152E+03 -0.18396317660E+03  0.86325540490E+03  0.60011304099E+03 0.  0.
         23    2    4    4    0    0 -0.20535266393E+03 -0.46607994463E+03  0.82901581007E+02  0.52365172532E+03  0.89096722331E+02 0.  0.
         23    2    4    4    0    0 -0.18754267740E+03  0.22385193107E+02 -0.26686475760E+03  0.33960367957E+03  0.91872235253E+02 0.  0.
          2    1    3    3  502    0  0.15755983459E+03  0.24527426373E+03 -0.63208353459E+03  0.69607051412E+03  0.00000000000E+00 0. -1.
         -2    1    3    3    0  502  0.23533550675E+03  0.19842048779E+03 -0.71284025882E+03  0.77646295810E+03  0.00000000000E+00 0.  1.
         13    1    5    5    0    0 -0.13982864797E+03 -0.33543682089E+03  0.98882042388E+02  0.37662656559E+03  0.00000000000E+00 0.  1.
        -13    1    5    5    0    0 -0.65524015962E+02 -0.13064312374E+03 -0.15980461381E+02  0.14702515973E+03  0.00000000000E+00 0. -1.
          2    1    6    6  503    0 -0.17172439858E+03 -0.39962648200E+01 -0.25314835524E+03  0.30592373063E+03  0.00000000000E+00 0. -1.
         -2    1    6    6    0  503 -0.15818278821E+02  0.26381457927E+02 -0.13716402369E+02  0.33679948949E+02  0.00000000000E+00 0.  1.
<mgrwt>
<rscale>  0 0.65572063E+03</rscale>
<asrwt>0</asrwt>
<pdfrwt beam="1">  1        2 0.29728276E+00 0.65572063E+03</pdfrwt>
<pdfrwt beam="2">  1       -2 0.62069378E-01 0.65572063E+03</pdfrwt>
<totfact> 0.18389473E+01</totfact>
</mgrwt>
</event>
<event>
12    1  0.1338445E-007  0.6906657E+03  0.7818608E-02  0.9733330E-01
          2   -1    0    0  501    0  0.00000000000E+00  0.00000000000E+00  0.74536853691E+03  0.74536853691E+03  0.00000000000E+00 0. -1.
         -2   -1    0    0    0  501 -0.00000000000E+00 -0.00000000000E+00 -0.69397411130E+03  0.69397411130E+03  0.00000000000E+00 0.  1.
         23    2    1    2    0    0  0.55632192826E+03 -0.19276178867E+03 -0.15922579966E+02  0.59592369388E+03  0.90666009827E+02 0.  0.
    5000000    2    1    2    0    0 -0.55632192826E+03  0.19276178867E+03  0.67317005573E+02  0.84341895433E+03  0.60014394794E+03 0.  0.
         23    2    4    4    0    0 -0.25745108984E+03  0.34991749509E+03 -0.10213706718E+03  0.45521344210E+03  0.89799667860E+02 0.  0.
         23    2    4    4    0    0 -0.29887083842E+03 -0.15715570642E+03  0.16945407276E+03  0.38820551223E+03  0.89258852958E+02 0.  0.
          4    1    3    3  502    0  0.38100543821E+03 -0.12660910214E+03 -0.52797879185E+02  0.40494768148E+03  0.00000000000E+00 0. -1.
         -4    1    3    3    0  502  0.17531649005E+03 -0.66152686528E+02  0.36875299218E+02  0.19097601239E+03  0.00000000000E+00 0.  1.
         13    1    5    5    0    0 -0.26472248140E+03  0.34192712454E+03 -0.96645736503E+02  0.44309428910E+03  0.00000000000E+00 0. -1.
        -13    1    5    5    0    0  0.72713915583E+01  0.79903705518E+01 -0.54913306801E+01  0.12119152998E+02  0.00000000000E+00 0.  1.
          3    1    6    6  503    0 -0.24530712382E+03 -0.85530640141E+02  0.12347640212E+03  0.28764126491E+03  0.00000000000E+00 0. -1.
         -3    1    6    6    0  503 -0.53563714606E+02 -0.71625066278E+02  0.45977670639E+02  0.10056424732E+03  0.00000000000E+00 0.  1.
<mgrwt>
<rscale>  0 0.69066572E+03</rscale>
<asrwt>0</asrwt>
<pdfrwt beam="1">  1        2 0.11467208E+00 0.69066572E+03</pdfrwt>
<pdfrwt beam="2">  1       -2 0.10676525E+00 0.69066572E+03</pdfrwt>
<totfact> 0.27214273E+01</totfact>
</mgrwt>
</event>
<event>
12    1  0.1338445E-007  0.1015638E+04  0.7818608E-02  0.9291558E-01
         -1   -1    0    0    0  501 -0.00000000000E+00  0.00000000000E+00  0.11255864411E+04  0.11255864411E+04  0.00000000000E+00 0.  1.
          1   -1    0    0  501    0  0.00000000000E+00 -0.00000000000E+00 -0.96770104883E+03  0.96770104883E+03  0.00000000000E+00 0. -1.
         23    2    1    2    0    0 -0.90233676339E+03 -0.25445345698E+03  0.25565628933E+03  0.97593119699E+03  0.90129721232E+02 0.  0.
    5000000    2    1    2    0    0  0.90233676339E+03  0.25445345698E+03 -0.97770897045E+02  0.11173562930E+04  0.59997311672E+03 0.  0.
         23    2    4    4    0    0 -0.38502680447E+02  0.96424026611E+02  0.52426812997E+02  0.14704014328E+03  0.89956565657E+02 0.  0.
         23    2    4    4    0    0  0.94083944384E+03  0.15802943037E+03 -0.15019771004E+03  0.97031614969E+03  0.93818539194E+02 0.  0.
          3    1    3    3  502    0 -0.46012951011E+03 -0.13786328913E+03  0.17691418929E+03  0.51188288009E+03  0.00000000000E+00 0. -1.
         -3    1    3    3    0  502 -0.44220725328E+03 -0.11659016785E+03  0.78742100043E+02  0.46404831690E+03  0.00000000000E+00 0.  1.
         11    1    5    5    0    0 -0.67771251190E+02  0.74995401880E+02  0.39720959040E+02  0.10860482208E+03  0.00000000000E+00 0. -1.
        -11    1    5    5    0    0  0.29268570743E+02  0.21428624731E+02  0.12705853957E+02  0.38435321203E+02  0.00000000000E+00 0.  1.
          3    1    6    6  503    0  0.56624873494E+03  0.12753234386E+03 -0.12431309810E+03  0.59359571672E+03  0.00000000000E+00 0. -1.
         -3    1    6    6    0  503  0.37459070890E+03  0.30497086511E+02 -0.25884611947E+02  0.37672043297E+03  0.00000000000E+00 0.  1.
<mgrwt>
<rscale>  0 0.10156377E+04</rscale>
<asrwt>0</asrwt>
<pdfrwt beam="1">  1        1 0.14887708E+00 0.10156377E+04</pdfrwt>
<pdfrwt beam="2">  1       -1 0.17316714E+00 0.10156377E+04</pdfrwt>
<totfact> 0.37469897E+00</totfact>
</mgrwt>
</event>
<event>
12    1  0.1338445E-007  0.1203663E+04  0.7818608E-02  0.9109657E-01
         -1   -1    0    0    0  501 -0.00000000000E+00  0.00000000000E+00  0.69445674885E+03  0.69445674885E+03  0.00000000000E+00 0.  1.
          1   -1    0    0  501    0  0.00000000000E+00 -0.00000000000E+00 -0.30593119377E+04  0.30593119377E+04  0.00000000000E+00 0. -1.
         23    2    1    2    0    0 -0.83924847715E+03 -0.79690020207E+03 -0.21348122172E+04  0.24300298463E+04  0.90740909710E+02 0.  0.
    5000000    2    1    2    0    0  0.83924847715E+03  0.79690020207E+03 -0.23004297169E+03  0.13237388403E+04  0.59998067472E+03 0.  0.
         23    2    4    4    0    0  0.39453037139E+03  0.84075718935E+02 -0.24137798902E+03  0.47866678641E+03  0.90197662782E+02 0.  0.
         23    2    4    4    0    0  0.44471810576E+03  0.71282448314E+03  0.11335017324E+02  0.84507205389E+03  0.90140758232E+02 0.  0.
          3    1    3    3  502    0 -0.14509778271E+03 -0.18804628366E+03 -0.43138507254E+03  0.49245086268E+03  0.00000000000E+00 0. -1.
         -3    1    3    3    0  502 -0.69415069444E+03 -0.60885391841E+03 -0.17034271446E+04  0.19375789836E+04  0.00000000000E+00 0.  1.
         11    1    5    5    0    0  0.28126812287E+03  0.38658668881E+02 -0.20861615134E+03  0.35231654548E+03  0.00000000000E+00 0. -1.
        -11    1    5    5    0    0  0.11326224852E+03  0.45417050054E+02 -0.32761837681E+02  0.12635024093E+03  0.00000000000E+00 0.  1.
          4    1    6    6  503    0  0.83140029444E+02  0.15196049913E+03  0.37563112100E+02  0.17724346302E+03  0.00000000000E+00 0. -1.
         -4    1    6    6    0  503  0.36157807632E+03  0.56086398401E+03 -0.26228094776E+02  0.66782859087E+03  0.00000000000E+00 0.  1.
<mgrwt>
<rscale>  0 0.12036627E+04</rscale>
<asrwt>0</asrwt>
<pdfrwt beam="1">  1        1 0.47066337E+00 0.12036627E+04</pdfrwt>
<pdfrwt beam="2">  1       -1 0.10683950E+00 0.12036627E+04</pdfrwt>
<totfact> 0.44025934E-01</totfact>
</mgrwt>
</event>
<event>
12    1  0.1338445E-007  0.5840685E+03  0.7818608E-02  0.9939021E-01
          2   -1    0    0  501    0  0.00000000000E+00  0.00000000000E+00  0.49142897944E+03  0.49142897944E+03  0.00000000000E+00 0. -1.
         -2   -1    0    0    0  501 -0.00000000000E+00 -0.00000000000E+00 -0.85621215611E+03  0.85621215611E+03  0.00000000000E+00 0.  1.
         23    2    1    2    0    0 -0.25769249754E+03  0.38725328345E+03 -0.34845163977E+03  0.58826528099E+03  0.90922861406E+02 0.  0.
    5000000    2    1    2    0    0  0.25769249754E+03 -0.38725328345E+03 -0.16331536894E+02  0.75937585457E+03  0.60001203369E+03 0.  0.
         23    2    4    4    0    0  0.30183251616E+03 -0.48315799520E+03 -0.11454475441E+03  0.58818183299E+03  0.91065096275E+02 0.  0.
         23    2    4    4    0    0 -0.44140018619E+02  0.95904711755E+02  0.98213217514E+02  0.17119402158E+03  0.92279477397E+02 0.  0.
          4    1    3    3  502    0 -0.22683707617E+03  0.27668060385E+03 -0.28255200396E+03  0.45589785107E+03  0.00000000000E+00 0. -1.
         -4    1    3    3    0  502 -0.30855421363E+02  0.11057267960E+03 -0.65899635812E+02  0.13236742991E+03  0.00000000000E+00 0.  1.
         11    1    5    5    0    0  0.45973369742E+02 -0.11004041005E+03  0.78061899383E+01  0.11951309205E+03  0.00000000000E+00 0. -1.
        -11    1    5    5    0    0  0.25585914641E+03 -0.37311758515E+03 -0.12235094435E+03  0.46866874094E+03  0.00000000000E+00 0.  1.
          4    1    6    6  503    0 -0.40278743250E+02  0.15143930670E+02  0.76013732439E+02  0.87348745344E+02  0.00000000000E+00 0. -1.
         -4    1    6    6    0  503 -0.38612753698E+01  0.80760781085E+02  0.22199485075E+02  0.83845276233E+02  0.00000000000E+00 0.  1.
<mgrwt>
<rscale>  0 0.58406849E+03</rscale>
<asrwt>0</asrwt>
<pdfrwt beam="1">  1        2 0.75604459E-01 0.58406849E+03</pdfrwt>
<pdfrwt beam="2">  1       -2 0.13172495E+00 0.58406849E+03</pdfrwt>
<totfact> 0.27122341E+01</totfact>
</mgrwt>
</event>
<event>
12    1  0.1412952E-007  0.6493518E+03  0.7818608E-02  0.9807996E-01
         -2   -1    0    0    0  501 -0.00000000000E+00  0.00000000000E+00  0.43454050256E+03  0.43454050256E+03  0.00000000000E+00 0.  1.
          2   -1    0    0  501    0  0.00000000000E+00 -0.00000000000E+00 -0.17264480114E+04  0.17264480114E+04  0.00000000000E+00 0. -1.
         23    2    1    2    0    0  0.54837106999E+03 -0.72397360355E+01  0.84715354977E+02  0.56230380368E+03  0.90805462884E+02 0.  0.
    5000000    2    1    2    0    0 -0.54837106999E+03  0.72397360355E+01 -0.13766228638E+04  0.15986847103E+04  0.59994920578E+03 0.  0.
         23    2    4    4    0    0  0.29907815252E+02  0.12952267463E+03 -0.10394501238E+03  0.19229260044E+03  0.92202374867E+02 0.  0.
         23    2    4    4    0    0 -0.57827888524E+03 -0.12228293859E+03 -0.12726778514E+04  0.14063921098E+04  0.94182094257E+02 0.  0.
          2    1    3    3  502    0  0.16892219525E+03 -0.44272964187E+02  0.27855003107E+02  0.17683524707E+03  0.00000000000E+00 0. -1.
         -2    1    3    3    0  502  0.37944887474E+03  0.37033228151E+02  0.56860351871E+02  0.38546855662E+03  0.00000000000E+00 0.  1.
         11    1    5    5    0    0  0.44676288291E+02  0.59494831410E+02 -0.11348492999E+02  0.75262168407E+02  0.00000000000E+00 0. -1.
        -11    1    5    5    0    0 -0.14768473038E+02  0.70027843218E+02 -0.92596519379E+02  0.11703043204E+03  0.00000000000E+00 0.  1.
          1    1    6    6  503    0 -0.22650961719E+03 -0.89537354832E+02 -0.46842159675E+03  0.52796054483E+03  0.00000000000E+00 0. -1.
         -1    1    6    6    0  503 -0.35176926805E+03 -0.32745583760E+02 -0.80425625470E+03  0.87843156502E+03  0.00000000000E+00 0.  1.
<mgrwt>
<rscale>  0 0.64935179E+03</rscale>
<asrwt>0</asrwt>
<pdfrwt beam="1">  1        2 0.26560738E+00 0.64935179E+03</pdfrwt>
<pdfrwt beam="2">  1       -2 0.66852386E-01 0.64935179E+03</pdfrwt>
<totfact> 0.20312911E+01</totfact>
</mgrwt>
</event>
<event>
12    1  0.1338445E-007  0.9609645E+03  0.7818608E-02  0.9352426E-01
         -1   -1    0    0    0  501 -0.00000000000E+00  0.00000000000E+00  0.58218922564E+03  0.58218922564E+03  0.00000000000E+00 0.  1.
          1   -1    0    0  501    0  0.00000000000E+00 -0.00000000000E+00 -0.17551402165E+04  0.17551402165E+04  0.00000000000E+00 0. -1.
         23    2    1    2    0    0 -0.85241070129E+03 -0.29950441329E+03 -0.34115326228E+03  0.97024232932E+03  0.93154344977E+02 0.  0.
    5000000    2    1    2    0    0  0.85241070129E+03  0.29950441329E+03 -0.83179772861E+03  0.13670871128E+04  0.60061036915E+03 0.  0.
         23    2    4    4    0    0 -0.27791292443E+02  0.62467316235E+01 -0.25294293064E+03  0.26960215398E+03  0.88847159071E+02 0.  0.
         23    2    4    4    0    0  0.88020199373E+03  0.29325768167E+03 -0.57885479796E+03  0.10974849589E+04  0.92977094912E+02 0.  0.
          2    1    3    3  502    0 -0.30301472338E+03 -0.10951697961E+03 -0.74581913131E+02  0.33071793597E+03  0.00000000000E+00 0. -1.
         -2    1    3    3    0  502 -0.54939597791E+03 -0.18998743368E+03 -0.26657134915E+03  0.63952439335E+03  0.00000000000E+00 0.  1.
         11    1    5    5    0    0 -0.24211087748E+02  0.45310641048E+02 -0.11053498825E+03  0.12189017430E+03  0.00000000000E+00 0. -1.
        -11    1    5    5    0    0 -0.35802046955E+01 -0.39063909424E+02 -0.14240794239E+03  0.14771197968E+03  0.00000000000E+00 0.  1.
          4    1    6    6  503    0  0.38756440331E+03  0.12452365276E+03 -0.30838925486E+03  0.51070171267E+03  0.00000000000E+00 0. -1.
         -4    1    6    6    0  503  0.49263759042E+03  0.16873402890E+03 -0.27046554310E+03  0.58678324619E+03  0.00000000000E+00 0.  1.
<mgrwt>
<rscale>  0 0.96096447E+03</rscale>
<asrwt>0</asrwt>
<pdfrwt beam="1">  1        1 0.27002157E+00 0.96096447E+03</pdfrwt>
<pdfrwt beam="2">  1       -1 0.89567572E-01 0.96096447E+03</pdfrwt>
<totfact> 0.54070508E+00</totfact>
</mgrwt>
</event>
<event>
12    1  0.1338445E-007  0.1587756E+04  0.7818608E-02  0.8828105E-01
          2   -1    0    0  501    0  0.00000000000E+00  0.00000000000E+00  0.17926884046E+04  0.17926884046E+04  0.00000000000E+00 0. -1.
         -2   -1    0    0    0  501 -0.00000000000E+00 -0.00000000000E+00 -0.16224521100E+04  0.16224521100E+04  0.00000000000E+00 0.  1.
         23    2    1    2    0    0 -0.10878025623E+04  0.11039024547E+04 -0.48832832717E+03  0.16275203648E+04  0.91885465414E+02 0.  0.
    5000000    2    1    2    0    0  0.10878025623E+04 -0.11039024547E+04  0.65856462172E+03  0.17876201499E+04  0.59996949541E+03 0.  0.
         23    2    4    4    0    0  0.70834237068E+03 -0.37849894840E+03  0.49296742458E+03  0.94694854921E+03  0.93189619143E+02 0.  0.
         23    2    4    4    0    0  0.37946019157E+03 -0.72540350625E+03  0.16559719714E+03  0.84067160066E+03  0.95425492332E+02 0.  0.
          1    1    3    3  502    0 -0.26707638973E+03  0.21913497587E+03 -0.12077839343E+03  0.36597452906E+03  0.00000000000E+00 0. -1.
         -1    1    3    3    0  502 -0.82072617252E+03  0.88476747879E+03 -0.36754993374E+03  0.12615458357E+04  0.00000000000E+00 0.  1.
         11    1    5    5    0    0  0.28548850504E+03 -0.17491528215E+03  0.25430152652E+03  0.42043823426E+03  0.00000000000E+00 0.  1.
        -11    1    5    5    0    0  0.42285386564E+03 -0.20358366626E+03  0.23866589806E+03  0.52651031496E+03  0.00000000000E+00 0. -1.
          2    1    6    6  503    0  0.31730133312E+02 -0.78397835345E+02  0.46607169173E+02  0.96567334876E+02  0.00000000000E+00 0.  1.
         -2    1    6    6    0  503  0.34773005826E+03 -0.64700567091E+03  0.11899002797E+03  0.74410426579E+03  0.00000000000E+00 0. -1.
<mgrwt>
<rscale>  0 0.15877564E+04</rscale>
<asrwt>0</asrwt>
<pdfrwt beam="1">  1        2 0.27579822E+00 0.15877564E+04</pdfrwt>
<pdfrwt beam="2">  1       -2 0.24960802E+00 0.15877564E+04</pdfrwt>
<totfact> 0.52346357E-01</totfact>
</mgrwt>
</event>
<event>
12    1  0.1338445E-007  0.1509872E+04  0.7818608E-02  0.8877915E-01
          2   -1    0    0  501    0  0.00000000000E+00  0.00000000000E+00  0.34887297648E+04  0.34887297648E+04  0.00000000000E+00 0. -1.
         -2   -1    0    0    0  501 -0.00000000000E+00 -0.00000000000E+00 -0.95832170207E+03  0.95832170207E+03  0.00000000000E+00 0.  1.
         23    2    1    2    0    0  0.41894038196E+03  0.13971629915E+04  0.24684713387E+04  0.28686423867E+04  0.90459516579E+02 0.  0.
    5000000    2    1    2    0    0 -0.41894038196E+03 -0.13971629915E+04  0.61936724034E+02  0.15784090802E+04  0.59996966444E+03 0.  0.
         23    2    4    4    0    0 -0.53972494085E+03 -0.10423724014E+04  0.13792853070E+03  0.11854318065E+04  0.91548093748E+02 0.  0.
         23    2    4    4    0    0  0.12078455889E+03 -0.35479059015E+03 -0.75991806669E+02  0.39297727368E+03  0.90504753605E+02 0.  0.
          3    1    3    3  502    0  0.19427283072E+03  0.78809532013E+03  0.14106313317E+04  0.16274879171E+04  0.00000000000E+00 0. -1.
         -3    1    3    3    0  502  0.22466755124E+03  0.60906767137E+03  0.10578400070E+04  0.12411544696E+04  0.00000000000E+00 0.  1.
         11    1    5    5    0    0 -0.26139799725E+03 -0.58561762997E+03  0.48582150359E+02  0.64314628728E+03  0.00000000000E+00 0.  1.
        -11    1    5    5    0    0 -0.27832694360E+03 -0.45675477138E+03  0.89346380344E+02  0.54228551925E+03  0.00000000000E+00 0. -1.
          3    1    6    6  503    0 -0.35456481699E+01 -0.90981300893E+02 -0.38813302945E+02  0.98977983505E+02  0.00000000000E+00 0. -1.
         -3    1    6    6    0  503  0.12433020706E+03 -0.26380928925E+03 -0.37178503724E+02  0.29399929018E+03  0.00000000000E+00 0.  1.
<mgrwt>
<rscale>  0 0.15098716E+04</rscale>
<asrwt>0</asrwt>
<pdfrwt beam="1">  1        2 0.53672765E+00 0.15098716E+04</pdfrwt>
<pdfrwt beam="2">  1       -2 0.14743411E+00 0.15098716E+04</pdfrwt>
<totfact> 0.24720956E-01</totfact>
</mgrwt>
</event>
<event>
12    1  0.1338445E-007  0.8451755E+03  0.7818608E-02  0.9496835E-01
         -2   -1    0    0    0  501 -0.00000000000E+00  0.00000000000E+00  0.66263781693E+03  0.66263781693E+03  0.00000000000E+00 0.  1.
          2   -1    0    0  501    0  0.00000000000E+00 -0.00000000000E+00 -0.12156378409E+04  0.12156378409E+04  0.00000000000E+00 0. -1.
         23    2    1    2    0    0  0.43950475731E+03 -0.61300122365E+03  0.10131586042E+02  0.76201384114E+03  0.10783094709E+03 0.  0.
    5000000    2    1    2    0    0 -0.43950475731E+03  0.61300122365E+03 -0.56313161004E+03  0.11162618167E+04  0.59999025104E+03 0.  0.
         23    2    4    4    0    0  0.51534545231E+02  0.36529457999E+03 -0.10495754068E+03  0.39462527257E+03  0.92828233218E+02 0.  0.
         23    2    4    4    0    0 -0.49103930254E+03  0.24770664365E+03 -0.45817406935E+03  0.72163654414E+03  0.91420162227E+02 0.  0.
          3    1    3    3  502    0  0.17564629422E+03 -0.33137454017E+03  0.24290381921E+02  0.37583337957E+03  0.00000000000E+00 0. -1.
         -3    1    3    3    0  502  0.26385846309E+03 -0.28162668347E+03 -0.14158795879E+02  0.38618046156E+03  0.00000000000E+00 0.  1.
         11    1    5    5    0    0  0.20878042644E+02  0.28789488091E+03 -0.45246664519E+02  0.29217565910E+03  0.00000000000E+00 0.  1.
        -11    1    5    5    0    0  0.30656502587E+02  0.77399699083E+02 -0.59710876163E+02  0.10244961348E+03  0.00000000000E+00 0. -1.
          1    1    6    6  503    0 -0.12714779564E+03  0.11092167507E+03 -0.13449165040E+03  0.21577345519E+03  0.00000000000E+00 0. -1.
         -1    1    6    6    0  503 -0.36389150690E+03  0.13678496858E+03 -0.32368241896E+03  0.50586308896E+03  0.00000000000E+00 0.  1.
<mgrwt>
<rscale>  0 0.84517551E+03</rscale>
<asrwt>0</asrwt>
<pdfrwt beam="1">  1        2 0.18702121E+00 0.84517551E+03</pdfrwt>
<pdfrwt beam="2">  1       -2 0.10194428E+00 0.84517551E+03</pdfrwt>
<totfact> 0.14755650E+01</totfact>
</mgrwt>
</event>
<event>
12    1  0.1338445E-007  0.9355133E+03  0.7818608E-02  0.9382245E-01
         -1   -1    0    0    0  501 -0.00000000000E+00  0.00000000000E+00  0.19349592899E+04  0.19349592899E+04  0.00000000000E+00 0.  1.
          1   -1    0    0  501    0  0.00000000000E+00 -0.00000000000E+00 -0.49152462526E+03  0.49152462526E+03  0.00000000000E+00 0. -1.
         23    2    1    2    0    0 -0.22543813723E+03  0.85048717239E+03  0.61369765308E+03  0.10764610207E+04  0.89402100225E+02 0.  0.
    5000000    2    1    2    0    0  0.22543813723E+03 -0.85048717239E+03  0.82973701156E+03  0.13500228945E+04  0.59995626771E+03 0.  0.
         23    2    4    4    0    0 -0.40410321034E+02 -0.64522732204E+03  0.74678092623E+03  0.99237650729E+03  0.95802344822E+02 0.  0.
         23    2    4    4    0    0  0.26584845827E+03 -0.20525985035E+03  0.82956085324E+02  0.35764638720E+03  0.90676442678E+02 0.  0.
          3    1    3    3  502    0 -0.16786255681E+03  0.60709944143E+03  0.48641217232E+03  0.79582936057E+03  0.00000000000E+00 0. -1.
         -3    1    3    3    0  502 -0.57575580424E+02  0.24338773096E+03  0.12728548076E+03  0.28063166011E+03  0.00000000000E+00 0.  1.
         13    1    5    5    0    0 -0.20835235454E+02 -0.61465964282E+03  0.68381726343E+03  0.91969920806E+03  0.00000000000E+00 0.  1.
        -13    1    5    5    0    0 -0.19575085581E+02 -0.30567679217E+02  0.62963662808E+02  0.72677299223E+02  0.00000000000E+00 0. -1.
          4    1    6    6  503    0  0.83776784453E+02 -0.95906630873E+02 -0.57611242607E+01  0.12747478971E+03  0.00000000000E+00 0.  1.
         -4    1    6    6    0  503  0.18207167381E+03 -0.10935321948E+03  0.88717209585E+02  0.23017159749E+03  0.00000000000E+00 0. -1.
<mgrwt>
<rscale>  0 0.93551327E+03</rscale>
<asrwt>0</asrwt>
<pdfrwt beam="1">  1        1 0.75619174E-01 0.93551327E+03</pdfrwt>
<pdfrwt beam="2">  1       -1 0.29768604E+00 0.93551327E+03</pdfrwt>
<totfact> 0.15868745E+00</totfact>
</mgrwt>
</event>
<event>
12    1  0.1338445E-007  0.1158273E+04  0.7818608E-02  0.9150185E-01
          1   -1    0    0  501    0  0.00000000000E+00  0.00000000000E+00  0.59888099436E+03  0.59888099436E+03  0.00000000000E+00 0. -1.
         -1   -1    0    0    0  501 -0.00000000000E+00 -0.00000000000E+00 -0.24636635527E+04  0.24636635527E+04  0.00000000000E+00 0.  1.
         23    2    1    2    0    0 -0.90145914621E+03 -0.62167296348E+03 -0.12706702853E+04  0.16798147702E+04  0.89826623447E+02 0.  0.
    5000000    2    1    2    0    0  0.90145914621E+03  0.62167296348E+03 -0.59411227300E+03  0.13827297769E+04  0.59988863726E+03 0.  0.
         23    2    4    4    0    0 -0.33515064070E+02  0.17495477367E+03 -0.15695301433E+03  0.25439781585E+03  0.91386911827E+02 0.  0.
         23    2    4    4    0    0  0.93497421028E+03  0.44671818981E+03 -0.43715925867E+03  0.11283319610E+04  0.91054279575E+02 0.  0.
          4    1    3    3  502    0 -0.56264770260E+03 -0.33546926357E+03 -0.74481048106E+03  0.99189450887E+03  0.00000000000E+00 0. -1.
         -4    1    3    3    0  502 -0.33881144361E+03 -0.28620369991E+03 -0.52585980427E+03  0.68792026130E+03  0.00000000000E+00 0.  1.
         13    1    5    5    0    0 -0.12294004528E+02  0.54156880437E+02 -0.41731690688E+00  0.55536334047E+02  0.00000000000E+00 0. -1.
        -13    1    5    5    0    0 -0.21221059542E+02  0.12079789323E+03 -0.15653569742E+03  0.19886148180E+03  0.00000000000E+00 0.  1.
          1    1    6    6  503    0  0.29344825715E+03  0.96625592755E+02 -0.14464404404E+03  0.34113089024E+03  0.00000000000E+00 0. -1.
         -1    1    6    6    0  503  0.64152595313E+03  0.35009259706E+03 -0.29251521463E+03  0.78720107078E+03  0.00000000000E+00 0.  1.
<mgrwt>
<rscale>  0 0.11582734E+04</rscale>
<asrwt>0</asrwt>
<pdfrwt beam="1">  1        1 0.92135537E-01 0.11582734E+04</pdfrwt>
<pdfrwt beam="2">  1       -1 0.37902516E+00 0.11582734E+04</pdfrwt>
<totfact> 0.34135342E-01</totfact>
</mgrwt>
</event>
<event>
12    1  0.1338445E-007  0.5858604E+03  0.7818608E-02  0.9935183E-01
         -2   -1    0    0    0  501 -0.00000000000E+00  0.00000000000E+00  0.14580639499E+04  0.14580639499E+04  0.00000000000E+00 0.  1.
          2   -1    0    0  501    0  0.00000000000E+00 -0.00000000000E+00 -0.62285300879E+03  0.62285300879E+03  0.00000000000E+00 0. -1.
         23    2    1    2    0    0 -0.16126481724E+03 -0.45092797200E+03  0.11516140088E+04  0.12505659671E+04  0.91422292928E+02 0.  0.
    5000000    2    1    2    0    0  0.16126481724E+03  0.45092797200E+03 -0.31640306772E+03  0.83035099155E+03  0.60002457508E+03 0.  0.
         23    2    4    4    0    0  0.17496371925E+03 -0.48032404748E+02  0.45407718162E+02  0.20715266494E+03  0.89055885617E+02 0.  0.
         23    2    4    4    0    0 -0.13698902013E+02  0.49896037675E+03 -0.36181078588E+03  0.62319832661E+03  0.91213990321E+02 0.  0.
          4    1    3    3  502    0 -0.71394750925E+02 -0.24947690839E+03  0.72970591782E+03  0.77447186184E+03  0.00000000000E+00 0. -1.
         -4    1    3    3    0  502 -0.89870066310E+02 -0.20145106361E+03  0.42190809098E+03  0.47609410528E+03  0.00000000000E+00 0.  1.
         11    1    5    5    0    0  0.11959101860E+03 -0.52696152641E+01 -0.67350428630E+01  0.11989637766E+03  0.00000000000E+00 0.  1.
        -11    1    5    5    0    0  0.55372700652E+02 -0.42762789484E+02  0.52142761025E+02  0.87256287276E+02  0.00000000000E+00 0. -1.
          3    1    6    6  503    0 -0.19416934829E+02  0.61915492949E+02 -0.18695010607E+02  0.67528135224E+02  0.00000000000E+00 0. -1.
         -3    1    6    6    0  503  0.57180328162E+01  0.43704488380E+03 -0.34311577527E+03  0.55567019139E+03  0.00000000000E+00 0.  1.
<mgrwt>
<rscale>  0 0.58586038E+03</rscale>
<asrwt>0</asrwt>
<pdfrwt beam="1">  1        2 0.95823540E-01 0.58586038E+03</pdfrwt>
<pdfrwt beam="2">  1       -2 0.22431753E+00 0.58586038E+03</pdfrwt>
<totfact> 0.46189389E+00</totfact>
</mgrwt>
</event>
<event>
12    1  0.1338445E-007  0.6120101E+03  0.7818608E-02  0.9880798E-01
          2   -1    0    0  501    0  0.00000000000E+00  0.00000000000E+00  0.18461856048E+04  0.18461856048E+04  0.00000000000E+00 0. -1.
         -2   -1    0    0    0  501 -0.00000000000E+00 -0.00000000000E+00 -0.22319825437E+03  0.22319825437E+03  0.00000000000E+00 0.  1.
         23    2    1    2    0    0 -0.39652274939E+03 -0.29630553075E+03  0.70949253556E+03  0.86957974178E+03  0.88102275545E+02 0.  0.
    5000000    2    1    2    0    0  0.39652274939E+03  0.29630553075E+03  0.91349481489E+03  0.11998041174E+04  0.60002490363E+03 0.  0.
         23    2    4    4    0    0  0.50259114018E+03  0.14374111351E+03  0.46621797021E+03  0.70678814563E+03  0.94503572167E+02 0.  0.
         23    2    4    4    0    0 -0.10606839080E+03  0.15256441725E+03  0.44727684467E+03  0.49301597177E+03  0.92096512986E+02 0.  0.
          1    1    3    3  502    0 -0.14749282168E+03 -0.62093570768E+02  0.20261066765E+03  0.25818758030E+03  0.00000000000E+00 0. -1.
         -1    1    3    3    0  502 -0.24902992771E+03 -0.23421195999E+03  0.50688186792E+03  0.61139216148E+03  0.00000000000E+00 0.  1.
         13    1    5    5    0    0  0.15869498769E+03  0.95409990957E+00  0.14724308150E+03  0.21648449015E+03  0.00000000000E+00 0. -1.
        -13    1    5    5    0    0  0.34389615250E+03  0.14278701360E+03  0.31897488871E+03  0.49030365549E+03  0.00000000000E+00 0.  1.
          1    1    6    6  503    0 -0.11053237310E+03  0.14579546127E+03  0.34581856715E+03  0.39123420533E+03  0.00000000000E+00 0. -1.
         -1    1    6    6    0  503  0.44639822999E+01  0.67689559727E+01  0.10145827752E+03  0.10178176644E+03  0.00000000000E+00 0.  1.
<mgrwt>
<rscale>  0 0.61201007E+03</rscale>
<asrwt>0</asrwt>
<pdfrwt beam="1">  1        2 0.28402854E+00 0.61201007E+03</pdfrwt>
<pdfrwt beam="2">  1       -2 0.34338194E-01 0.61201007E+03</pdfrwt>
<totfact> 0.67399071E+01</totfact>
</mgrwt>
</event>
<event>
12    1  0.1338445E-007  0.4319470E+03  0.7818608E-02  0.1033247E+00
          1   -1    0    0  501    0  0.00000000000E+00  0.00000000000E+00  0.16367017594E+04  0.16367017594E+04  0.00000000000E+00 0. -1.
         -1   -1    0    0    0  501 -0.00000000000E+00 -0.00000000000E+00 -0.33882381808E+03  0.33882381808E+03  0.00000000000E+00 0.  1.
         23    2    1    2    0    0 -0.58763016601E+02  0.38593008733E+03  0.11841638251E+04  0.12501601953E+04  0.90892380356E+02 0.  0.
    5000000    2    1    2    0    0  0.58763016601E+02 -0.38593008733E+03  0.11371411615E+03  0.72536538211E+03  0.60069036360E+03 0.  0.
         23    2    4    4    0    0 -0.41392020767E+02 -0.30881275523E+03  0.32745737551E+03  0.46137092708E+03  0.92499634566E+02 0.  0.
         23    2    4    4    0    0  0.10015503737E+03 -0.77117332102E+02 -0.21374325936E+03  0.26399445503E+03  0.89603442702E+02 0.  0.
          4    1    3    3  502    0  0.50262418477E+01  0.23450546035E+03  0.63474001930E+03  0.67669266742E+03  0.00000000000E+00 0. -1.
         -4    1    3    3    0  502 -0.63789258448E+02  0.15142462699E+03  0.54942380585E+03  0.57346752792E+03  0.00000000000E+00 0.  1.
         11    1    5    5    0    0 -0.10664160007E+02 -0.49038888663E+02  0.11108592818E+03  0.12189594066E+03  0.00000000000E+00 0. -1.
        -11    1    5    5    0    0 -0.30727860760E+02 -0.25977386657E+03  0.21637144733E+03  0.33947498641E+03  0.00000000000E+00 0.  1.
          1    1    6    6  503    0 -0.10452573360E+02  0.84254322307E+01 -0.93950930639E+01  0.16386334910E+02  0.00000000000E+00 0. -1.
         -1    1    6    6    0  503  0.11060761073E+03 -0.85542764332E+02 -0.20434816630E+03  0.24760812012E+03  0.00000000000E+00 0.  1.
<mgrwt>
<rscale>  0 0.43194699E+03</rscale>
<asrwt>0</asrwt>
<pdfrwt beam="1">  1        1 0.25180026E+00 0.43194699E+03</pdfrwt>
<pdfrwt beam="2">  1       -1 0.52126742E-01 0.43194699E+03</pdfrwt>
<totfact> 0.21392101E+01</totfact>
</mgrwt>
</event>
<event>
12    1  0.1338445E-007  0.1080758E+04  0.7818608E-02  0.9224152E-01
          1   -1    0    0  501    0  0.00000000000E+00  0.00000000000E+00  0.22083615393E+04  0.22083615393E+04  0.00000000000E+00 0. -1.
         -1   -1    0    0    0  501 -0.00000000000E+00 -0.00000000000E+00 -0.86555434072E+03  0.86555434072E+03  0.00000000000E+00 0.  1.
         23    2    1    2    0    0  0.36686942249E+03 -0.94018801074E+03  0.15790959502E+04  0.18762061810E+04  0.89771628162E+02 0.  0.
    5000000    2    1    2    0    0 -0.36686942249E+03  0.94018801074E+03 -0.23628875156E+03  0.11977096990E+04  0.60010789055E+03 0.  0.
         23    2    4    4    0    0  0.12759840803E+03  0.12106944349E+03  0.33080791347E+02  0.19966361080E+03  0.88498897422E+02 0.  0.
         23    2    4    4    0    0 -0.49446783052E+03  0.81911856725E+03 -0.26936954291E+03  0.99804608821E+03  0.89902062901E+02 0.  0.
          3    1    3    3  502    0  0.29245273725E+03 -0.67765796100E+03  0.12070077135E+04  0.14147849787E+04  0.00000000000E+00 0. -1.
         -3    1    3    3    0  502  0.74416685246E+02 -0.26253004974E+03  0.37208823667E+03  0.46142120230E+03  0.00000000000E+00 0.  1.
         13    1    5    5    0    0  0.32968674949E+02 -0.78166255532E+01  0.19738867260E+02  0.39212957598E+02  0.00000000000E+00 0.  1.
        -13    1    5    5    0    0  0.94629733079E+02  0.12888606904E+03  0.13341924088E+02  0.16045065320E+03  0.00000000000E+00 0. -1.
          3    1    6    6  503    0 -0.19823554121E+03  0.32872824040E+03 -0.62535479000E+02  0.38893479141E+03  0.00000000000E+00 0. -1.
         -3    1    6    6    0  503 -0.29623228931E+03  0.49039032685E+03 -0.20683406391E+03  0.60911129680E+03  0.00000000000E+00 0.  1.
<mgrwt>
<rscale>  0 0.10807578E+04</rscale>
<asrwt>0</asrwt>
<pdfrwt beam="1">  1        1 0.33974793E+00 0.10807578E+04</pdfrwt>
<pdfrwt beam="2">  1       -1 0.13316221E+00 0.10807578E+04</pdfrwt>
<totfact> 0.10273013E+00</totfact>
</mgrwt>
</event>
<event>
12    1  0.1338445E-007  0.8708313E+03  0.7818608E-02  0.9462797E-01
          2   -1    0    0  501    0  0.00000000000E+00  0.00000000000E+00  0.38028195194E+04  0.38028195194E+04  0.00000000000E+00 0.  1.
         -2   -1    0    0    0  501 -0.00000000000E+00 -0.00000000000E+00 -0.20709801237E+03  0.20709801237E+03  0.00000000000E+00 0. -1.
         23    2    1    2    0    0 -0.76829362328E+03  0.12206251560E+03  0.17998466834E+04  0.19628802524E+04  0.90975008891E+02 0.  0.
    5000000    2    1    2    0    0  0.76829362328E+03 -0.12206251560E+03  0.17958748237E+04  0.20470372794E+04  0.60001740951E+03 0.  0.
         23    2    4    4    0    0  0.62116120929E+03 -0.33099379015E+03  0.13441548794E+04  0.15200295332E+04  0.91319794711E+02 0.  0.
         23    2    4    4    0    0  0.14713241399E+03  0.20893127455E+03  0.45171994429E+03  0.52700774624E+03  0.91575279398E+02 0.  0.
          2    1    3    3  502    0 -0.45790817707E+03  0.99664891059E+02  0.11696390551E+04  0.12600271855E+04  0.00000000000E+00 0. -1.
         -2    1    3    3    0  502 -0.31038544621E+03  0.22397624545E+02  0.63020762833E+03  0.70285306687E+03  0.00000000000E+00 0.  1.
         11    1    5    5    0    0  0.27689930330E+03 -0.16396245289E+03  0.70725247063E+03  0.77702185769E+03  0.00000000000E+00 0. -1.
        -11    1    5    5    0    0  0.34426190599E+03 -0.16703133726E+03  0.63690240875E+03  0.74300767547E+03  0.00000000000E+00 0.  1.
          4    1    6    6  503    0  0.89800787416E+01  0.30130314519E+02  0.14017303746E+02  0.34423283858E+02  0.00000000000E+00 0. -1.
         -4    1    6    6    0  503  0.13815233525E+03  0.17880096003E+03  0.43770264054E+03  0.49258446238E+03  0.00000000000E+00 0.  1.
<mgrwt>
<rscale>  0 0.87083125E+03</rscale>
<asrwt>0</asrwt>
<pdfrwt beam="1">  1        2 0.58504911E+00 0.87083125E+03</pdfrwt>
<pdfrwt beam="2">  1       -2 0.31861235E-01 0.87083125E+03</pdfrwt>
<totfact> 0.47877779E+00</totfact>
</mgrwt>
</event>
<event>
12    1  0.1338445E-007  0.5893033E+03  0.7818608E-02  0.9927850E-01
         -2   -1    0    0    0  501 -0.00000000000E+00  0.00000000000E+00  0.18576376932E+03  0.18576376932E+03  0.00000000000E+00 0.  1.
          2   -1    0    0  501    0  0.00000000000E+00 -0.00000000000E+00 -0.25140696437E+04  0.25140696437E+04  0.00000000000E+00 0. -1.
         23    2    1    2    0    0  0.29352835334E+03 -0.35495604270E+03 -0.36168228793E+03  0.59283950407E+03  0.92151580130E+02 0.  0.
    5000000    2    1    2    0    0 -0.29352835334E+03  0.35495604270E+03 -0.19666235865E+04  0.21069939090E+04  0.59971852989E+03 0.  0.
         23    2    4    4    0    0 -0.27092177987E+03  0.49695781437E+03 -0.16614166429E+04  0.17576381506E+04  0.92848947744E+02 0.  0.
         23    2    4    4    0    0 -0.22606573466E+02 -0.14200177168E+03 -0.30520694357E+03  0.34935575836E+03  0.90678592683E+02 0.  0.
          4    1    3    3  502    0  0.21411378236E+03 -0.27607450770E+03 -0.31882885599E+03  0.47298381052E+03  0.00000000000E+00 0. -1.
         -4    1    3    3    0  502  0.79414570984E+02 -0.78881534994E+02 -0.42853431935E+02  0.11985569355E+03  0.00000000000E+00 0.  1.
         13    1    5    5    0    0 -0.14319474900E+03  0.16870785821E+03 -0.62832807030E+03  0.66615556854E+03  0.00000000000E+00 0.  1.
        -13    1    5    5    0    0 -0.12772703088E+03  0.32824995616E+03 -0.10330885726E+04  0.10914825821E+04  0.00000000000E+00 0. -1.
          4    1    6    6  503    0 -0.17885574817E+02 -0.11338971059E+03 -0.29818686835E+03  0.31951921493E+03  0.00000000000E+00 0. -1.
         -4    1    6    6    0  503 -0.47209986490E+01 -0.28612061086E+02 -0.70200752289E+01  0.29836543433E+02  0.00000000000E+00 0.  1.
<mgrwt>
<rscale>  0 0.58930335E+03</rscale>
<asrwt>0</asrwt>
<pdfrwt beam="1">  1        2 0.38677994E+00 0.58930335E+03</pdfrwt>
<pdfrwt beam="2">  1       -2 0.28579042E-01 0.58930335E+03</pdfrwt>
<totfact> 0.40960961E+01</totfact>
</mgrwt>
</event>
<event>
12    1  0.1338445E-007  0.8152385E+03  0.7818608E-02  0.9538218E-01
          2   -1    0    0  501    0  0.00000000000E+00  0.00000000000E+00  0.14601694668E+04  0.14601694668E+04  0.00000000000E+00 0.  1.
         -2   -1    0    0    0  501 -0.00000000000E+00 -0.00000000000E+00 -0.66844616224E+03  0.66844616224E+03  0.00000000000E+00 0. -1.
         23    2    1    2    0    0 -0.80459168403E+03  0.80289401860E+02 -0.51277909930E+02  0.81549010781E+03  0.92631127714E+02 0.  0.
    5000000    2    1    2    0    0  0.80459168403E+03 -0.80289401860E+02  0.84300121450E+03  0.13131255212E+04  0.59986116796E+03 0.  0.
         23    2    4    4    0    0  0.23006156356E+03 -0.70102534294E+01  0.65103852381E+03  0.69587103744E+03  0.86069010611E+02 0.  0.
         23    2    4    4    0    0  0.57453012047E+03 -0.73279148431E+02  0.19196269070E+03  0.61725448381E+03  0.93266983616E+02 0.  0.
          4    1    3    3  502    0 -0.64888684238E+03  0.88606228411E+02 -0.13479141894E+02  0.65504723890E+03  0.00000000000E+00 0. -1.
         -4    1    3    3    0  502 -0.15570484165E+03 -0.83168265504E+01 -0.37798768036E+02  0.16044286891E+03  0.00000000000E+00 0.  1.
         13    1    5    5    0    0  0.52333927957E+02 -0.24201052419E+02  0.88080637143E+02  0.10527454390E+03  0.00000000000E+00 0.  1.
        -13    1    5    5    0    0  0.17772763560E+03  0.17190798990E+02  0.56295788666E+03  0.59059649354E+03  0.00000000000E+00 0. -1.
          2    1    6    6  503    0  0.59860200142E+02  0.13827838040E+02  0.10412776166E+01  0.61445397915E+02  0.00000000000E+00 0. -1.
         -2    1    6    6    0  503  0.51466992033E+03 -0.87106986471E+02  0.19092141308E+03  0.55580908589E+03  0.00000000000E+00 0.  1.
<mgrwt>
<rscale>  0 0.81523849E+03</rscale>
<asrwt>0</asrwt>
<pdfrwt beam="1">  1        2 0.22464146E+00 0.81523849E+03</pdfrwt>
<pdfrwt beam="2">  1       -2 0.10283787E+00 0.81523849E+03</pdfrwt>
<totfact> 0.10490777E+01</totfact>
</mgrwt>
</event>
<event>
12    1  0.1338445E-007  0.5012353E+03  0.7818608E-02  0.1013457E+00
         -1   -1    0    0    0  501 -0.00000000000E+00  0.00000000000E+00  0.13839750942E+03  0.13839750942E+03  0.00000000000E+00 0.  1.
          1   -1    0    0  501    0  0.00000000000E+00 -0.00000000000E+00 -0.24887567590E+04  0.24887567590E+04  0.00000000000E+00 0. -1.
         23    2    1    2    0    0  0.29111986914E+03 -0.24966837807E+03 -0.12979015647E+04  0.13564080866E+04  0.90605455980E+02 0.  0.
    5000000    2    1    2    0    0 -0.29111986914E+03  0.24966837807E+03 -0.10524576849E+04  0.12707461818E+04  0.60003633459E+03 0.  0.
         23    2    4    4    0    0  0.11110043470E+03  0.13423591708E+03 -0.87909459975E+02  0.21530603138E+03  0.90917687884E+02 0.  0.
         23    2    4    4    0    0 -0.40222030383E+03  0.11543246099E+03 -0.96454822494E+03  0.10554401504E+04  0.92167277520E+02 0.  0.
          3    1    3    3  502    0  0.17178609383E+03 -0.94990682208E+02 -0.57554188185E+03  0.60809715466E+03  0.00000000000E+00 0. -1.
         -3    1    3    3    0  502  0.11933377531E+03 -0.15467769586E+03 -0.72235968281E+03  0.74831093195E+03  0.00000000000E+00 0.  1.
         11    1    5    5    0    0  0.38610385736E+02 -0.12816054627E+01 -0.36771041852E+02  0.53333984645E+02  0.00000000000E+00 0. -1.
        -11    1    5    5    0    0  0.72490048960E+02  0.13551752254E+03 -0.51138418122E+02  0.16197204673E+03  0.00000000000E+00 0.  1.
          2    1    6    6  503    0 -0.31217756965E+03  0.91918642752E+02 -0.64249940694E+03  0.72021480115E+03  0.00000000000E+00 0.  1.
         -2    1    6    6    0  503 -0.90042734189E+02  0.23513818239E+02 -0.32204881799E+03  0.33522534928E+03  0.00000000000E+00 0. -1.
<mgrwt>
<rscale>  0 0.50123531E+03</rscale>
<asrwt>0</asrwt>
<pdfrwt beam="1">  1        1 0.38288564E+00 0.50123531E+03</pdfrwt>
<pdfrwt beam="2">  1       -1 0.21291925E-01 0.50123531E+03</pdfrwt>
<totfact> 0.27693187E+01</totfact>
</mgrwt>
</event>
<event>
12    1  0.1338445E-007  0.1525930E+04  0.7818608E-02  0.8867390E-01
          1   -1    0    0  501    0  0.00000000000E+00  0.00000000000E+00  0.26624680160E+04  0.26624680160E+04  0.00000000000E+00 0. -1.
         -1   -1    0    0    0  501 -0.00000000000E+00 -0.00000000000E+00 -0.11224915514E+04  0.11224915514E+04  0.00000000000E+00 0.  1.
         23    2    1    2    0    0 -0.28021392898E+02  0.15148718467E+04 -0.35714981158E+02  0.15181359887E+04  0.88540443150E+02 0.  0.
    5000000    2    1    2    0    0  0.28021392898E+02 -0.15148718467E+04  0.15756914458E+04  0.22668235787E+04  0.60005307608E+03 0.  0.
         23    2    4    4    0    0  0.93040710099E+01 -0.17358298921E+03  0.52651676988E+03  0.56132129576E+03  0.87430362107E+02 0.  0.
         23    2    4    4    0    0  0.18717321888E+02 -0.13412888574E+04  0.10491746759E+04  0.17055022829E+04  0.92544038949E+02 0.  0.
          3    1    3    3  502    0  0.10459488829E+02  0.10586696499E+04 -0.52312888617E+02  0.10600129560E+04  0.00000000000E+00 0. -1.
         -3    1    3    3    0  502 -0.38480881727E+02  0.45620219678E+03  0.16597907460E+02  0.45812303275E+03  0.00000000000E+00 0.  1.
         11    1    5    5    0    0 -0.22344574207E+02 -0.15478494262E+03  0.39756306217E+03  0.42721662755E+03  0.00000000000E+00 0. -1.
        -11    1    5    5    0    0  0.31648645216E+02 -0.18798046594E+02  0.12895370772E+03  0.13410466820E+03  0.00000000000E+00 0.  1.
          3    1    6    6  503    0  0.16062445939E+02 -0.15590451512E+03  0.15742064011E+03  0.22213842066E+03  0.00000000000E+00 0. -1.
         -3    1    6    6    0  503  0.26548759493E+01 -0.11853843423E+04  0.89175403581E+03  0.14833638622E+04  0.00000000000E+00 0.  1.
<mgrwt>
<rscale>  0 0.15259302E+04</rscale>
<asrwt>0</asrwt>
<pdfrwt beam="1">  1        1 0.40961046E+00 0.15259302E+04</pdfrwt>
<pdfrwt beam="2">  1       -1 0.17269101E+00 0.15259302E+04</pdfrwt>
<totfact> 0.23178909E-01</totfact>
</mgrwt>
</event>
<event>
12    1  0.1338445E-007  0.6246923E+03  0.7818608E-02  0.9855461E-01
          2   -1    0    0  501    0  0.00000000000E+00  0.00000000000E+00  0.24583802313E+04  0.24583802313E+04  0.00000000000E+00 0.  1.
         -2   -1    0    0    0  501 -0.00000000000E+00 -0.00000000000E+00 -0.28519053216E+03  0.28519053216E+03  0.00000000000E+00 0. -1.
         23    2    1    2    0    0 -0.22865741127E+03  0.51988314080E+03  0.20722266776E+03  0.61102930763E+03  0.88616527453E+02 0.  0.
    5000000    2    1    2    0    0  0.22865741127E+03 -0.51988314080E+03  0.19659670314E+04  0.21325414559E+04  0.60011998845E+03 0.  0.
         23    2    4    4    0    0  0.24400488528E+03 -0.53666126908E+03  0.19532833117E+04  0.20423268569E+04  0.90772204112E+02 0.  0.
         23    2    4    4    0    0 -0.15347474016E+02  0.16778128278E+02  0.12683719739E+02  0.90214598944E+02  0.86375613278E+02 0.  0.
          3    1    3    3  502    0 -0.21218693920E+03  0.41106044549E+03  0.14601198389E+03  0.48509121457E+03  0.00000000000E+00 0.  1.
         -3    1    3    3    0  502 -0.16470472070E+02  0.10882269531E+03  0.61210683874E+02  0.12593809306E+03  0.00000000000E+00 0. -1.
         11    1    5    5    0    0  0.95928954564E+02 -0.20382150134E+03  0.60086909144E+03  0.64170805962E+03  0.00000000000E+00 0.  1.
        -11    1    5    5    0    0  0.14807593072E+03 -0.33283976774E+03  0.13524142202E+04  0.14006187973E+04  0.00000000000E+00 0. -1.
          4    1    6    6  503    0 -0.47394586534E+02  0.25683630531E+02 -0.18001235210E+01  0.53936408433E+02  0.00000000000E+00 0. -1.
         -4    1    6    6    0  503  0.32047112519E+02 -0.89055022530E+01  0.14483843260E+02  0.36278190511E+02  0.00000000000E+00 0.  1.
<mgrwt>
<rscale>  0 0.62469234E+03</rscale>
<asrwt>0</asrwt>
<pdfrwt beam="1">  1        2 0.37821233E+00 0.62469234E+03</pdfrwt>
<pdfrwt beam="2">  1       -2 0.43875468E-01 0.62469234E+03</pdfrwt>
<totfact> 0.19343903E+01</totfact>
</mgrwt>
</event>
<event>
12    1  0.1338445E-007  0.1778613E+04  0.7818608E-02  0.8717756E-01
          2   -1    0    0  501    0  0.00000000000E+00  0.00000000000E+00  0.29807407819E+04  0.29807407819E+04  0.00000000000E+00 0. -1.
         -2   -1    0    0    0  501 -0.00000000000E+00 -0.00000000000E+00 -0.11183428186E+04  0.11183428186E+04  0.00000000000E+00 0.  1.
         23    2    1    2    0    0  0.11705456029E+04 -0.12770760031E+04  0.47049692291E+03  0.17972267975E+04  0.86929172912E+02 0.  0.
    5000000    2    1    2    0    0 -0.11705456029E+04  0.12770760031E+04  0.13919010404E+04  0.23018568030E+04  0.60004675551E+03 0.  0.
         23    2    4    4    0    0 -0.11116822973E+04  0.88279141674E+03  0.10356730105E+04  0.17596058862E+04  0.91848104570E+02 0.  0.
         23    2    4    4    0    0 -0.58863305565E+02  0.39428458637E+03  0.35622802990E+03  0.54225091677E+03  0.90622423597E+02 0.  0.
          1    1    3    3  502    0  0.40428717865E+03 -0.41448513861E+03  0.11918082675E+03  0.59114306426E+03  0.00000000000E+00 0. -1.
         -1    1    3    3    0  502  0.76625842423E+03 -0.86259086450E+03  0.35131609616E+03  0.12060837333E+04  0.00000000000E+00 0.  1.
         11    1    5    5    0    0 -0.44192242382E+03  0.40470270969E+03  0.41561319538E+03  0.72925581251E+03  0.00000000000E+00 0.  1.
        -11    1    5    5    0    0 -0.66975987350E+03  0.47808870705E+03  0.62005981516E+03  0.10303500737E+04  0.00000000000E+00 0. -1.
          3    1    6    6  503    0  0.90109342247E+01  0.95265890062E+02  0.12895493278E+03  0.16058070069E+03  0.00000000000E+00 0. -1.
         -3    1    6    6    0  503 -0.67874239790E+02  0.29901869631E+03  0.22727309712E+03  0.38167021608E+03  0.00000000000E+00 0.  1.
<mgrwt>
<rscale>  0 0.17786129E+04</rscale>
<asrwt>0</asrwt>
<pdfrwt beam="1">  1        2 0.45857550E+00 0.17786129E+04</pdfrwt>
<pdfrwt beam="2">  1       -2 0.17205274E+00 0.17786129E+04</pdfrwt>
<totfact> 0.33834403E-01</totfact>
</mgrwt>
</event>
<event>
12    1  0.1338445E-007  0.8285106E+03  0.7818608E-02  0.9519642E-01
         -2   -1    0    0    0  501 -0.00000000000E+00  0.00000000000E+00  0.10022447518E+04  0.10022447518E+04  0.00000000000E+00 0.  1.
          2   -1    0    0  501    0  0.00000000000E+00 -0.00000000000E+00 -0.72551519747E+03  0.72551519747E+03  0.00000000000E+00 0. -1.
         23    2    1    2    0    0 -0.71970565705E+02  0.72674021822E+03 -0.26543507332E+02  0.73516475345E+03  0.80196943961E+02 0.  0.
    5000000    2    1    2    0    0  0.71970565705E+02 -0.72674021822E+03  0.30327306162E+03  0.99259519579E+03  0.59994963596E+03 0.  0.
         23    2    4    4    0    0  0.28485831857E+03 -0.61900475253E+03  0.25935927620E+03  0.73375742942E+03  0.82592891805E+02 0.  0.
         23    2    4    4    0    0 -0.21288775286E+03 -0.10773546570E+03  0.43913785425E+02  0.25883776637E+03  0.90224402796E+02 0.  0.
          4    1    3    3  502    0  0.17312828654E+02  0.95058254122E+02  0.66545130911E+00  0.96624264749E+02  0.00000000000E+00 0. -1.
         -4    1    3    3    0  502 -0.89283394360E+02  0.63168196410E+03 -0.27208958641E+02  0.63854048870E+03  0.00000000000E+00 0.  1.
         11    1    5    5    0    0  0.20114187462E+03 -0.39107659940E+03  0.20363119766E+03  0.48462833696E+03  0.00000000000E+00 0. -1.
        -11    1    5    5    0    0  0.83716443951E+02 -0.22792815312E+03  0.55728078540E+02  0.24912909246E+03  0.00000000000E+00 0.  1.
          2    1    6    6  503    0 -0.16694167526E+03 -0.72765584515E+02  0.70487102240E+02  0.19527617573E+03  0.00000000000E+00 0. -1.
         -2    1    6    6    0  503 -0.45946077607E+02 -0.34969881183E+02 -0.26573316815E+02  0.63561590634E+02  0.00000000000E+00 0.  1.
<mgrwt>
<rscale>  0 0.82851060E+03</rscale>
<asrwt>0</asrwt>
<pdfrwt beam="1">  1        2 0.11161772E+00 0.82851060E+03</pdfrwt>
<pdfrwt beam="2">  1       -2 0.15419150E+00 0.82851060E+03</pdfrwt>
<totfact> 0.10980128E+01</totfact>
</mgrwt>
</event>
<event>
12    1  0.1338445E-007  0.3678536E+03  0.7818608E-02  0.1055517E+00
          2   -1    0    0  501    0  0.00000000000E+00  0.00000000000E+00  0.88779748457E+03  0.88779748457E+03  0.00000000000E+00 0. -1.
         -2   -1    0    0    0  501 -0.00000000000E+00 -0.00000000000E+00 -0.73553411869E+03  0.73553411869E+03  0.00000000000E+00 0.  1.
         23    2    1    2    0    0 -0.15205971060E+03  0.26669630495E+03 -0.55881490996E+03  0.64365361935E+03  0.88129469810E+02 0.  0.
    5000000    2    1    2    0    0  0.15205971060E+03 -0.26669630495E+03  0.71107827583E+03  0.97967798391E+03  0.59990629530E+03 0.  0.
         23    2    4    4    0    0  0.39003355972E+02  0.33183051386E+02 -0.73362371746E+02  0.12734296973E+03  0.90619080083E+02 0.  0.
         23    2    4    4    0    0  0.11305635463E+03 -0.29987935633E+03  0.78444064758E+03  0.85233501418E+03  0.91752270569E+02 0.  0.
          1    1    3    3  502    0 -0.46904772143E+02  0.14884664048E+03 -0.21889592610E+03  0.26883230181E+03  0.00000000000E+00 0. -1.
         -1    1    3    3    0  502 -0.10515493846E+03  0.11784966447E+03 -0.33991898385E+03  0.37482131754E+03  0.00000000000E+00 0.  1.
         13    1    5    5    0    0  0.58252231926E+02  0.26679110375E+01 -0.70001325815E+02  0.91107770741E+02  0.00000000000E+00 0.  1.
        -13    1    5    5    0    0 -0.19248875954E+02  0.30515140349E+02 -0.33610459310E+01  0.36235198989E+02  0.00000000000E+00 0. -1.
          3    1    6    6  503    0 -0.63706155370E+01 -0.24968374390E+01  0.57306812147E+02  0.57713860189E+02  0.00000000000E+00 0. -1.
         -3    1    6    6    0  503  0.11942697017E+03 -0.29738251890E+03  0.72713383543E+03  0.79462115400E+03  0.00000000000E+00 0.  1.
<mgrwt>
<rscale>  0 0.36785364E+03</rscale>
<asrwt>0</asrwt>
<pdfrwt beam="1">  1        2 0.13658423E+00 0.36785364E+03</pdfrwt>
<pdfrwt beam="2">  1       -2 0.11315910E+00 0.36785364E+03</pdfrwt>
<totfact> 0.19660575E+01</totfact>
</mgrwt>
</event>
<event>
12    1  0.1338445E-007  0.7832086E+03  0.7818608E-02  0.9584645E-01
         -1   -1    0    0    0  501 -0.00000000000E+00  0.00000000000E+00  0.66978034242E+03  0.66978034242E+03  0.00000000000E+00 0.  1.
          1   -1    0    0  501    0  0.00000000000E+00 -0.00000000000E+00 -0.11044909247E+04  0.11044909247E+04  0.00000000000E+00 0. -1.
         23    2    1    2    0    0 -0.76248508240E+02  0.74620177498E+03 -0.13671280250E+03  0.76794077865E+03  0.91715457545E+02 0.  0.
    5000000    2    1    2    0    0  0.76248508240E+02 -0.74620177498E+03 -0.29799777980E+03  0.10063304885E+04  0.60105528142E+03 0.  0.
         23    2    4    4    0    0 -0.29505463456E+02 -0.65866091170E+03 -0.43256196783E+03  0.79401637357E+03  0.92991271121E+02 0.  0.
         23    2    4    4    0    0  0.10575397170E+03 -0.87540863285E+02  0.13456418804E+03  0.21231411493E+03  0.90124677096E+02 0.  0.
          2    1    3    3  502    0 -0.41623634920E+02  0.34866044950E+03 -0.11016560306E+03  0.36801235866E+03  0.00000000000E+00 0. -1.
         -2    1    3    3    0  502 -0.34624873320E+02  0.39754132548E+03 -0.26547199444E+02  0.39992841999E+03  0.00000000000E+00 0.  1.
         13    1    5    5    0    0  0.23332536324E+02 -0.36178099941E+03 -0.26483763021E+03  0.44896421813E+03  0.00000000000E+00 0. -1.
        -13    1    5    5    0    0 -0.52837999779E+02 -0.29687991229E+03 -0.16772433762E+03  0.34505215544E+03  0.00000000000E+00 0.  1.
          2    1    6    6  503    0  0.41508516679E+01 -0.39589981564E+02  0.75579735002E+02  0.85421850558E+02  0.00000000000E+00 0. -1.
         -2    1    6    6    0  503  0.10160312003E+03 -0.47950881721E+02  0.58984453035E+02  0.12689226437E+03  0.00000000000E+00 0.  1.
<mgrwt>
<rscale>  0 0.78320861E+03</rscale>
<asrwt>0</asrwt>
<pdfrwt beam="1">  1        1 0.16992168E+00 0.78320861E+03</pdfrwt>
<pdfrwt beam="2">  1       -1 0.10304313E+00 0.78320861E+03</pdfrwt>
<totfact> 0.11506257E+01</totfact>
</mgrwt>
</event>
<event>
12    1  0.1338445E-007  0.1036307E+04  0.7818608E-02  0.9269596E-01
          2   -1    0    0  501    0  0.00000000000E+00  0.00000000000E+00  0.25343880129E+04  0.25343880129E+04  0.00000000000E+00 0. -1.
         -2   -1    0    0    0  501 -0.00000000000E+00 -0.00000000000E+00 -0.58162111063E+03  0.58162111063E+03  0.00000000000E+00 0.  1.
         23    2    1    2    0    0  0.90899699788E+03  0.35905691324E+03  0.17006551857E+03  0.99626579775E+03  0.91792429220E+02 0.  0.
    5000000    2    1    2    0    0 -0.90899699788E+03 -0.35905691324E+03  0.17827013837E+04  0.21197433257E+04  0.60007510745E+03 0.  0.
         23    2    4    4    0    0 -0.85494448345E+03 -0.46281861169E+03  0.16652502666E+04  0.19304019034E+04  0.90895109416E+02 0.  0.
         23    2    4    4    0    0 -0.54052514437E+02  0.10376169845E+03  0.11745111702E+03  0.18934142235E+03  0.91472645903E+02 0.  0.
          4    1    3    3  502    0  0.43918212064E+03  0.18414161701E+03  0.37404147805E+02  0.47769042327E+03  0.00000000000E+00 0. -1.
         -4    1    3    3    0  502  0.46981487724E+03  0.17491529623E+03  0.13266137077E+03  0.51857537449E+03  0.00000000000E+00 0.  1.
         11    1    5    5    0    0 -0.42287235726E+03 -0.18798541663E+03  0.73599411776E+03  0.86939455300E+03  0.00000000000E+00 0. -1.
        -11    1    5    5    0    0 -0.43207212619E+03 -0.27483319505E+03  0.92925614888E+03  0.10610073504E+04  0.00000000000E+00 0.  1.
          3    1    6    6  503    0  0.20638347664E+01  0.15470579284E+02 -0.14258298842E+02  0.21139946149E+02  0.00000000000E+00 0. -1.
         -3    1    6    6    0  503 -0.56116349203E+02  0.88291119164E+02  0.13170941586E+03  0.16820147621E+03  0.00000000000E+00 0.  1.
<mgrwt>
<rscale>  0 0.10363070E+04</rscale>
<asrwt>0</asrwt>
<pdfrwt beam="1">  1        2 0.38990584E+00 0.10363070E+04</pdfrwt>
<pdfrwt beam="2">  1       -2 0.89480172E-01 0.10363070E+04</pdfrwt>
<totfact> 0.35790319E+00</totfact>
</mgrwt>
</event>
<event>
12    1  0.1338445E-007  0.2184460E+04  0.7818608E-02  0.8524924E-01
         -1   -1    0    0    0  501 -0.00000000000E+00  0.00000000000E+00  0.15045442964E+04  0.15045442964E+04  0.00000000000E+00 0.  1.
          1   -1    0    0  501    0  0.00000000000E+00 -0.00000000000E+00 -0.32019387208E+04  0.32019387208E+04  0.00000000000E+00 0. -1.
         23    2    1    2    0    0  0.11197296188E+04 -0.18315457577E+04 -0.10089696763E+04  0.23736322102E+04  0.88066907946E+02 0.  0.
    5000000    2    1    2    0    0 -0.11197296188E+04  0.18315457577E+04 -0.68842474804E+03  0.23328508070E+04  0.59992497225E+03 0.  0.
         23    2    4    4    0    0 -0.64320154179E+03  0.15139238632E+04 -0.53749604966E+03  0.17333075037E+04  0.98889898451E+02 0.  0.
         23    2    4    4    0    0 -0.47652807697E+03  0.31762189449E+03 -0.15092869838E+03  0.59954330331E+03  0.93327512253E+02 0.  0.
          3    1    3    3  502    0  0.53072111842E+03 -0.78521487663E+03 -0.43785750073E+03  0.10440050282E+04  0.00000000000E+00 0. -1.
         -3    1    3    3    0  502  0.58900850034E+03 -0.10463308810E+04 -0.57111217559E+03  0.13296271820E+04  0.00000000000E+00 0.  1.
         13    1    5    5    0    0 -0.28489289019E+02  0.12528958679E+03 -0.56321846249E+02  0.14028995157E+03  0.00000000000E+00 0. -1.
        -13    1    5    5    0    0 -0.61471225277E+03  0.13886342764E+04 -0.48117420341E+03  0.15930175521E+04  0.00000000000E+00 0.  1.
          2    1    6    6  503    0 -0.31678146710E+03  0.19527647946E+03 -0.53424449114E+02  0.37594889692E+03  0.00000000000E+00 0.  1.
         -2    1    6    6    0  503 -0.15974660987E+03  0.12234541503E+03 -0.97504249269E+02  0.22359440639E+03  0.00000000000E+00 0. -1.
<mgrwt>
<rscale>  0 0.21844596E+04</rscale>
<asrwt>0</asrwt>
<pdfrwt beam="1">  1        1 0.49260595E+00 0.21844596E+04</pdfrwt>
<pdfrwt beam="2">  1       -1 0.23146836E+00 0.21844596E+04</pdfrwt>
<totfact> 0.34185308E-02</totfact>
</mgrwt>
</event>
<event>
12    1  0.1338445E-007  0.4491209E+03  0.7818608E-02  0.1027985E+00
          2   -1    0    0  501    0  0.00000000000E+00  0.00000000000E+00  0.14675820874E+04  0.14675820874E+04  0.00000000000E+00 0. -1.
         -2   -1    0    0    0  501 -0.00000000000E+00 -0.00000000000E+00 -0.15532254097E+03  0.15532254097E+03  0.00000000000E+00 0.  1.
         23    2    1    2    0    0  0.26790703131E+03  0.65887117520E+02  0.47663133440E+03  0.55776525206E+03  0.88370570820E+02 0.  0.
    5000000    2    1    2    0    0 -0.26790703131E+03 -0.65887117520E+02  0.83562821203E+03  0.10651393763E+04  0.60011006705E+03 0.  0.
         23    2    4    4    0    0  0.13728641356E+03 -0.13404978329E+03  0.14821203701E+03  0.25909670566E+03  0.91364058697E+02 0.  0.
         23    2    4    4    0    0 -0.40519344487E+03  0.68162665771E+02  0.68741617502E+03  0.80604267066E+03  0.91301218411E+02 0.  0.
          2    1    3    3  502    0  0.19077059232E+03  0.80508571808E+02  0.38458518489E+03  0.43678463053E+03  0.00000000000E+00 0. -1.
         -2    1    3    3    0  502  0.77136438987E+02 -0.14621454288E+02  0.92046149514E+02  0.12098062153E+03  0.00000000000E+00 0.  1.
         11    1    5    5    0    0  0.75956803289E+02 -0.72640933969E+02  0.13534250783E+03  0.17135850046E+03  0.00000000000E+00 0.  1.
        -11    1    5    5    0    0  0.61329610267E+02 -0.61408849322E+02  0.12869529181E+02  0.87738205201E+02  0.00000000000E+00 0. -1.
          3    1    6    6  503    0 -0.39770176734E+03  0.49626451824E+02  0.65030727143E+03  0.76389071715E+03  0.00000000000E+00 0. -1.
         -3    1    6    6    0  503 -0.74916775231E+01  0.18536213947E+02  0.37108903591E+02  0.42151953517E+02  0.00000000000E+00 0.  1.
<mgrwt>
<rscale>  0 0.44912086E+03</rscale>
<asrwt>0</asrwt>
<pdfrwt beam="1">  1        2 0.22578185E+00 0.44912086E+03</pdfrwt>
<pdfrwt beam="2">  1       -2 0.23895776E-01 0.44912086E+03</pdfrwt>
<totfact> 0.21477615E+02</totfact>
</mgrwt>
</event>
<event>
12    1  0.1338445E-007  0.3665749E+03  0.7818608E-02  0.1056010E+00
          2   -1    0    0  501    0  0.00000000000E+00  0.00000000000E+00  0.30525033700E+03  0.30525033700E+03  0.00000000000E+00 0. -1.
         -2   -1    0    0    0  501 -0.00000000000E+00 -0.00000000000E+00 -0.89102775837E+03  0.89102775837E+03  0.00000000000E+00 0.  1.
         23    2    1    2    0    0  0.88440245404E+02 -0.73876292204E+02  0.17177663262E+03  0.22307086866E+03  0.83510582396E+02 0.  0.
    5000000    2    1    2    0    0 -0.88440245404E+02  0.73876292204E+02 -0.75755405399E+03  0.97320722671E+03  0.59997064749E+03 0.  0.
         23    2    4    4    0    0  0.98929330395E+02  0.28078644206E+03 -0.45586261514E+03  0.55250017644E+03  0.93902516574E+02 0.  0.
         23    2    4    4    0    0 -0.18736957580E+03 -0.20691014986E+03 -0.30169143885E+03  0.42070705027E+03  0.89763744489E+02 0.  0.
          3    1    3    3  502    0  0.51349341320E+02 -0.88511846852E+02  0.11957419819E+03  0.15738198994E+03  0.00000000000E+00 0. -1.
         -3    1    3    3    0  502  0.37090904083E+02  0.14635554648E+02  0.52202434438E+02  0.65688878715E+02  0.00000000000E+00 0.  1.
         13    1    5    5    0    0  0.48757561375E+02  0.16235656817E+03 -0.17528837694E+03  0.24385030266E+03  0.00000000000E+00 0. -1.
        -13    1    5    5    0    0  0.50171769021E+02  0.11842987390E+03 -0.28057423821E+03  0.30864987378E+03  0.00000000000E+00 0.  1.
          2    1    6    6  503    0 -0.15929304735E+03 -0.11435883608E+03 -0.19144667266E+03  0.27405117550E+03  0.00000000000E+00 0.  1.
         -2    1    6    6    0  503 -0.28076528454E+02 -0.92551313783E+02 -0.11024476618E+03  0.14665587477E+03  0.00000000000E+00 0. -1.
<mgrwt>
<rscale>  0 0.36657489E+03</rscale>
<asrwt>0</asrwt>
<pdfrwt beam="1">  1        2 0.46961590E-01 0.36657489E+03</pdfrwt>
<pdfrwt beam="2">  1       -2 0.13708119E+00 0.36657489E+03</pdfrwt>
<totfact> 0.42686956E+01</totfact>
</mgrwt>
</event>
<event>
12    1  0.1338445E-007  0.1744230E+04  0.7818608E-02  0.8736533E-01
         -1   -1    0    0    0  501 -0.00000000000E+00  0.00000000000E+00  0.91020574223E+03  0.91020574223E+03  0.00000000000E+00 0.  1.
          1   -1    0    0  501    0  0.00000000000E+00 -0.00000000000E+00 -0.34755265233E+04  0.34755265233E+04  0.00000000000E+00 0. -1.
         23    2    1    2    0    0  0.12594523762E+04 -0.11633047889E+04 -0.99349978567E+03  0.19836365671E+04  0.90960904461E+02 0.  0.
    5000000    2    1    2    0    0 -0.12594523762E+04  0.11633047889E+04 -0.15718209954E+04  0.24020956985E+04  0.59995348410E+03 0.  0.
         23    2    4    4    0    0  0.11485091793E+02  0.13742588215E+03 -0.25189354369E+03  0.30012681666E+03  0.87223668283E+02 0.  0.
         23    2    4    4    0    0 -0.12709374680E+04  0.10258789068E+04 -0.13199274518E+04  0.21019688818E+04  0.91406363576E+02 0.  0.
          2    1    3    3  502    0  0.83049031137E+03 -0.74184882231E+03 -0.59943241031E+03  0.12646632148E+04  0.00000000000E+00 0. -1.
         -2    1    3    3    0  502  0.42896206488E+03 -0.42145596660E+03 -0.39406737536E+03  0.71897335223E+03  0.00000000000E+00 0.  1.
         13    1    5    5    0    0  0.51521162510E+01  0.74532077698E+02 -0.53456498800E+02  0.91864967054E+02  0.00000000000E+00 0.  1.
        -13    1    5    5    0    0  0.63329755424E+01  0.62893804452E+02 -0.19843704489E+03  0.20826184961E+03  0.00000000000E+00 0. -1.
          3    1    6    6  503    0 -0.87785624613E+03  0.75903670004E+03 -0.91918572759E+03  0.14804292292E+04  0.00000000000E+00 0. -1.
         -3    1    6    6    0  503 -0.39308122191E+03  0.26684220672E+03 -0.40074172416E+03  0.62153965263E+03  0.00000000000E+00 0.  1.
<mgrwt>
<rscale>  0 0.17442298E+04</rscale>
<asrwt>0</asrwt>
<pdfrwt beam="1">  1        1 0.53469639E+00 0.17442298E+04</pdfrwt>
<pdfrwt beam="2">  1       -1 0.14003165E+00 0.17442298E+04</pdfrwt>
<totfact> 0.10166368E-01</totfact>
</mgrwt>
</event>
<event>
12    1  0.1338445E-007  0.7046846E+03  0.7818608E-02  0.9709254E-01
          2   -1    0    0  501    0  0.00000000000E+00  0.00000000000E+00  0.62997207941E+03  0.62997207941E+03  0.00000000000E+00 0. -1.
         -2   -1    0    0    0  501 -0.00000000000E+00 -0.00000000000E+00 -0.12131968762E+04  0.12131968762E+04  0.00000000000E+00 0.  1.
         23    2    1    2    0    0 -0.67511993578E+03  0.17722794039E+02 -0.64210105910E+03  0.93784358451E+03  0.10562099132E+03 0.  0.
    5000000    2    1    2    0    0  0.67511993578E+03 -0.17722794039E+02  0.58876262283E+02  0.90532537113E+03  0.60003882227E+03 0.  0.
         23    2    4    4    0    0  0.64427250650E+03 -0.82856012922E+02  0.23242298099E+03  0.69574426480E+03  0.89930297458E+02 0.  0.
         23    2    4    4    0    0  0.30847429276E+02  0.65133218884E+02 -0.17354671871E+03  0.20958110632E+03  0.92800196427E+02 0.  0.
          3    1    3    3  502    0 -0.48943784124E+03  0.48676641813E+02 -0.50517234178E+03  0.70506589110E+03  0.00000000000E+00 0. -1.
         -3    1    3    3    0  502 -0.18568209454E+03 -0.30953847774E+02 -0.13692871731E+03  0.23277769341E+03  0.00000000000E+00 0.  1.
         13    1    5    5    0    0  0.23026830112E+03 -0.29448741688E+02  0.12944734794E+03  0.26579566358E+03  0.00000000000E+00 0. -1.
        -13    1    5    5    0    0  0.41400420538E+03 -0.53407271234E+02  0.10297563306E+03  0.42994860123E+03  0.00000000000E+00 0.  1.
          1    1    6    6  503    0  0.22478570986E+02  0.67378317126E+02 -0.52750470962E+02  0.88474493268E+02  0.00000000000E+00 0. -1.
         -1    1    6    6    0  503  0.83688582895E+01 -0.22450982424E+01 -0.12079624775E+03  0.12110661305E+03  0.00000000000E+00 0.  1.
<mgrwt>
<rscale>  0 0.70468463E+03</rscale>
<asrwt>0</asrwt>
<pdfrwt beam="1">  1        2 0.96918782E-01 0.70468463E+03</pdfrwt>
<pdfrwt beam="2">  1       -2 0.18664567E+00 0.70468463E+03</pdfrwt>
<totfact> 0.78138040E+00</totfact>
</mgrwt>
</event>
<event>
12    1  0.1338445E-007  0.4597869E+03  0.7818608E-02  0.1024843E+00
          2   -1    0    0  501    0  0.00000000000E+00  0.00000000000E+00  0.34323322754E+03  0.34323322754E+03  0.00000000000E+00 0. -1.
         -2   -1    0    0    0  501 -0.00000000000E+00 -0.00000000000E+00 -0.99657465444E+03  0.99657465444E+03  0.00000000000E+00 0.  1.
         23    2    1    2    0    0  0.30532064808E+03  0.29876032483E+03 -0.23326066723E+03  0.49197056551E+03  0.71736103979E+02 0.  0.
    5000000    2    1    2    0    0 -0.30532064808E+03 -0.29876032483E+03 -0.42008075967E+03  0.84783731647E+03  0.59990152586E+03 0.  0.
         23    2    4    4    0    0 -0.23329503855E+03 -0.94681122879E+02  0.92976801000E+02  0.28342089953E+03  0.91058391854E+02 0.  0.
         23    2    4    4    0    0 -0.72025609529E+02 -0.20407920195E+03 -0.51305756067E+03  0.56441641694E+03  0.92205325540E+02 0.  0.
          2    1    3    3  502    0  0.94335676239E+02  0.89301147368E+02 -0.34683004452E+02  0.13445008565E+03  0.00000000000E+00 0. -1.
         -2    1    3    3    0  502  0.21098497184E+03  0.20945917746E+03 -0.19857766278E+03  0.35752047986E+03  0.00000000000E+00 0.  1.
         11    1    5    5    0    0 -0.15130059359E+03 -0.10628028513E+03  0.66080509576E+02  0.19635173128E+03  0.00000000000E+00 0. -1.
        -11    1    5    5    0    0 -0.81994444954E+02  0.11599162254E+02  0.26896291425E+02  0.87069168255E+02  0.00000000000E+00 0.  1.
          1    1    6    6  503    0 -0.70748306821E+02 -0.20844041632E+03 -0.51453176180E+03  0.55963886925E+03  0.00000000000E+00 0. -1.
         -1    1    6    6    0  503 -0.12773027082E+01  0.43612143665E+01  0.14742011343E+01  0.47775476914E+01  0.00000000000E+00 0.  1.
<mgrwt>
<rscale>  0 0.45978690E+03</rscale>
<asrwt>0</asrwt>
<pdfrwt beam="1">  1        2 0.52805112E-01 0.45978690E+03</pdfrwt>
<pdfrwt beam="2">  1       -2 0.15331918E+00 0.45978690E+03</pdfrwt>
<totfact> 0.27775789E+01</totfact>
</mgrwt>
</event>
<event>
12    1  0.1338445E-007  0.6479587E+03  0.7818608E-02  0.9810617E-01
         -2   -1    0    0    0  501 -0.00000000000E+00  0.00000000000E+00  0.16056263129E+03  0.16056263129E+03  0.00000000000E+00 0.  1.
          2   -1    0    0  501    0  0.00000000000E+00 -0.00000000000E+00 -0.34205263286E+04  0.34205263286E+04  0.00000000000E+00 0. -1.
         23    2    1    2    0    0  0.53869918248E+03  0.27735007062E+03 -0.16353174580E+04  0.17462605979E+04  0.89682867041E+02 0.  0.
    5000000    2    1    2    0    0 -0.53869918248E+03 -0.27735007062E+03 -0.16246462393E+04  0.18348283619E+04  0.59999987000E+03 0.  0.
         23    2    4    4    0    0 -0.21248973784E+03 -0.28795368636E+03 -0.13503870769E+04  0.14002029129E+04  0.94624128029E+02 0.  0.
         23    2    4    4    0    0 -0.32620944465E+03  0.10603615735E+02 -0.27425916240E+03  0.43462544905E+03  0.84594056295E+02 0.  0.
          3    1    3    3  502    0  0.46093349222E+03  0.24123121681E+03 -0.14810610558E+04  0.15697751543E+04  0.00000000000E+00 0. -1.
         -3    1    3    3    0  502  0.77765690263E+02  0.36118853814E+02 -0.15425640218E+03  0.17648544358E+03  0.00000000000E+00 0.  1.
         11    1    5    5    0    0 -0.14918581873E+03 -0.16504394376E+03 -0.97784419063E+03  0.10028335719E+04  0.00000000000E+00 0.  1.
        -11    1    5    5    0    0 -0.63303919107E+02 -0.12290974260E+03 -0.37254288627E+03  0.39736934093E+03  0.00000000000E+00 0. -1.
          2    1    6    6  503    0 -0.99006984579E+02  0.23056986639E+02 -0.43574951941E+02  0.11060191709E+03  0.00000000000E+00 0. -1.
         -2    1    6    6    0  503 -0.22720246007E+03 -0.12453370904E+02 -0.23068421046E+03  0.32402353195E+03  0.00000000000E+00 0.  1.
<mgrwt>
<rscale>  0 0.64795867E+03</rscale>
<asrwt>0</asrwt>
<pdfrwt beam="1">  1        2 0.52623482E+00 0.64795867E+03</pdfrwt>
<pdfrwt beam="2">  1       -2 0.24701943E-01 0.64795867E+03</pdfrwt>
<totfact> 0.14829238E+01</totfact>
</mgrwt>
</event>
<event>
12    1  0.1338445E-007  0.4640938E+03  0.7818608E-02  0.1023601E+00
         -2   -1    0    0    0  501 -0.00000000000E+00  0.00000000000E+00  0.92912882504E+03  0.92912882504E+03  0.00000000000E+00 0.  1.
          2   -1    0    0  501    0  0.00000000000E+00 -0.00000000000E+00 -0.69505117485E+03  0.69505117485E+03  0.00000000000E+00 0. -1.
         23    2    1    2    0    0  0.40444484504E+03 -0.11574655736E+03 -0.44912205228E+03  0.62227229448E+03  0.92408291906E+02 0.  0.
    5000000    2    1    2    0    0 -0.40444484504E+03  0.11574655736E+03  0.68319970247E+03  0.10019077054E+04  0.60007026131E+03 0.  0.
         23    2    4    4    0    0 -0.83939608860E+02 -0.63302476256E+02 -0.71979505921E+02  0.15723711079E+03  0.92137930848E+02 0.  0.
         23    2    4    4    0    0 -0.32050523618E+03  0.17904903361E+03  0.75517920839E+03  0.84467059463E+03  0.91600293646E+02 0.  0.
          3    1    3    3  502    0  0.31255792357E+03 -0.90399563504E+02 -0.39812967224E+03  0.51417095657E+03  0.00000000000E+00 0. -1.
         -3    1    3    3    0  502  0.91886921468E+02 -0.25346993854E+02 -0.50992380042E+02  0.10810133790E+03  0.00000000000E+00 0.  1.
         11    1    5    5    0    0 -0.11652380752E+02 -0.64955285850E+02 -0.45840991514E+02  0.80351500546E+02  0.00000000000E+00 0. -1.
        -11    1    5    5    0    0 -0.72287228108E+02  0.16528095939E+01 -0.26138514407E+02  0.76885610243E+02  0.00000000000E+00 0.  1.
          3    1    6    6  503    0 -0.28017684726E+03  0.14057536270E+03  0.69623674781E+03  0.76354836607E+03  0.00000000000E+00 0. -1.
         -3    1    6    6    0  503 -0.40328388922E+02  0.38473670916E+02  0.58942460583E+02  0.81122228559E+02  0.00000000000E+00 0.  1.
<mgrwt>
<rscale>  0 0.46409381E+03</rscale>
<asrwt>0</asrwt>
<pdfrwt beam="1">  1        2 0.10693095E+00 0.46409381E+03</pdfrwt>
<pdfrwt beam="2">  1       -2 0.14294290E+00 0.46409381E+03</pdfrwt>
<totfact> 0.14802601E+01</totfact>
</mgrwt>
</event>
<event>
12    1  0.1338445E-007  0.4675175E+03  0.7818608E-02  0.1022623E+00
         -2   -1    0    0    0  501 -0.00000000000E+00  0.00000000000E+00  0.18197717543E+03  0.18197717543E+03  0.00000000000E+00 0.  1.
          2   -1    0    0  501    0  0.00000000000E+00 -0.00000000000E+00 -0.18687445247E+04  0.18687445247E+04  0.00000000000E+00 0. -1.
         23    2    1    2    0    0  0.33079709411E+03 -0.19962990012E+03 -0.92791251010E+03  0.10090036866E+04  0.88249638394E+02 0.  0.
    5000000    2    1    2    0    0 -0.33079709411E+03  0.19962990012E+03 -0.75885483914E+03  0.10417180135E+04  0.60003078110E+03 0.  0.
         23    2    4    4    0    0  0.79185729424E+02  0.51996091163E+02  0.29023064968E+02  0.13669345526E+03  0.94174248973E+02 0.  0.
         23    2    4    4    0    0 -0.40998282353E+03  0.14763380896E+03 -0.78787790411E+03  0.90502455824E+03  0.91848800210E+02 0.  0.
          4    1    3    3  502    0  0.87107891508E+02 -0.97414924743E+02 -0.34769604367E+03  0.37144311962E+03  0.00000000000E+00 0. -1.
         -4    1    3    3    0  502  0.24368920260E+03 -0.10221497538E+03 -0.58021646642E+03  0.63756056698E+03  0.00000000000E+00 0.  1.
         13    1    5    5    0    0  0.36309945916E+02  0.21612075771E+02 -0.34286597325E+02  0.54415666381E+02  0.00000000000E+00 0. -1.
        -13    1    5    5    0    0  0.42875783507E+02  0.30384015392E+02  0.63309662293E+02  0.82277788877E+02  0.00000000000E+00 0.  1.
          2    1    6    6  503    0 -0.22171836423E+03  0.31127692509E+02 -0.39023920604E+03  0.44990510578E+03  0.00000000000E+00 0. -1.
         -2    1    6    6    0  503 -0.18826445930E+03  0.11650611645E+03 -0.39763869807E+03  0.45511945246E+03  0.00000000000E+00 0.  1.
<mgrwt>
<rscale>  0 0.46751754E+03</rscale>
<asrwt>0</asrwt>
<pdfrwt beam="1">  1        2 0.28749915E+00 0.46751754E+03</pdfrwt>
<pdfrwt beam="2">  1       -2 0.27996489E-01 0.46751754E+03</pdfrwt>
<totfact> 0.97821925E+01</totfact>
</mgrwt>
</event>
<event>
12    1  0.1338445E-007  0.6674664E+03  0.7818608E-02  0.9774546E-01
          2   -1    0    0  501    0  0.00000000000E+00  0.00000000000E+00  0.67226491209E+03  0.67226491209E+03  0.00000000000E+00 0. -1.
         -2   -1    0    0    0  501 -0.00000000000E+00 -0.00000000000E+00 -0.75324284636E+03  0.75324284636E+03  0.00000000000E+00 0.  1.
         23    2    1    2    0    0  0.32491120509E+03 -0.45928263413E+03  0.11437419933E+03  0.58003056688E+03  0.82741596803E+02 0.  0.
    5000000    2    1    2    0    0 -0.32491120509E+03  0.45928263413E+03 -0.19535213360E+03  0.84547719157E+03  0.60013448173E+03 0.  0.
         23    2    4    4    0    0 -0.43662151014E+03  0.19188848276E+03  0.19455912302E+00  0.48406808856E+03  0.82839263527E+02 0.  0.
         23    2    4    4    0    0  0.11171030505E+03  0.26739415137E+03 -0.19554669272E+03  0.36140910301E+03  0.91647183615E+02 0.  0.
          1    1    3    3  502    0  0.83168329928E+02 -0.14088246137E+03  0.69489381841E+02  0.17774592320E+03  0.00000000000E+00 0.  1.
         -1    1    3    3    0  502  0.24174287516E+03 -0.31840017276E+03  0.44884817487E+02  0.40228464369E+03  0.00000000000E+00 0. -1.
         13    1    5    5    0    0 -0.62578938727E+02  0.52280473339E+02 -0.21179420483E+02  0.84249268939E+02  0.00000000000E+00 0. -1.
        -13    1    5    5    0    0 -0.37404257141E+03  0.13960800942E+03  0.21373979606E+02  0.39981881962E+03  0.00000000000E+00 0.  1.
          1    1    6    6  503    0  0.59662700597E+02  0.17268433357E+03 -0.17174386177E+03  0.25074981746E+03  0.00000000000E+00 0. -1.
         -1    1    6    6    0  503  0.52047604450E+02  0.94709817796E+02 -0.23802830954E+02  0.11065928554E+03  0.00000000000E+00 0.  1.
<mgrwt>
<rscale>  0 0.66746639E+03</rscale>
<asrwt>0</asrwt>
<pdfrwt beam="1">  1        2 0.10342537E+00 0.66746639E+03</pdfrwt>
<pdfrwt beam="2">  1       -2 0.11588351E+00 0.66746639E+03</pdfrwt>
<totfact> 0.25480195E+01</totfact>
</mgrwt>
</event>
<event>
12    1  0.1338445E-007  0.4310041E+03  0.7818608E-02  0.1033543E+00
         -2   -1    0    0    0  501 -0.00000000000E+00  0.00000000000E+00  0.90512752526E+03  0.90512752526E+03  0.00000000000E+00 0.  1.
          2   -1    0    0  501    0  0.00000000000E+00 -0.00000000000E+00 -0.36869649631E+03  0.36869649631E+03  0.00000000000E+00 0. -1.
         23    2    1    2    0    0 -0.31591739813E+03  0.24787133949E+03  0.31556712935E+03  0.51889215930E+03  0.91773942224E+02 0.  0.
    5000000    2    1    2    0    0  0.31591739813E+03 -0.24787133949E+03  0.22086389960E+03  0.75493186228E+03  0.59991436985E+03 0.  0.
         23    2    4    4    0    0  0.68638916952E+02 -0.95049712875E+01 -0.18358760497E+03  0.21651903928E+03  0.91511967907E+02 0.  0.
         23    2    4    4    0    0  0.24727848118E+03 -0.23836636820E+03  0.40445150457E+03  0.53841282300E+03  0.91335511602E+02 0.  0.
          3    1    3    3  502    0 -0.15086482309E+03  0.17119911333E+03  0.19898899665E+03  0.30276385524E+03  0.00000000000E+00 0. -1.
         -3    1    3    3    0  502 -0.16505257504E+03  0.76672226163E+02  0.11657813270E+03  0.21612830406E+03  0.00000000000E+00 0.  1.
         11    1    5    5    0    0  0.61076937093E+02 -0.34892000353E+02 -0.67646672515E+02  0.97590554029E+02  0.00000000000E+00 0.  1.
        -11    1    5    5    0    0  0.75619798583E+01  0.25387029066E+02 -0.11594093246E+03  0.11892848525E+03  0.00000000000E+00 0. -1.
          1    1    6    6  503    0  0.24915141368E+02 -0.75126296997E+02  0.79815286520E+02  0.11240642656E+03  0.00000000000E+00 0. -1.
         -1    1    6    6    0  503  0.22236333981E+03 -0.16324007120E+03  0.32463621805E+03  0.42600639644E+03  0.00000000000E+00 0.  1.
<mgrwt>
<rscale>  0 0.43100411E+03</rscale>
<asrwt>0</asrwt>
<pdfrwt beam="1">  1        2 0.56722538E-01 0.43100411E+03</pdfrwt>
<pdfrwt beam="2">  1       -2 0.13925039E+00 0.43100411E+03</pdfrwt>
<totfact> 0.33075368E+01</totfact>
</mgrwt>
</event>
<event>
12    1  0.1338445E-007  0.4490669E+03  0.7818608E-02  0.1028001E+00
          1   -1    0    0  501    0  0.00000000000E+00  0.00000000000E+00  0.16497545732E+04  0.16497545732E+04  0.00000000000E+00 0. -1.
         -1   -1    0    0    0  501 -0.00000000000E+00 -0.00000000000E+00 -0.22182133413E+03  0.22182133413E+03  0.00000000000E+00 0.  1.
         23    2    1    2    0    0 -0.41917336360E+03 -0.64490816103E+02  0.30910676519E+03  0.53305980578E+03  0.93490053698E+02 0.  0.
    5000000    2    1    2    0    0  0.41917336360E+03  0.64490816103E+02  0.11188264738E+04  0.13385161015E+04  0.59998941769E+03 0.  0.
         23    2    4    4    0    0  0.35942360061E+03  0.65097033557E+02  0.22586008901E+03  0.43913686818E+03  0.91681299798E+02 0.  0.
         23    2    4    4    0    0  0.59749762988E+02 -0.60621745377E+00  0.89296638483E+03  0.89937923334E+03  0.89014825959E+02 0.  0.
          2    1    3    3  502    0 -0.30238006190E+03 -0.78340310411E+02  0.25666262469E+03  0.40428530642E+03  0.00000000000E+00 0. -1.
         -2    1    3    3    0  502 -0.11679330170E+03  0.13849494307E+02  0.52444140498E+02  0.12877449936E+03  0.00000000000E+00 0.  1.
         11    1    5    5    0    0  0.26949459257E+03  0.14773323631E+02  0.13513779501E+03  0.30184070328E+03  0.00000000000E+00 0.  1.
        -11    1    5    5    0    0  0.89929008044E+02  0.50323709926E+02  0.90722294000E+02  0.13729616490E+03  0.00000000000E+00 0. -1.
          4    1    6    6  503    0 -0.51778254395E+01  0.24912788502E+02  0.47083914950E+03  0.47152620458E+03  0.00000000000E+00 0. -1.
         -4    1    6    6    0  503  0.64927588427E+02 -0.25519005956E+02  0.42212723533E+03  0.42785302875E+03  0.00000000000E+00 0.  1.
<mgrwt>
<rscale>  0 0.44906693E+03</rscale>
<asrwt>0</asrwt>
<pdfrwt beam="1">  1        1 0.25380839E+00 0.44906693E+03</pdfrwt>
<pdfrwt beam="2">  1       -1 0.34126360E-01 0.44906693E+03</pdfrwt>
<totfact> 0.45139394E+01</totfact>
</mgrwt>
</event>
<event>
12    1  0.1338445E-007  0.5580413E+03  0.7818608E-02  0.9996496E-01
          4   -1    0    0  501    0  0.00000000000E+00  0.00000000000E+00  0.70808887385E+03  0.70808887385E+03  0.00000000000E+00 0. -1.
         -4   -1    0    0    0  501 -0.00000000000E+00 -0.00000000000E+00 -0.95702528023E+03  0.95702528023E+03  0.00000000000E+00 0.  1.
         23    2    1    2    0    0 -0.20327480411E+03  0.34892259520E+03 -0.69986028472E+03  0.81287065737E+03  0.88806891965E+02 0.  0.
    5000000    2    1    2    0    0  0.20327480411E+03 -0.34892259520E+03  0.45092387834E+03  0.85224349672E+03  0.59993250471E+03 0.  0.
         23    2    4    4    0    0 -0.15644730000E+03 -0.29059945746E+03  0.15863700108E+03  0.37784195766E+03  0.93139918979E+02 0.  0.
         23    2    4    4    0    0  0.35972210411E+03 -0.58323137738E+02  0.29228687726E+03  0.47440153906E+03  0.82605212044E+02 0.  0.
          3    1    3    3  502    0 -0.20227796027E+03  0.30209796726E+03 -0.64775790442E+03  0.74281212818E+03  0.00000000000E+00 0. -1.
         -3    1    3    3    0  502 -0.99684383860E+00  0.46824627940E+02 -0.52102380297E+02  0.70058529188E+02  0.00000000000E+00 0.  1.
         11    1    5    5    0    0 -0.14681902141E+03 -0.19973640060E+03  0.13963829122E+03  0.28451591721E+03  0.00000000000E+00 0. -1.
        -11    1    5    5    0    0 -0.96282785910E+01 -0.90863056855E+02  0.18998709858E+02  0.93326040449E+02  0.00000000000E+00 0.  1.
          2    1    6    6  503    0  0.15883061854E+03 -0.45016350520E+02  0.17850983547E+03  0.24314480986E+03  0.00000000000E+00 0.  1.
         -2    1    6    6    0  503  0.20089148557E+03 -0.13306787218E+02  0.11377704179E+03  0.23125672920E+03  0.00000000000E+00 0. -1.
<mgrwt>
<rscale>  0 0.55804128E+03</rscale>
<asrwt>0</asrwt>
<pdfrwt beam="1">  1        4 0.10893675E+00 0.55804128E+03</pdfrwt>
<pdfrwt beam="2">  1       -4 0.14723466E+00 0.55804128E+03</pdfrwt>
<totfact> 0.41211868E-01</totfact>
</mgrwt>
</event>
<event>
12    1  0.1338445E-007  0.2186604E+04  0.7818608E-02  0.8524025E-01
         -2   -1    0    0    0  501 -0.00000000000E+00  0.00000000000E+00  0.25063523953E+04  0.25063523953E+04  0.00000000000E+00 0.  1.
          2   -1    0    0  501    0  0.00000000000E+00 -0.00000000000E+00 -0.27990366382E+04  0.27990366382E+04  0.00000000000E+00 0. -1.
         23    2    1    2    0    0  0.18564287431E+04  0.11489297200E+04 -0.15839911603E+04  0.26988974038E+04  0.93016239192E+02 0.  0.
    5000000    2    1    2    0    0 -0.18564287431E+04 -0.11489297200E+04  0.12913069173E+04  0.26064916297E+04  0.59996490010E+03 0.  0.
         23    2    4    4    0    0 -0.16534114823E+04 -0.10662922494E+04  0.13132046006E+04  0.23671706056E+04  0.90783600516E+02 0.  0.
         23    2    4    4    0    0 -0.20301726076E+03 -0.82637470651E+02 -0.21897683290E+02  0.23932102409E+03  0.93541885359E+02 0.  0.
          3    1    3    3  502    0  0.14191221702E+04  0.91423079014E+03 -0.12536639235E+04  0.21027122734E+04  0.00000000000E+00 0. -1.
         -3    1    3    3    0  502  0.43730657284E+03  0.23469892989E+03 -0.33032723678E+03  0.59618513039E+03  0.00000000000E+00 0.  1.
         11    1    5    5    0    0 -0.48788326788E+02 -0.49917143610E+02  0.54183178475E+02  0.88361976475E+02  0.00000000000E+00 0.  1.
        -11    1    5    5    0    0 -0.16046231555E+04 -0.10163751058E+04  0.12590214221E+04  0.22788086291E+04  0.00000000000E+00 0. -1.
          1    1    6    6  503    0 -0.17806043546E+03 -0.76861512446E+02 -0.51015658670E+02  0.20053879475E+03  0.00000000000E+00 0. -1.
         -1    1    6    6    0  503 -0.24956825305E+02 -0.57759582055E+01  0.29117975380E+02  0.38782229342E+02  0.00000000000E+00 0.  1.
<mgrwt>
<rscale>  0 0.21866038E+04</rscale>
<asrwt>0</asrwt>
<pdfrwt beam="1">  1        2 0.43062102E+00 0.21866038E+04</pdfrwt>
<pdfrwt beam="2">  1       -2 0.38559268E+00 0.21866038E+04</pdfrwt>
<totfact> 0.18414826E-02</totfact>
</mgrwt>
</event>
<event>
12    1  0.1459802E-007  0.1043057E+04  0.7818608E-02  0.9262542E-01
         -2   -1    0    0    0  501 -0.00000000000E+00  0.00000000000E+00  0.13390092834E+04  0.13390092834E+04  0.00000000000E+00 0.  1.
          2   -1    0    0  501    0  0.00000000000E+00 -0.00000000000E+00 -0.98290261611E+03  0.98290261611E+03  0.00000000000E+00 0. -1.
         23    2    1    2    0    0 -0.43085892359E+03  0.85922525712E+03 -0.30184600184E+03  0.10116059494E+04  0.91258608411E+02 0.  0.
    5000000    2    1    2    0    0  0.43085892359E+03 -0.85922525712E+03  0.65795266917E+03  0.13103059501E+04  0.60007708962E+03 0.  0.
         23    2    4    4    0    0  0.29574825585E+03 -0.63006834417E+02  0.13123426012E+03  0.34187688189E+03  0.90666859012E+02 0.  0.
         23    2    4    4    0    0  0.13511066775E+03 -0.79621842271E+03  0.52671840905E+03  0.96842906821E+03  0.90575430066E+02 0.  0.
          2    1    3    3  502    0 -0.19134192583E+03  0.29029053418E+03 -0.12516922058E+03  0.36952355892E+03  0.00000000000E+00 0. -1.
         -2    1    3    3    0  502 -0.23951699776E+03  0.56893472295E+03 -0.17667678126E+03  0.64208239053E+03  0.00000000000E+00 0.  1.
         11    1    5    5    0    0  0.15267567260E+03  0.94771223646E+01  0.84811231777E+02  0.17490746665E+03  0.00000000000E+00 0. -1.
        -11    1    5    5    0    0  0.14307258324E+03 -0.72483956782E+02  0.46423028340E+02  0.16696941524E+03  0.00000000000E+00 0.  1.
          2    1    6    6  503    0  0.59257205691E+02 -0.40051942543E+03  0.31698510486E+03  0.51420500121E+03  0.00000000000E+00 0. -1.
         -2    1    6    6    0  503  0.75853462058E+02 -0.39569899728E+03  0.20973330419E+03  0.45422406700E+03  0.00000000000E+00 0.  1.
<mgrwt>
<rscale>  0 0.10430569E+04</rscale>
<asrwt>0</asrwt>
<pdfrwt beam="1">  1        2 0.15121579E+00 0.10430569E+04</pdfrwt>
<pdfrwt beam="2">  1       -2 0.20600143E+00 0.10430569E+04</pdfrwt>
<totfact> 0.31020666E+00</totfact>
</mgrwt>
</event>
<event>
12    1  0.1338445E-007  0.1999403E+04  0.7818608E-02  0.8606900E-01
          2   -1    0    0  501    0  0.00000000000E+00  0.00000000000E+00  0.22948494714E+04  0.22948494714E+04  0.00000000000E+00 0. -1.
         -2   -1    0    0    0  501 -0.00000000000E+00 -0.00000000000E+00 -0.17855782801E+04  0.17855782801E+04  0.00000000000E+00 0.  1.
         23    2    1    2    0    0  0.55223981687E+03 -0.18985242458E+04  0.17249353058E+03  0.19868438059E+04  0.91821368509E+02 0.  0.
    5000000    2    1    2    0    0 -0.55223981687E+03  0.18985242458E+04  0.33677766068E+03  0.20935839456E+04  0.60025945806E+03 0.  0.
         23    2    4    4    0    0 -0.50961156762E+03  0.18248083659E+04  0.41790156622E+03  0.19422629951E+04  0.90079413741E+02 0.  0.
         23    2    4    4    0    0 -0.42628249246E+02  0.73715879899E+02 -0.81123905547E+02  0.15132095047E+03  0.95214197555E+02 0.  0.
          1    1    3    3  502    0  0.18053132433E+03 -0.65818125080E+03  0.17050561844E+02  0.68270406446E+03  0.00000000000E+00 0. -1.
         -1    1    3    3    0  502  0.37170849253E+03 -0.12403429950E+04  0.15544296874E+03  0.13041397415E+04  0.00000000000E+00 0.  1.
         11    1    5    5    0    0 -0.31331047810E+03  0.95556313975E+03  0.22608550586E+03  0.10307177236E+04  0.00000000000E+00 0. -1.
        -11    1    5    5    0    0 -0.19630108952E+03  0.86924522620E+03  0.19181606036E+03  0.91154527152E+03  0.00000000000E+00 0.  1.
          3    1    6    6  503    0 -0.55638018793E+02  0.88806492083E+02 -0.79093424208E+02  0.13129338111E+03  0.00000000000E+00 0. -1.
         -3    1    6    6    0  503  0.13009769547E+02 -0.15090612184E+02 -0.20304813393E+01  0.20027569354E+02  0.00000000000E+00 0.  1.
<mgrwt>
<rscale>  0 0.19994028E+04</rscale>
<asrwt>0</asrwt>
<pdfrwt beam="1">  1        2 0.35305377E+00 0.19994028E+04</pdfrwt>
<pdfrwt beam="2">  1       -2 0.27470435E+00 0.19994028E+04</pdfrwt>
<totfact> 0.18421674E-01</totfact>
</mgrwt>
</event>
<event>
12    1  0.1338445E-007  0.1445548E+04  0.7818608E-02  0.8921493E-01
         -1   -1    0    0    0  501 -0.00000000000E+00  0.00000000000E+00  0.75013297136E+03  0.75013297136E+03  0.00000000000E+00 0.  1.
          1   -1    0    0  501    0  0.00000000000E+00 -0.00000000000E+00 -0.29194426914E+04  0.29194426914E+04  0.00000000000E+00 0. -1.
         23    2    1    2    0    0  0.10382655417E+03  0.13816289313E+04 -0.14051634289E+04  0.19773709143E+04  0.12582930284E+03 0.  0.
    5000000    2    1    2    0    0 -0.10382655417E+03 -0.13816289313E+04 -0.76414629117E+03  0.16922047485E+04  0.59996574853E+03 0.  0.
         23    2    4    4    0    0  0.22036026170E+02  0.17978451934E+02 -0.23335218457E+02  0.10101925029E+03  0.94082651566E+02 0.  0.
         23    2    4    4    0    0 -0.12586258034E+03 -0.13996073832E+04 -0.74081107271E+03  0.15911854982E+04  0.91258029504E+02 0.  0.
          3    1    3    3  502    0  0.43491439110E+01  0.38858767607E+03 -0.32360651943E+03  0.50570789638E+03  0.00000000000E+00 0. -1.
         -3    1    3    3    0  502  0.99477410262E+02  0.99304125525E+03 -0.10815569095E+04  0.14716630179E+04  0.00000000000E+00 0.  1.
         11    1    5    5    0    0 -0.18711182518E+02 -0.29394338763E+02 -0.15164121799E+02  0.38001132779E+02  0.00000000000E+00 0. -1.
        -11    1    5    5    0    0  0.40747208688E+02  0.47372790697E+02 -0.81710966576E+01  0.63018117513E+02  0.00000000000E+00 0.  1.
          3    1    6    6  503    0 -0.41859093108E+02 -0.86163649375E+03 -0.42378416269E+03  0.96112571893E+03  0.00000000000E+00 0.  1.
         -3    1    6    6    0  503 -0.84003487236E+02 -0.53797088949E+03 -0.31702691002E+03  0.63005977930E+03  0.00000000000E+00 0. -1.
<mgrwt>
<rscale>  0 0.14455483E+04</rscale>
<asrwt>0</asrwt>
<pdfrwt beam="1">  1        1 0.44914504E+00 0.14455483E+04</pdfrwt>
<pdfrwt beam="2">  1       -1 0.11540507E+00 0.14455483E+04</pdfrwt>
<totfact> 0.44798132E-01</totfact>
</mgrwt>
</event>
<event>
12    1  0.1338445E-007  0.5111822E+03  0.7818608E-02  0.1010901E+00
         -2   -1    0    0    0  501 -0.00000000000E+00  0.00000000000E+00  0.49199886212E+03  0.49199886212E+03  0.00000000000E+00 0.  1.
          2   -1    0    0  501    0  0.00000000000E+00 -0.00000000000E+00 -0.10938932297E+04  0.10938932297E+04  0.00000000000E+00 0. -1.
         23    2    1    2    0    0 -0.25110864367E+03  0.31882963285E+03 -0.73968878994E+03  0.84855901894E+03  0.90581548553E+02 0.  0.
    5000000    2    1    2    0    0  0.25110864367E+03 -0.31882963285E+03  0.13779442237E+03  0.73733307288E+03  0.59997072580E+03 0.  0.
         23    2    4    4    0    0  0.15587970544E+02 -0.35662216852E+03 -0.10662677284E+03  0.38354319584E+03  0.91179814007E+02 0.  0.
         23    2    4    4    0    0  0.23552067313E+03  0.37792535664E+02  0.24442119521E+03  0.35378987705E+03  0.92343344168E+02 0.  0.
          3    1    3    3  502    0 -0.56714235990E+02  0.43322685120E+02 -0.76791816731E+02  0.10483483546E+03  0.00000000000E+00 0. -1.
         -3    1    3    3    0  502 -0.19439440768E+03  0.27550694773E+03 -0.66289697321E+03  0.74372418347E+03  0.00000000000E+00 0.  1.
         11    1    5    5    0    0  0.53585827223E+02 -0.20527786764E+03 -0.68062277126E+02  0.22280690607E+03  0.00000000000E+00 0. -1.
        -11    1    5    5    0    0 -0.37997856680E+02 -0.15134430087E+03 -0.38564495717E+02  0.16073628977E+03  0.00000000000E+00 0.  1.
          1    1    6    6  503    0  0.10130067541E+03  0.45762890138E+02  0.62342098966E+02  0.12744648389E+03  0.00000000000E+00 0. -1.
         -1    1    6    6    0  503  0.13421999771E+03 -0.79703544739E+01  0.18207909624E+03  0.22634339316E+03  0.00000000000E+00 0.  1.
<mgrwt>
<rscale>  0 0.51118225E+03</rscale>
<asrwt>0</asrwt>
<pdfrwt beam="1">  1        2 0.16829126E+00 0.51118225E+03</pdfrwt>
<pdfrwt beam="2">  1       -2 0.75692135E-01 0.51118225E+03</pdfrwt>
<totfact> 0.35963771E+01</totfact>
</mgrwt>
</event>
<event>
12    1  0.1338445E-007  0.8812227E+03  0.7818608E-02  0.9449363E-01
         -2   -1    0    0    0  501 -0.00000000000E+00  0.00000000000E+00  0.38848018824E+03  0.38848018824E+03  0.00000000000E+00 0. -1.
          2   -1    0    0  501    0  0.00000000000E+00 -0.00000000000E+00 -0.25228571867E+04  0.25228571867E+04  0.00000000000E+00 0.  1.
         23    2    1    2    0    0  0.74811539144E+03  0.34372551285E+03 -0.44942451715E+03  0.94232174945E+03  0.90354943310E+02 0.  0.
    5000000    2    1    2    0    0 -0.74811539144E+03 -0.34372551285E+03 -0.16849524813E+04  0.19690156255E+04  0.60011149134E+03 0.  0.
         23    2    4    4    0    0 -0.28200727252E+03 -0.36641894600E+03 -0.12019514244E+04  0.12910541456E+04  0.91338023084E+02 0.  0.
         23    2    4    4    0    0 -0.46610811892E+03  0.22693433144E+02 -0.48300105693E+03  0.67796147993E+03  0.92574169391E+02 0.  0.
          4    1    3    3  502    0  0.56286565049E+03  0.23043135094E+03 -0.36510068017E+03  0.70937638434E+03  0.00000000000E+00 0. -1.
         -4    1    3    3    0  502  0.18524974095E+03  0.11329416191E+03 -0.84323836985E+02  0.23294536512E+03  0.00000000000E+00 0.  1.
         13    1    5    5    0    0 -0.19512413698E+03 -0.22367938069E+03 -0.65439327421E+03  0.71856555129E+03  0.00000000000E+00 0. -1.
        -13    1    5    5    0    0 -0.86883135541E+02 -0.14273956530E+03 -0.54755815017E+03  0.57248859426E+03  0.00000000000E+00 0.  1.
          4    1    6    6  503    0 -0.31224092249E+03  0.51962594454E+02 -0.28894725546E+03  0.42858490564E+03  0.00000000000E+00 0.  1.
         -4    1    6    6    0  503 -0.15386719643E+03 -0.29269161310E+02 -0.19405380147E+03  0.24937657429E+03  0.00000000000E+00 0. -1.
<mgrwt>
<rscale>  0 0.88122268E+03</rscale>
<asrwt>0</asrwt>
<pdfrwt beam="1">  1        2 0.38813189E+00 0.88122268E+03</pdfrwt>
<pdfrwt beam="2">  1       -2 0.59766180E-01 0.88122268E+03</pdfrwt>
<totfact> 0.90663589E+00</totfact>
</mgrwt>
</event>
<event>
12    1  0.1338445E-007  0.7165914E+03  0.7818608E-02  0.9689272E-01
          2   -1    0    0  501    0  0.00000000000E+00  0.00000000000E+00  0.23804225332E+04  0.23804225332E+04  0.00000000000E+00 0. -1.
         -2   -1    0    0    0  501 -0.00000000000E+00 -0.00000000000E+00 -0.53793802213E+03  0.53793802213E+03  0.00000000000E+00 0.  1.
         23    2    1    2    0    0 -0.51497188332E+03  0.29915508687E+03  0.19729689968E+04  0.20629408418E+04  0.91806578120E+02 0.  0.
    5000000    2    1    2    0    0  0.51497188332E+03 -0.29915508687E+03 -0.13048448578E+03  0.85541971349E+03  0.60002239841E+03 0.  0.
         23    2    4    4    0    0 -0.14474603968E+02 -0.28804895490E+03 -0.94773322781E+02  0.31710659893E+03  0.91612760004E+02 0.  0.
         23    2    4    4    0    0  0.52944648728E+03 -0.11106131978E+02 -0.35711163003E+02  0.53831311457E+03  0.89826460953E+02 0.  0.
          1    1    3    3  502    0 -0.22294783280E+03  0.77870444788E+02  0.78527497240E+03  0.82001605143E+03  0.00000000000E+00 0. -1.
         -1    1    3    3    0  502 -0.29202405051E+03  0.22128464209E+03  0.11876940244E+04  0.12429247904E+04  0.00000000000E+00 0.  1.
         13    1    5    5    0    0  0.31041291666E+02 -0.63572194101E+02 -0.41241799382E+02  0.81889386781E+02  0.00000000000E+00 0. -1.
        -13    1    5    5    0    0 -0.45515895634E+02 -0.22447676080E+03 -0.53531523399E+02  0.23521721215E+03  0.00000000000E+00 0.  1.
          3    1    6    6  503    0  0.19170693528E+03 -0.21734219937E+02 -0.52625149048E+02  0.19998332846E+03  0.00000000000E+00 0. -1.
         -3    1    6    6    0  503  0.33773955200E+03  0.10628087959E+02  0.16913986045E+02  0.33832978610E+03  0.00000000000E+00 0.  1.
<mgrwt>
<rscale>  0 0.71659137E+03</rscale>
<asrwt>0</asrwt>
<pdfrwt beam="1">  1        2 0.36621884E+00 0.71659137E+03</pdfrwt>
<pdfrwt beam="2">  1       -2 0.82759697E-01 0.71659137E+03</pdfrwt>
<totfact> 0.54968453E+00</totfact>
</mgrwt>
</event>
<event>
12    1  0.1338445E-007  0.9927713E+03  0.7818608E-02  0.9316509E-01
         -1   -1    0    0    0  501 -0.00000000000E+00  0.00000000000E+00  0.73576622448E+03  0.73576622448E+03  0.00000000000E+00 0.  1.
          1   -1    0    0  501    0  0.00000000000E+00 -0.00000000000E+00 -0.15769977762E+04  0.15769977762E+04  0.00000000000E+00 0. -1.
         23    2    1    2    0    0  0.65497174475E+03  0.73093828021E+03 -0.23778679369E+03  0.10137903994E+04  0.89272945131E+02 0.  0.
    5000000    2    1    2    0    0 -0.65497174475E+03 -0.73093828021E+03 -0.60344475801E+03  0.12989736013E+04  0.59994006782E+03 0.  0.
         23    2    4    4    0    0 -0.29708176249E+03 -0.22422087403E+03 -0.54938819878E+03  0.66970571658E+03  0.90253974456E+02 0.  0.
         23    2    4    4    0    0 -0.35788998226E+03 -0.50671740618E+03 -0.54056559227E+02  0.62926788470E+03  0.90599061813E+02 0.  0.
          2    1    3    3  502    0  0.18246853662E+03  0.18475463083E+03 -0.10171294613E+03  0.27888091343E+03  0.00000000000E+00 0. -1.
         -2    1    3    3    0  502  0.47250320813E+03  0.54618364938E+03 -0.13607384756E+03  0.73490948595E+03  0.00000000000E+00 0.  1.
         11    1    5    5    0    0 -0.14472569999E+03 -0.70982812014E+02 -0.29287936191E+03  0.33430885192E+03  0.00000000000E+00 0. -1.
        -11    1    5    5    0    0 -0.15235606250E+03 -0.15323806202E+03 -0.25650883687E+03  0.33539686466E+03  0.00000000000E+00 0.  1.
          2    1    6    6  503    0 -0.24266819353E+03 -0.26942994387E+03 -0.18194206580E+02  0.36305836440E+03  0.00000000000E+00 0. -1.
         -2    1    6    6    0  503 -0.11522178873E+03 -0.23728746230E+03 -0.35862352648E+02  0.26620952031E+03  0.00000000000E+00 0.  1.
<mgrwt>
<rscale>  0 0.99277128E+03</rscale>
<asrwt>0</asrwt>
<pdfrwt beam="1">  1        1 0.24261504E+00 0.99277128E+03</pdfrwt>
<pdfrwt beam="2">  1       -1 0.11319480E+00 0.99277128E+03</pdfrwt>
<totfact> 0.41553034E+00</totfact>
</mgrwt>
</event>
<event>
12    1  0.1338445E-007  0.8003935E+03  0.7818608E-02  0.9559448E-01
         -1   -1    0    0    0  501 -0.00000000000E+00  0.00000000000E+00  0.11139152139E+04  0.11139152139E+04  0.00000000000E+00 0.  1.
          1   -1    0    0  501    0  0.00000000000E+00 -0.00000000000E+00 -0.64305721654E+03  0.64305721654E+03  0.00000000000E+00 0. -1.
         23    2    1    2    0    0 -0.66301698877E+03  0.23027244716E+03 -0.26607479408E+02  0.70819028227E+03  0.90601272766E+02 0.  0.
    5000000    2    1    2    0    0  0.66301698877E+03 -0.23027244716E+03  0.49746547678E+03  0.10487821482E+04  0.59987929323E+03 0.  0.
         23    2    4    4    0    0  0.20730763098E+03 -0.36519886131E+03  0.15617703251E+03  0.45687469754E+03  0.89423495858E+02 0.  0.
         23    2    4    4    0    0  0.45570935779E+03  0.13492641415E+03  0.34128844427E+03  0.59190745064E+03  0.89445357161E+02 0.  0.
          2    1    3    3  502    0 -0.45989559380E+03  0.14096673382E+03  0.20123062040E+02  0.48143588864E+03  0.00000000000E+00 0. -1.
         -2    1    3    3    0  502 -0.20312139497E+03  0.89305713339E+02 -0.46730541449E+02  0.22675439364E+03  0.00000000000E+00 0.  1.
         11    1    5    5    0    0  0.54975586410E+02 -0.10914163652E+03  0.89733443056E+02  0.15161234358E+03  0.00000000000E+00 0.  1.
        -11    1    5    5    0    0  0.15233204457E+03 -0.25605722479E+03  0.66443589452E+02  0.30526235396E+03  0.00000000000E+00 0. -1.
          2    1    6    6  503    0  0.27494578458E+02  0.21079690620E+02  0.52891140702E+02  0.63227984041E+02  0.00000000000E+00 0.  1.
         -2    1    6    6    0  503  0.42821477933E+03  0.11384672353E+03  0.28839730357E+03  0.52867946660E+03  0.00000000000E+00 0. -1.
<mgrwt>
<rscale>  0 0.80039346E+03</rscale>
<asrwt>0</asrwt>
<pdfrwt beam="1">  1        1 0.98931879E-01 0.80039346E+03</pdfrwt>
<pdfrwt beam="2">  1       -1 0.17137157E+00 0.80039346E+03</pdfrwt>
<totfact> 0.76312041E+00</totfact>
</mgrwt>
</event>
<event>
12    1  0.1338445E-007  0.1469004E+04  0.7818608E-02  0.8905331E-01
         -2   -1    0    0    0  501 -0.00000000000E+00  0.00000000000E+00  0.95078468632E+03  0.95078468632E+03  0.00000000000E+00 0. -1.
          2   -1    0    0  501    0  0.00000000000E+00 -0.00000000000E+00 -0.25127693358E+04  0.25127693358E+04  0.00000000000E+00 0.  1.
         23    2    1    2    0    0  0.13726211033E+04 -0.35853652953E+03 -0.25663757992E+03  0.14444889811E+04  0.89713059030E+02 0.  0.
    5000000    2    1    2    0    0 -0.13726211033E+04  0.35853652953E+03 -0.13053470695E+04  0.20190650409E+04  0.60004627440E+03 0.  0.
         23    2    4    4    0    0 -0.32374399522E+02  0.14832994656E+03 -0.10695500020E+03  0.20685229386E+03  0.91096787090E+02 0.  0.
         23    2    4    4    0    0 -0.13402467038E+04  0.21020658297E+03 -0.11983920693E+04  0.18122127471E+04  0.86737848467E+02 0.  0.
          1    1    3    3  502    0  0.79264583526E+03 -0.16712729224E+03 -0.16858675732E+03  0.82743002526E+03  0.00000000000E+00 0. -1.
         -1    1    3    3    0  502  0.57997526805E+03 -0.19140923729E+03 -0.88050822600E+02  0.61705895588E+03  0.00000000000E+00 0.  1.
         11    1    5    5    0    0 -0.22859934314E+02  0.20423633681E+02 -0.65065912879E+02  0.71925478298E+02  0.00000000000E+00 0.  1.
        -11    1    5    5    0    0 -0.95144652078E+01  0.12790631288E+03 -0.41889087321E+02  0.13492681556E+03  0.00000000000E+00 0. -1.
          3    1    6    6  503    0 -0.63676305438E+03  0.13366156263E+03 -0.61092160345E+03  0.89250087188E+03  0.00000000000E+00 0. -1.
         -3    1    6    6    0  503 -0.70348364940E+03  0.76545020339E+02 -0.58747046586E+03  0.91971187519E+03  0.00000000000E+00 0.  1.
<mgrwt>
<rscale>  0 0.14690040E+04</rscale>
<asrwt>0</asrwt>
<pdfrwt beam="1">  1        2 0.38657990E+00 0.14690040E+04</pdfrwt>
<pdfrwt beam="2">  1       -2 0.14627457E+00 0.14690040E+04</pdfrwt>
<totfact> 0.10393854E+00</totfact>
</mgrwt>
</event>
<event>
12    1  0.1338445E-007  0.7953078E+03  0.7818608E-02  0.9566834E-01
          1   -1    0    0  501    0  0.00000000000E+00  0.00000000000E+00  0.12580886140E+04  0.12580886140E+04  0.00000000000E+00 0. -1.
         -1   -1    0    0    0  501 -0.00000000000E+00 -0.00000000000E+00 -0.59374395240E+03  0.59374395240E+03  0.00000000000E+00 0.  1.
         23    2    1    2    0    0 -0.65991500944E+03 -0.35978710656E+03  0.39150394093E+03  0.85214829922E+03  0.89144861658E+02 0.  0.
    5000000    2    1    2    0    0  0.65991500944E+03  0.35978710656E+03  0.27284072068E+03  0.99968426719E+03  0.59999332786E+03 0.  0.
         23    2    4    4    0    0 -0.31475734839E+02  0.87372685030E+02  0.21263875354E+03  0.24909181747E+03  0.90591313320E+02 0.  0.
         23    2    4    4    0    0  0.69139074428E+03  0.27241442153E+03  0.60201967133E+02  0.75059244972E+03  0.86798446961E+02 0.  0.
          2    1    3    3  502    0 -0.25483326508E+03 -0.10553022924E+03  0.17889428614E+03  0.32875490550E+03  0.00000000000E+00 0. -1.
         -2    1    3    3    0  502 -0.40508174436E+03 -0.25425687731E+03  0.21260965479E+03  0.52339339372E+03  0.00000000000E+00 0.  1.
         13    1    5    5    0    0 -0.26311936447E+02  0.79905576621E+02  0.79833950671E+02  0.11597706176E+03  0.00000000000E+00 0. -1.
        -13    1    5    5    0    0 -0.51637983918E+01  0.74671084096E+01  0.13280480287E+03  0.13311475571E+03  0.00000000000E+00 0.  1.
          3    1    6    6  503    0  0.41854240347E+03  0.17402117922E+03 -0.50046043889E+01  0.45330581332E+03  0.00000000000E+00 0. -1.
         -3    1    6    6    0  503  0.27284834081E+03  0.98393242308E+02  0.65206571522E+02  0.29728663640E+03  0.00000000000E+00 0.  1.
<mgrwt>
<rscale>  0 0.79530785E+03</rscale>
<asrwt>0</asrwt>
<pdfrwt beam="1">  1        1 0.19355209E+00 0.79530785E+03</pdfrwt>
<pdfrwt beam="2">  1       -1 0.91345224E-01 0.79530785E+03</pdfrwt>
<totfact> 0.11652242E+01</totfact>
</mgrwt>
</event>
<event>
12    1  0.1338445E-007  0.9044335E+03  0.7818608E-02  0.9420056E-01
         -1   -1    0    0    0  501 -0.00000000000E+00  0.00000000000E+00  0.72079129519E+03  0.72079129519E+03  0.00000000000E+00 0.  1.
          1   -1    0    0  501    0  0.00000000000E+00 -0.00000000000E+00 -0.11892156610E+04  0.11892156610E+04  0.00000000000E+00 0. -1.
         23    2    1    2    0    0 -0.20123268771E+03 -0.80066985444E+03 -0.18899945889E+03  0.85193063386E+03  0.92185676938E+02 0.  0.
    5000000    2    1    2    0    0  0.20123268771E+03  0.80066985444E+03 -0.27942490690E+03  0.10580763223E+04  0.59990033742E+03 0.  0.
         23    2    4    4    0    0  0.31084424440E+03  0.20819835896E+03 -0.22609511994E+03  0.44651432081E+03  0.91023812694E+02 0.  0.
         23    2    4    4    0    0 -0.10961155669E+03  0.59247149548E+03 -0.53329786961E+02  0.61156200150E+03  0.90149038764E+02 0.  0.
          4    1    3    3  502    0  0.19601857472E+01 -0.12468699825E+03 -0.33942691711E+02  0.12923929813E+03  0.00000000000E+00 0. -1.
         -4    1    3    3    0  502 -0.20319287346E+03 -0.67598285619E+03 -0.15505676718E+03  0.72269133573E+03  0.00000000000E+00 0.  1.
         11    1    5    5    0    0  0.20294840432E+03  0.14737480654E+03 -0.19790016004E+03  0.31948687260E+03  0.00000000000E+00 0. -1.
        -11    1    5    5    0    0  0.10789584008E+03  0.60823552419E+02 -0.28194959904E+02  0.12702744822E+03  0.00000000000E+00 0.  1.
          2    1    6    6  503    0 -0.10205052482E+03  0.58098341689E+03 -0.65100777536E+02  0.59345947760E+03  0.00000000000E+00 0. -1.
         -2    1    6    6    0  503 -0.75610318674E+01  0.11488078592E+02  0.11770990575E+02  0.18102523905E+02  0.00000000000E+00 0.  1.
<mgrwt>
<rscale>  0 0.90443350E+03</rscale>
<asrwt>0</asrwt>
<pdfrwt beam="1">  1        1 0.18295625E+00 0.90443350E+03</pdfrwt>
<pdfrwt beam="2">  1       -1 0.11089097E+00 0.90443350E+03</pdfrwt>
<totfact> 0.82645824E+00</totfact>
</mgrwt>
</event>
<event>
12    1  0.1338445E-007  0.5504968E+03  0.7818608E-02  0.1001379E+00
         -1   -1    0    0    0  501 -0.00000000000E+00  0.00000000000E+00  0.17377585294E+03  0.17377585294E+03  0.00000000000E+00 0.  1.
          1   -1    0    0  501    0  0.00000000000E+00 -0.00000000000E+00 -0.21006412372E+04  0.21006412372E+04  0.00000000000E+00 0. -1.
         23    2    1    2    0    0 -0.41249986804E+03  0.17391745941E+03 -0.64552884415E+03  0.79041903957E+03  0.87471970669E+02 0.  0.
    5000000    2    1    2    0    0  0.41249986804E+03 -0.17391745941E+03 -0.12813365402E+04  0.14839980506E+04  0.60001955072E+03 0.  0.
         23    2    4    4    0    0  0.38181481714E+03 -0.30317719376E+03 -0.12113497906E+04  0.13090119731E+04  0.91897036256E+02 0.  0.
         23    2    4    4    0    0  0.30685050908E+02  0.12925973434E+03 -0.69986749556E+02  0.17498607746E+03  0.89846151388E+02 0.  0.
          3    1    3    3  502    0 -0.99587101501E+02  0.67929436009E+02 -0.12311597134E+03  0.17230653343E+03  0.00000000000E+00 0. -1.
         -3    1    3    3    0  502 -0.31291276654E+03  0.10598802341E+03 -0.52241287281E+03  0.61811250614E+03  0.00000000000E+00 0.  1.
         13    1    5    5    0    0  0.34574654731E+03 -0.25251849506E+03 -0.97983916286E+03  0.10692946509E+04  0.00000000000E+00 0.  1.
        -13    1    5    5    0    0  0.36068269827E+02 -0.50658698701E+02 -0.23151062774E+03  0.23971732227E+03  0.00000000000E+00 0. -1.
          4    1    6    6  503    0 -0.25695342967E+02  0.82761879869E+02 -0.30157694971E+02  0.91756558216E+02  0.00000000000E+00 0. -1.
         -4    1    6    6    0  503  0.56380393875E+02  0.46497854473E+02 -0.39829054585E+02  0.83229519242E+02  0.00000000000E+00 0.  1.
<mgrwt>
<rscale>  0 0.55049682E+03</rscale>
<asrwt>0</asrwt>
<pdfrwt beam="1">  1        1 0.32317557E+00 0.55049682E+03</pdfrwt>
<pdfrwt beam="2">  1       -1 0.26734747E-01 0.55049682E+03</pdfrwt>
<totfact> 0.33977268E+01</totfact>
</mgrwt>
</event>
<event>
12    1  0.1338445E-007  0.1595705E+04  0.7818608E-02  0.8823191E-01
         -2   -1    0    0    0  501 -0.00000000000E+00  0.00000000000E+00  0.13742353370E+04  0.13742353370E+04  0.00000000000E+00 0.  1.
          2   -1    0    0  501    0  0.00000000000E+00 -0.00000000000E+00 -0.20709882896E+04  0.20709882896E+04  0.00000000000E+00 0. -1.
         23    2    1    2    0    0  0.10824363367E+04  0.11204330268E+04  0.16077632358E+03  0.15684384746E+04  0.84330492018E+02 0.  0.
    5000000    2    1    2    0    0 -0.10824363367E+04 -0.11204330268E+04 -0.85752927618E+03  0.18767851521E+04  0.59993954435E+03 0.  0.
         23    2    4    4    0    0 -0.97805498293E+03 -0.11299481757E+04 -0.66402581941E+03  0.16377090076E+04  0.88238740641E+02 0.  0.
         23    2    4    4    0    0 -0.10438135380E+03  0.95151489533E+01 -0.19350345677E+03  0.23907614442E+03  0.93422748658E+02 0.  0.
          2    1    3    3  502    0  0.22540737444E+03  0.23402173789E+03  0.68135017251E+02  0.33198951615E+03  0.00000000000E+00 0.  1.
         -2    1    3    3    0  502  0.85702896229E+03  0.88641128890E+03  0.92641306328E+02  0.12364489585E+04  0.00000000000E+00 0. -1.
         11    1    5    5    0    0 -0.31827997598E+03 -0.30673592853E+03 -0.19042383081E+03  0.48130064233E+03  0.00000000000E+00 0. -1.
        -11    1    5    5    0    0 -0.65977500694E+03 -0.82321224721E+03 -0.47360198860E+03  0.11564083653E+04  0.00000000000E+00 0.  1.
          4    1    6    6  503    0 -0.10516775325E+03 -0.19939616070E+02 -0.17204186620E+03  0.20262341507E+03  0.00000000000E+00 0. -1.
         -4    1    6    6    0  503  0.78639944880E+00  0.29454765023E+02 -0.21461590579E+02  0.36452729347E+02  0.00000000000E+00 0.  1.
<mgrwt>
<rscale>  0 0.15957052E+04</rscale>
<asrwt>0</asrwt>
<pdfrwt beam="1">  1        2 0.31861358E+00 0.15957052E+04</pdfrwt>
<pdfrwt beam="2">  1       -2 0.21142082E+00 0.15957052E+04</pdfrwt>
<totfact> 0.63576576E-01</totfact>
</mgrwt>
</event>
<event>
12    1  0.1338445E-007  0.6506261E+03  0.7818608E-02  0.9805605E-01
          2   -1    0    0  501    0  0.00000000000E+00  0.00000000000E+00  0.21199140315E+04  0.21199140315E+04  0.00000000000E+00 0. -1.
         -2   -1    0    0    0  501 -0.00000000000E+00 -0.00000000000E+00 -0.69848634738E+03  0.69848634738E+03  0.00000000000E+00 0.  1.
         23    2    1    2    0    0  0.47907467071E+03 -0.32889578085E+03  0.18051545860E+04  0.18991423451E+04  0.10234057250E+03 0.  0.
    5000000    2    1    2    0    0 -0.47907467071E+03  0.32889578085E+03 -0.38372690192E+03  0.91925803375E+03  0.60008667921E+03 0.  0.
         23    2    4    4    0    0 -0.42823038334E+03  0.69078797984E+02 -0.11950878305E+01  0.44336927588E+03  0.91770066006E+02 0.  0.
         23    2    4    4    0    0 -0.50844287375E+02  0.25981698286E+03 -0.38253181409E+03  0.47588875786E+03  0.10024726892E+03 0.  0.
          1    1    3    3  502    0  0.30270735484E+03 -0.22817921899E+03  0.10205734893E+04  0.10887000256E+04  0.00000000000E+00 0. -1.
         -1    1    3    3    0  502  0.17636731587E+03 -0.10071656186E+03  0.78458109670E+03  0.81044231950E+03  0.00000000000E+00 0.  1.
         13    1    5    5    0    0 -0.25153555743E+03  0.64815665681E+02  0.37476703119E+02  0.26244182297E+03  0.00000000000E+00 0. -1.
        -13    1    5    5    0    0 -0.17669482591E+03  0.42631323029E+01 -0.38671790950E+02  0.18092745291E+03  0.00000000000E+00 0.  1.
          4    1    6    6  503    0  0.24861151873E+02  0.12953568161E+03 -0.16436662723E+03  0.21074619292E+03  0.00000000000E+00 0. -1.
         -4    1    6    6    0  503 -0.75705439248E+02  0.13028130125E+03 -0.21816518686E+03  0.26514256495E+03  0.00000000000E+00 0.  1.
<mgrwt>
<rscale>  0 0.65062609E+03</rscale>
<asrwt>0</asrwt>
<pdfrwt beam="1">  1        2 0.32614062E+00 0.65062609E+03</pdfrwt>
<pdfrwt beam="2">  1       -2 0.10745944E+00 0.65062609E+03</pdfrwt>
<totfact> 0.42153602E+00</totfact>
</mgrwt>
</event>
<event>
12    1  0.1377311E-007  0.1247413E+04  0.7818608E-02  0.9072340E-01
          2   -1    0    0  501    0  0.00000000000E+00  0.00000000000E+00  0.16834317576E+04  0.16834317576E+04  0.00000000000E+00 0.  1.
         -2   -1    0    0    0  501 -0.00000000000E+00 -0.00000000000E+00 -0.10073241733E+04  0.10073241733E+04  0.00000000000E+00 0. -1.
         23    2    1    2    0    0 -0.12169739089E+04  0.19148832360E+02  0.12773400771E+03  0.12271919713E+04  0.91060336432E+02 0.  0.
    5000000    2    1    2    0    0  0.12169739089E+04 -0.19148832360E+02  0.54837357655E+03  0.14635639597E+04  0.59992808897E+03 0.  0.
         23    2    4    4    0    0  0.80692546874E+03  0.14810939531E+03  0.10843977462E+03  0.83279965717E+03  0.93439708865E+02 0.  0.
         23    2    4    4    0    0  0.41004844016E+03 -0.16725822767E+03  0.43993380193E+03  0.63076430252E+03  0.90591485544E+02 0.  0.
          3    1    3    3  502    0 -0.48641700054E+03 -0.27099237979E+01  0.74848317414E+01  0.48648213205E+03  0.00000000000E+00 0. -1.
         -3    1    3    3    0  502 -0.73055690835E+03  0.21858756158E+02  0.12024917597E+03  0.74070983920E+03  0.00000000000E+00 0.  1.
         11    1    5    5    0    0  0.38851424452E+03  0.11798565832E+03  0.44623205771E+02  0.40847908668E+03  0.00000000000E+00 0. -1.
        -11    1    5    5    0    0  0.41841122422E+03  0.30123736986E+02  0.63816568849E+02  0.42432057049E+03  0.00000000000E+00 0.  1.
          3    1    6    6  503    0  0.50083018682E+02 -0.56204565634E+02  0.76078425117E+02  0.10702891538E+03  0.00000000000E+00 0. -1.
         -3    1    6    6    0  503  0.35996542147E+03 -0.11105366203E+03  0.36385537681E+03  0.52373538714E+03  0.00000000000E+00 0.  1.
<mgrwt>
<rscale>  0 0.12474125E+04</rscale>
<asrwt>0</asrwt>
<pdfrwt beam="1">  1        2 0.25898950E+00 0.12474125E+04</pdfrwt>
<pdfrwt beam="2">  1       -2 0.15497295E+00 0.12474125E+04</pdfrwt>
<totfact> 0.26607261E+00</totfact>
</mgrwt>
</event>
<event>
12    1  0.1338445E-007  0.4315991E+03  0.7818608E-02  0.1033356E+00
         -2   -1    0    0    0  501 -0.00000000000E+00  0.00000000000E+00  0.88941632752E+02  0.88941632752E+02  0.00000000000E+00 0.  1.
          2   -1    0    0  501    0  0.00000000000E+00 -0.00000000000E+00 -0.23719040836E+04  0.23719040836E+04  0.00000000000E+00 0. -1.
         23    2    1    2    0    0 -0.27084503353E+02  0.22729174894E+03 -0.94519230913E+03  0.97693719028E+03  0.92858295532E+02 0.  0.
    5000000    2    1    2    0    0  0.27084503353E+02 -0.22729174894E+03 -0.13377701417E+04  0.14839085260E+04  0.59996704261E+03 0.  0.
         23    2    4    4    0    0 -0.18425219575E+03  0.10962583041E+03 -0.43978549299E+03  0.49753717757E+03  0.90361877438E+02 0.  0.
         23    2    4    4    0    0  0.21133669910E+03 -0.33691757935E+03 -0.89798464870E+03  0.98637134847E+03  0.91516949893E+02 0.  0.
          4    1    3    3  502    0 -0.56606787804E+02  0.19566739573E+03 -0.77099958228E+03  0.79745245254E+03  0.00000000000E+00 0.  1.
         -4    1    3    3    0  502  0.29522284451E+02  0.31624353219E+02 -0.17419272685E+03  0.17948473774E+03  0.00000000000E+00 0. -1.
         13    1    5    5    0    0 -0.10532605224E+03  0.76047013335E+02 -0.16696591436E+03  0.21155222068E+03  0.00000000000E+00 0. -1.
        -13    1    5    5    0    0 -0.78926143511E+02  0.33578817073E+02 -0.27281957863E+03  0.28598495689E+03  0.00000000000E+00 0.  1.
          1    1    6    6  503    0  0.39698620719E+02 -0.10333930253E+03 -0.17071165938E+03  0.20346366403E+03  0.00000000000E+00 0. -1.
         -1    1    6    6    0  503  0.17163807838E+03 -0.23357827683E+03 -0.72727298932E+03  0.78290768443E+03  0.00000000000E+00 0.  1.
<mgrwt>
<rscale>  0 0.43159906E+03</rscale>
<asrwt>0</asrwt>
<pdfrwt beam="1">  1        2 0.36490830E+00 0.43159906E+03</pdfrwt>
<pdfrwt beam="2">  1       -2 0.13683329E-01 0.43159906E+03</pdfrwt>
<totfact> 0.18194953E+02</totfact>
</mgrwt>
</event>
<event>
12    1  0.1338445E-007  0.6552871E+03  0.7818608E-02  0.9796909E-01
          1   -1    0    0  501    0  0.00000000000E+00  0.00000000000E+00  0.82601725242E+03  0.82601725242E+03  0.00000000000E+00 0. -1.
         -1   -1    0    0    0  501 -0.00000000000E+00 -0.00000000000E+00 -0.63151565475E+03  0.63151565475E+03  0.00000000000E+00 0.  1.
         23    2    1    2    0    0 -0.39099859606E+03 -0.34551555600E+03 -0.20456105024E+03  0.56783389132E+03  0.91264468985E+02 0.  0.
    5000000    2    1    2    0    0  0.39099859606E+03  0.34551555600E+03  0.39906264791E+03  0.88969901585E+03  0.60004369866E+03 0.  0.
         23    2    4    4    0    0 -0.10551121858E+03  0.24171979751E+03  0.12871123415E+03  0.30819146928E+03  0.94097407940E+02 0.  0.
         23    2    4    4    0    0  0.49650981463E+03  0.10379575849E+03  0.27035141376E+03  0.58150754658E+03  0.88122552720E+02 0.  0.
          2    1    3    3  502    0 -0.58369488275E+02 -0.34116198705E+02  0.18111210934E+01  0.67632775599E+02  0.00000000000E+00 0. -1.
         -2    1    3    3    0  502 -0.33262910778E+03 -0.31139935729E+03 -0.20637217133E+03  0.50020111572E+03  0.00000000000E+00 0.  1.
         11    1    5    5    0    0 -0.97833380605E+02  0.24905830715E+03  0.13000148027E+03  0.29749251350E+03  0.00000000000E+00 0. -1.
        -11    1    5    5    0    0 -0.76778379734E+01 -0.73385096335E+01 -0.12902461115E+01  0.10698955772E+02  0.00000000000E+00 0.  1.
          3    1    6    6  503    0  0.44975178099E+03  0.10681121828E+03  0.21748869692E+03  0.51086850964E+03  0.00000000000E+00 0. -1.
         -3    1    6    6    0  503  0.46758033648E+02 -0.30154597978E+01  0.52862716835E+02  0.70639036939E+02  0.00000000000E+00 0.  1.
<mgrwt>
<rscale>  0 0.65528714E+03</rscale>
<asrwt>0</asrwt>
<pdfrwt beam="1">  1        1 0.12707958E+00 0.65528714E+03</pdfrwt>
<pdfrwt beam="2">  1       -1 0.97156254E-01 0.65528714E+03</pdfrwt>
<totfact> 0.22204545E+01</totfact>
</mgrwt>
</event>
<event>
12    1  0.1338445E-007  0.4891034E+03  0.7818608E-02  0.1016663E+00
          1   -1    0    0  501    0  0.00000000000E+00  0.00000000000E+00  0.84890493595E+03  0.84890493595E+03  0.00000000000E+00 0. -1.
         -1   -1    0    0    0  501 -0.00000000000E+00 -0.00000000000E+00 -0.45241265944E+03  0.45241265944E+03  0.00000000000E+00 0.  1.
         23    2    1    2    0    0  0.24637720733E+03 -0.28875454039E+03  0.44209543313E+03  0.58927518495E+03  0.87840529970E+02 0.  0.
    5000000    2    1    2    0    0 -0.24637720733E+03  0.28875454039E+03 -0.45603156630E+02  0.71204241044E+03  0.60070278299E+03 0.  0.
         23    2    4    4    0    0 -0.58876256923E+02  0.37120313301E+03 -0.20327459932E+03  0.43768194592E+03  0.94798436044E+02 0.  0.
         23    2    4    4    0    0 -0.18750095040E+03 -0.82448592611E+02  0.15767144269E+03  0.27436046452E+03  0.91972842868E+02 0.  0.
          1    1    3    3  502    0  0.10396334552E+03 -0.16750793437E+03  0.27569596236E+03  0.33893295643E+03  0.00000000000E+00 0. -1.
         -1    1    3    3    0  502  0.14241386180E+03 -0.12124660602E+03  0.16639947077E+03  0.25034222852E+03  0.00000000000E+00 0.  1.
         13    1    5    5    0    0 -0.74202701520E+02  0.21185677988E+03 -0.14543824401E+03  0.26747265078E+03  0.00000000000E+00 0.  1.
        -13    1    5    5    0    0  0.15326444597E+02  0.15934635313E+03 -0.57836355314E+02  0.17020929515E+03  0.00000000000E+00 0. -1.
          4    1    6    6  503    0 -0.10295899145E+03 -0.68795983906E+02  0.42665387143E+02  0.13097242680E+03  0.00000000000E+00 0.  1.
         -4    1    6    6    0  503 -0.84541958955E+02 -0.13652608705E+02  0.11500605555E+03  0.14338803772E+03  0.00000000000E+00 0. -1.
<mgrwt>
<rscale>  0 0.48910338E+03</rscale>
<asrwt>0</asrwt>
<pdfrwt beam="1">  1        1 0.13060076E+00 0.48910338E+03</pdfrwt>
<pdfrwt beam="2">  1       -1 0.69601948E-01 0.48910338E+03</pdfrwt>
<totfact> 0.44276125E+01</totfact>
</mgrwt>
</event>
<event>
12    1  0.1338445E-007  0.4521058E+03  0.7818608E-02  0.1027096E+00
         -2   -1    0    0    0  501 -0.00000000000E+00  0.00000000000E+00  0.26540401546E+03  0.26540401546E+03  0.00000000000E+00 0.  1.
          2   -1    0    0  501    0  0.00000000000E+00 -0.00000000000E+00 -0.12543751341E+04  0.12543751341E+04  0.00000000000E+00 0. -1.
         23    2    1    2    0    0 -0.25199209491E+03  0.28993011752E+03 -0.56835663968E+03  0.69195379870E+03  0.90616227714E+02 0.  0.
    5000000    2    1    2    0    0  0.25199209491E+03 -0.28993011752E+03 -0.42061447895E+03  0.82782535085E+03  0.60068193137E+03 0.  0.
         23    2    4    4    0    0  0.44189957775E+02  0.57633991972E+02 -0.39574587000E+03  0.41177279066E+03  0.87564879395E+02 0.  0.
         23    2    4    4    0    0  0.20780213713E+03 -0.34756410949E+03 -0.24868608944E+02  0.41605256019E+03  0.92188647494E+02 0.  0.
          3    1    3    3  502    0 -0.34018387523E+02  0.87019540755E+02 -0.17733281366E+03  0.20044095879E+03  0.00000000000E+00 0. -1.
         -3    1    3    3    0  502 -0.21797370738E+03  0.20291057677E+03 -0.39102382603E+03  0.49151283991E+03  0.00000000000E+00 0.  1.
         11    1    5    5    0    0  0.59411044775E+02  0.25459502639E+02 -0.33654566927E+03  0.34269643421E+03  0.00000000000E+00 0. -1.
        -11    1    5    5    0    0 -0.15221087000E+02  0.32174489334E+02 -0.59200200730E+02  0.69076356445E+02  0.00000000000E+00 0.  1.
          1    1    6    6  503    0  0.12176660608E+03 -0.12673823467E+03  0.12197789984E+02  0.17617738948E+03  0.00000000000E+00 0. -1.
         -1    1    6    6    0  503  0.86035531055E+02 -0.22082587482E+03 -0.37066398929E+02  0.23987517072E+03  0.00000000000E+00 0.  1.
<mgrwt>
<rscale>  0 0.45210577E+03</rscale>
<asrwt>0</asrwt>
<pdfrwt beam="1">  1        2 0.19298079E+00 0.45210577E+03</pdfrwt>
<pdfrwt beam="2">  1       -2 0.40831387E-01 0.45210577E+03</pdfrwt>
<totfact> 0.10462211E+02</totfact>
</mgrwt>
</event>
<event>
12    1  0.1338445E-007  0.6575608E+03  0.7818608E-02  0.9792694E-01
         -2   -1    0    0    0  501 -0.00000000000E+00  0.00000000000E+00  0.42300856109E+03  0.42300856109E+03  0.00000000000E+00 0.  1.
          2   -1    0    0  501    0  0.00000000000E+00 -0.00000000000E+00 -0.18800111991E+04  0.18800111991E+04  0.00000000000E+00 0. -1.
         23    2    1    2    0    0 -0.15636543062E+03  0.53634822670E+03  0.70370080228E+02  0.56953950556E+03  0.85461874734E+02 0.  0.
    5000000    2    1    2    0    0  0.15636543062E+03 -0.53634822670E+03 -0.15273727183E+04  0.17334802547E+04  0.59997233654E+03 0.  0.
         23    2    4    4    0    0  0.32056807194E+03 -0.22546690329E+03 -0.11069517356E+04  0.11779628808E+04  0.93033274748E+02 0.  0.
         23    2    4    4    0    0 -0.16420264132E+03 -0.31088132340E+03 -0.42042098266E+03  0.55551737391E+03  0.90752660600E+02 0.  0.
          4    1    3    3  502    0 -0.87765037021E+02  0.37645043170E+03  0.14576597297E+02  0.38682050933E+03  0.00000000000E+00 0. -1.
         -4    1    3    3    0  502 -0.68600393600E+02  0.15989779500E+03  0.55793482931E+02  0.18271899623E+03  0.00000000000E+00 0.  1.
         11    1    5    5    0    0  0.74571908792E+02 -0.58075150319E+02 -0.16524562169E+03  0.19036756066E+03  0.00000000000E+00 0. -1.
        -11    1    5    5    0    0  0.24599616315E+03 -0.16739175297E+03 -0.94170611393E+03  0.98759532009E+03  0.00000000000E+00 0.  1.
          4    1    6    6  503    0 -0.59331831973E+02 -0.38712537010E+02 -0.70038488724E+02  0.99620864831E+02  0.00000000000E+00 0. -1.
         -4    1    6    6    0  503 -0.10487080935E+03 -0.27216878639E+03 -0.35038249393E+03  0.45589650908E+03  0.00000000000E+00 0.  1.
<mgrwt>
<rscale>  0 0.65756075E+03</rscale>
<asrwt>0</asrwt>
<pdfrwt beam="1">  1        2 0.28923249E+00 0.65756075E+03</pdfrwt>
<pdfrwt beam="2">  1       -2 0.65078240E-01 0.65756075E+03</pdfrwt>
<totfact> 0.17740579E+01</totfact>
</mgrwt>
</event>
<event>
12    1  0.1338445E-007  0.9705716E+03  0.7818608E-02  0.9341424E-01
         -2   -1    0    0    0  501 -0.00000000000E+00  0.00000000000E+00  0.57778705884E+03  0.57778705884E+03  0.00000000000E+00 0.  1.
          2   -1    0    0  501    0  0.00000000000E+00 -0.00000000000E+00 -0.17961808913E+04  0.17961808913E+04  0.00000000000E+00 0. -1.
         23    2    1    2    0    0 -0.61581582017E+03  0.68969643752E+03 -0.64992531443E+03  0.11338233369E+04  0.90786257716E+02 0.  0.
    5000000    2    1    2    0    0  0.61581582017E+03 -0.68969643752E+03 -0.56846851807E+03  0.12401446133E+04  0.59990991456E+03 0.  0.
         23    2    4    4    0    0  0.58500911680E+03 -0.38184952630E+03 -0.58744726024E+03  0.91737922719E+03  0.91900138468E+02 0.  0.
         23    2    4    4    0    0  0.30806703372E+02 -0.30784691122E+03  0.18978742176E+02  0.32276538611E+03  0.89991822405E+02 0.  0.
          4    1    3    3  502    0 -0.15267524698E+03  0.21781220065E+03 -0.21960281270E+03  0.34493083529E+03  0.00000000000E+00 0. -1.
         -4    1    3    3    0  502 -0.46314057319E+03  0.47188423687E+03 -0.43032250173E+03  0.78889250157E+03  0.00000000000E+00 0.  1.
         11    1    5    5    0    0  0.27246730637E+03 -0.12697508939E+03 -0.23032711456E+03  0.37869735419E+03  0.00000000000E+00 0. -1.
        -11    1    5    5    0    0  0.31254181043E+03 -0.25487443692E+03 -0.35712014568E+03  0.53868187301E+03  0.00000000000E+00 0.  1.
          1    1    6    6  503    0  0.29490861980E+02 -0.19538562135E+03 -0.30419037604E+02  0.19992641101E+03  0.00000000000E+00 0.  1.
         -1    1    6    6    0  503  0.13158413914E+01 -0.11246128987E+03  0.49397779781E+02  0.12283897510E+03  0.00000000000E+00 0. -1.
<mgrwt>
<rscale>  0 0.97057158E+03</rscale>
<asrwt>0</asrwt>
<pdfrwt beam="1">  1        2 0.27633552E+00 0.97057158E+03</pdfrwt>
<pdfrwt beam="2">  1       -2 0.88890316E-01 0.97057158E+03</pdfrwt>
<totfact> 0.94505057E+00</totfact>
</mgrwt>
</event>
<event>
12    1  0.1338445E-007  0.7538600E+03  0.7818608E-02  0.9629314E-01
          2   -1    0    0  501    0  0.00000000000E+00  0.00000000000E+00  0.16503891010E+04  0.16503891010E+04  0.00000000000E+00 0. -1.
         -2   -1    0    0    0  501 -0.00000000000E+00 -0.00000000000E+00 -0.39480395886E+03  0.39480395886E+03  0.00000000000E+00 0.  1.
         23    2    1    2    0    0  0.48312409957E+03  0.43218238467E+03  0.85059087981E+03  0.10734510418E+04  0.92745809349E+02 0.  0.
    5000000    2    1    2    0    0 -0.48312409957E+03 -0.43218238467E+03  0.40499426230E+03  0.97174201802E+03  0.60005973693E+03 0.  0.
         23    2    4    4    0    0  0.23413271113E+02  0.90455722540E+02  0.13698237804E+03  0.18946543404E+03  0.91665477687E+02 0.  0.
         23    2    4    4    0    0 -0.50653737068E+03 -0.52263810721E+03  0.26801188427E+03  0.78227658398E+03  0.10195874032E+03 0.  0.
          1    1    3    3  502    0  0.20224940584E+03  0.22131587940E+03  0.44960967420E+03  0.54040207232E+03  0.00000000000E+00 0. -1.
         -1    1    3    3    0  502  0.28087469373E+03  0.21086650528E+03  0.40098120562E+03  0.53304896950E+03  0.00000000000E+00 0.  1.
         11    1    5    5    0    0 -0.23012537533E+02 -0.15868420295E+01  0.81479774479E+01  0.24463942606E+02  0.00000000000E+00 0. -1.
        -11    1    5    5    0    0  0.46425808646E+02  0.92042564569E+02  0.12883440059E+03  0.16500149143E+03  0.00000000000E+00 0.  1.
          3    1    6    6  503    0 -0.98410098639E+02 -0.68204037620E+02  0.13216231975E+02  0.12046164140E+03  0.00000000000E+00 0. -1.
         -3    1    6    6    0  503 -0.40812727204E+03 -0.45443406959E+03  0.25479565229E+03  0.66181494258E+03  0.00000000000E+00 0.  1.
<mgrwt>
<rscale>  0 0.75386002E+03</rscale>
<asrwt>0</asrwt>
<pdfrwt beam="1">  1        2 0.25390601E+00 0.75386002E+03</pdfrwt>
<pdfrwt beam="2">  1       -2 0.60739072E-01 0.75386002E+03</pdfrwt>
<totfact> 0.27052596E+01</totfact>
</mgrwt>
</event>
<event>
12    1  0.1532174E-007  0.9326146E+03  0.7818608E-02  0.9385705E-01
          3   -1    0    0  501    0  0.00000000000E+00  0.00000000000E+00  0.14065187928E+04  0.14065187928E+04  0.00000000000E+00 0. -1.
         -3   -1    0    0    0  501 -0.00000000000E+00 -0.00000000000E+00 -0.68460941430E+03  0.68460941430E+03  0.00000000000E+00 0.  1.
         23    2    1    2    0    0 -0.68886962773E+03  0.54941430406E+03  0.43389226446E+03  0.98700304440E+03  0.97545225310E+02 0.  0.
    5000000    2    1    2    0    0  0.68886962773E+03 -0.54941430406E+03  0.28801711404E+03  0.11041251627E+04  0.59978419068E+03 0.  0.
         23    2    4    4    0    0  0.60857071923E+03 -0.24925784128E+03 -0.95972915379E+01  0.66428760362E+03  0.93263715200E+02 0.  0.
         23    2    4    4    0    0  0.80298908504E+02 -0.30015646278E+03  0.29761440558E+03  0.43983755907E+03  0.91328676252E+02 0.  0.
          4    1    3    3  502    0 -0.22358200483E+03  0.22389508308E+03  0.18927673073E+03  0.36870530496E+03  0.00000000000E+00 0. -1.
         -4    1    3    3    0  502 -0.46528762290E+03  0.32551922099E+03  0.24461553373E+03  0.61829773944E+03  0.00000000000E+00 0.  1.
         11    1    5    5    0    0  0.34564351814E+03 -0.19048287974E+03  0.11375879467E+01  0.39465739979E+03  0.00000000000E+00 0. -1.
        -11    1    5    5    0    0  0.26292720109E+03 -0.58774961543E+02 -0.10734879485E+02  0.26963020382E+03  0.00000000000E+00 0.  1.
          4    1    6    6  503    0  0.56640616060E+02 -0.28041567735E+03  0.23565918338E+03  0.37064317369E+03  0.00000000000E+00 0. -1.
         -4    1    6    6    0  503  0.23658292445E+02 -0.19740785431E+02  0.61955222195E+02  0.69194385380E+02  0.00000000000E+00 0.  1.
<mgrwt>
<rscale>  0 0.93261463E+03</rscale>
<asrwt>0</asrwt>
<pdfrwt beam="1">  1        3 0.21638751E+00 0.93261463E+03</pdfrwt>
<pdfrwt beam="2">  1       -3 0.10532453E+00 0.93261463E+03</pdfrwt>
<totfact> 0.23120239E-01</totfact>
</mgrwt>
</event>
<event>
12    1  0.2136525E-007  0.1603992E+04  0.7818608E-02  0.8818099E-01
         -1   -1    0    0    0  501 -0.00000000000E+00  0.00000000000E+00  0.15241615696E+04  0.15241615696E+04  0.00000000000E+00 0.  1.
          1   -1    0    0  501    0  0.00000000000E+00 -0.00000000000E+00 -0.17765575086E+04  0.17765575086E+04  0.00000000000E+00 0. -1.
         23    2    1    2    0    0 -0.15823973649E+04  0.14335873500E+03 -0.77912301605E+02  0.15933763744E+04  0.90800862009E+02 0.  0.
    5000000    2    1    2    0    0  0.15823973649E+04 -0.14335873500E+03 -0.17448363740E+03  0.17073427037E+04  0.60003451652E+03 0.  0.
         23    2    4    4    0    0  0.12627118534E+04 -0.20134511956E+03  0.80775672213E+02  0.12843898513E+04  0.90285652301E+02 0.  0.
         23    2    4    4    0    0  0.31968551153E+03  0.57986384559E+02 -0.25525930961E+03  0.42295285249E+03  0.90391112460E+02 0.  0.
          3    1    3    3  502    0 -0.52780930369E+03  0.78942116974E+02  0.34903193871E+01  0.53369157875E+03  0.00000000000E+00 0. -1.
         -3    1    3    3    0  502 -0.10545880612E+04  0.64416618030E+02 -0.81402620992E+02  0.10596847957E+04  0.00000000000E+00 0.  1.
         11    1    5    5    0    0  0.46666295848E+03 -0.11027648115E+03  0.55897136456E+02  0.48276258034E+03  0.00000000000E+00 0.  1.
        -11    1    5    5    0    0  0.79604889487E+03 -0.91068638409E+02  0.24878535757E+02  0.80162727091E+03  0.00000000000E+00 0. -1.
          3    1    6    6  503    0  0.98857182460E+02  0.60966990821E+02 -0.80329128103E+02  0.14121786472E+03  0.00000000000E+00 0. -1.
         -3    1    6    6    0  503  0.22082832907E+03 -0.29806062626E+01 -0.17493018151E+03  0.28173498778E+03  0.00000000000E+00 0.  1.
<mgrwt>
<rscale>  0 0.16039921E+04</rscale>
<asrwt>0</asrwt>
<pdfrwt beam="1">  1        1 0.27331654E+00 0.16039921E+04</pdfrwt>
<pdfrwt beam="2">  1       -1 0.23448640E+00 0.16039921E+04</pdfrwt>
<totfact> 0.34796019E-01</totfact>
</mgrwt>
</event>
<event>
12    1  0.1338445E-007  0.9051036E+03  0.7818608E-02  0.9419224E-01
         -2   -1    0    0    0  501 -0.00000000000E+00  0.00000000000E+00  0.11094756552E+04  0.11094756552E+04  0.00000000000E+00 0.  1.
          2   -1    0    0  501    0  0.00000000000E+00 -0.00000000000E+00 -0.79227721451E+03  0.79227721451E+03  0.00000000000E+00 0. -1.
         23    2    1    2    0    0  0.83720718529E+03  0.23319071771E+02  0.10048028922E+03  0.84897121111E+03  0.95896707797E+02 0.  0.
    5000000    2    1    2    0    0 -0.83720718529E+03 -0.23319071771E+02  0.21671815147E+03  0.10527816586E+04  0.59993567430E+03 0.  0.
         23    2    4    4    0    0  0.13187478845E+02  0.69205976546E+02 -0.82048989714E+02  0.14182940073E+03  0.91761459289E+02 0.  0.
         23    2    4    4    0    0 -0.85039466413E+03 -0.92525048316E+02  0.29876714119E+03  0.91095225787E+03  0.94022561713E+02 0.  0.
          3    1    3    3  502    0  0.65657098466E+03  0.42003040249E+02  0.11034989986E+03  0.66710330061E+03  0.00000000000E+00 0. -1.
         -3    1    3    3    0  502  0.18063620063E+03 -0.18683968479E+02 -0.98696106349E+01  0.18186791050E+03  0.00000000000E+00 0.  1.
         11    1    5    5    0    0 -0.27896449866E+02  0.67109110723E+02 -0.39798122935E+02  0.82859732357E+02  0.00000000000E+00 0. -1.
        -11    1    5    5    0    0  0.41083928711E+02  0.20968658227E+01 -0.42250866779E+02  0.58969668374E+02  0.00000000000E+00 0.  1.
          3    1    6    6  503    0 -0.65168470898E+03 -0.49471339119E+02  0.19132325448E+03  0.68098822385E+03  0.00000000000E+00 0. -1.
         -3    1    6    6    0  503 -0.19870995515E+03 -0.43053709198E+02  0.10744388671E+03  0.22996403402E+03  0.00000000000E+00 0.  1.
<mgrwt>
<rscale>  0 0.90510357E+03</rscale>
<asrwt>0</asrwt>
<pdfrwt beam="1">  1        2 0.12188880E+00 0.90510357E+03</pdfrwt>
<pdfrwt beam="2">  1       -2 0.17068856E+00 0.90510357E+03</pdfrwt>
<totfact> 0.73596765E+00</totfact>
</mgrwt>
</event>
<event>
12    1  0.1338445E-007  0.6036546E+03  0.7818608E-02  0.9897853E-01
         -1   -1    0    0    0  501 -0.00000000000E+00  0.00000000000E+00  0.22407217379E+03  0.22407217379E+03  0.00000000000E+00 0.  1.
          1   -1    0    0  501    0  0.00000000000E+00 -0.00000000000E+00 -0.18879404485E+04  0.18879404485E+04  0.00000000000E+00 0. -1.
         23    2    1    2    0    0 -0.36187387576E+03 -0.35519628474E+03 -0.64759738794E+03  0.82757847735E+03  0.91578691088E+02 0.  0.
    5000000    2    1    2    0    0  0.36187387576E+03  0.35519628474E+03 -0.10162708868E+04  0.12844341449E+04  0.59987286547E+03 0.  0.
         23    2    4    4    0    0  0.19467940760E+03  0.45186760522E+03 -0.92583364384E+03  0.10523690103E+04  0.90709389475E+02 0.  0.
         23    2    4    4    0    0  0.16719446816E+03 -0.96671320487E+02 -0.90437242918E+02  0.23206513464E+03  0.91520475427E+02 0.  0.
          4    1    3    3  502    0 -0.98973795955E+02 -0.12294960189E+03 -0.14270146805E+03  0.21278187394E+03  0.00000000000E+00 0. -1.
         -4    1    3    3    0  502 -0.26290007980E+03 -0.23224668284E+03 -0.50489591988E+03  0.61479660341E+03  0.00000000000E+00 0.  1.
         11    1    5    5    0    0  0.17781878652E+03  0.31855393514E+03 -0.64452375924E+03  0.74061258878E+03  0.00000000000E+00 0.  1.
        -11    1    5    5    0    0  0.16860621082E+02  0.13331367008E+03 -0.28130988459E+03  0.31175642149E+03  0.00000000000E+00 0. -1.
          4    1    6    6  503    0  0.54927097642E+02 -0.61582310212E+01  0.10209480376E+02  0.56206257252E+02  0.00000000000E+00 0. -1.
         -4    1    6    6    0  503  0.11226737052E+03 -0.90513089466E+02 -0.10064672329E+03  0.17585887739E+03  0.00000000000E+00 0.  1.
<mgrwt>
<rscale>  0 0.60365456E+03</rscale>
<asrwt>0</asrwt>
<pdfrwt beam="1">  1        1 0.29045239E+00 0.60365456E+03</pdfrwt>
<pdfrwt beam="2">  1       -1 0.34472640E-01 0.60365456E+03</pdfrwt>
<totfact> 0.29964241E+01</totfact>
</mgrwt>
</event>
<event>
12    1  0.1752604E-007  0.1295552E+04  0.7818608E-02  0.9033100E-01
          1   -1    0    0  501    0  0.00000000000E+00  0.00000000000E+00  0.17963545367E+04  0.17963545367E+04  0.00000000000E+00 0. -1.
         -1   -1    0    0    0  501 -0.00000000000E+00 -0.00000000000E+00 -0.99895168020E+03  0.99895168020E+03  0.00000000000E+00 0.  1.
         23    2    1    2    0    0  0.76170993716E+03 -0.98208614094E+03  0.10342701140E+03  0.12505323047E+04  0.91862297649E+02 0.  0.
    5000000    2    1    2    0    0 -0.76170993716E+03  0.98208614094E+03  0.69397584512E+03  0.15447739122E+04  0.60002395765E+03 0.  0.
         23    2    4    4    0    0 -0.48925389089E+03  0.23145822090E+03  0.13225649509E+03  0.56417147524E+03  0.88630667411E+02 0.  0.
         23    2    4    4    0    0 -0.27245604627E+03  0.75062792004E+03  0.56171935002E+03  0.98060243701E+03  0.91531086403E+02 0.  0.
          2    1    3    3  502    0  0.52619884581E+03 -0.72372299311E+03  0.10497988207E+03  0.90093338918E+03  0.00000000000E+00 0. -1.
         -2    1    3    3    0  502  0.23551109134E+03 -0.25836314782E+03 -0.15528706771E+01  0.34959891548E+03  0.00000000000E+00 0.  1.
         11    1    5    5    0    0 -0.18537063122E+03  0.13175320622E+03  0.36587759370E+02  0.23034722140E+03  0.00000000000E+00 0.  1.
        -11    1    5    5    0    0 -0.30388325967E+03  0.99705014675E+02  0.95668735723E+02  0.33382425384E+03  0.00000000000E+00 0. -1.
          1    1    6    6  503    0 -0.24772591576E+03  0.64384799348E+03  0.44745532804E+03  0.82226798469E+03  0.00000000000E+00 0. -1.
         -1    1    6    6    0  503 -0.24730130502E+02  0.10677992656E+03  0.11426402199E+03  0.15833445232E+03  0.00000000000E+00 0.  1.
<mgrwt>
<rscale>  0 0.12955520E+04</rscale>
<asrwt>0</asrwt>
<pdfrwt beam="1">  1        1 0.27636223E+00 0.12955520E+04</pdfrwt>
<pdfrwt beam="2">  1       -1 0.15368487E+00 0.12955520E+04</pdfrwt>
<totfact> 0.12990869E+00</totfact>
</mgrwt>
</event>
<event>
12    1  0.1338445E-007  0.9203095E+03  0.7818608E-02  0.9400544E-01
          1   -1    0    0  501    0  0.00000000000E+00  0.00000000000E+00  0.23726931451E+04  0.23726931451E+04  0.00000000000E+00 0. -1.
         -1   -1    0    0    0  501 -0.00000000000E+00 -0.00000000000E+00 -0.46445510754E+03  0.46445510754E+03  0.00000000000E+00 0.  1.
         23    2    1    2    0    0 -0.27701254854E+03  0.81757320428E+03  0.30558395941E+03  0.92048832723E+03  0.93569802365E+02 0.  0.
    5000000    2    1    2    0    0  0.27701254854E+03 -0.81757320428E+03  0.16026540782E+04  0.19166599254E+04  0.59993606247E+03 0.  0.
         23    2    4    4    0    0  0.55556398225E+01 -0.64477366082E+03  0.70696727211E+03  0.96104930487E+03  0.89716797434E+02 0.  0.
         23    2    4    4    0    0  0.27145690872E+03 -0.17279954346E+03  0.89568680608E+03  0.95561062057E+03  0.85955035061E+02 0.  0.
          1    1    3    3  502    0 -0.91182761302E+02  0.35347044551E+03  0.16885663064E+03  0.40220419381E+03  0.00000000000E+00 0. -1.
         -1    1    3    3    0  502 -0.18582978724E+03  0.46410275877E+03  0.13672732877E+03  0.51828413342E+03  0.00000000000E+00 0.  1.
         13    1    5    5    0    0 -0.10773837625E+02 -0.45239231381E+03  0.43645828652E+03  0.62870558852E+03  0.00000000000E+00 0.  1.
        -13    1    5    5    0    0  0.16329477447E+02 -0.19238134701E+03  0.27050898559E+03  0.33234371635E+03  0.00000000000E+00 0. -1.
          4    1    6    6  503    0  0.15990063887E+03 -0.58292422449E+02  0.39752041123E+03  0.43242189835E+03  0.00000000000E+00 0.  1.
         -4    1    6    6    0  503  0.11155626985E+03 -0.11450712102E+03  0.49816639485E+03  0.52318872222E+03  0.00000000000E+00 0. -1.
<mgrwt>
<rscale>  0 0.92030951E+03</rscale>
<asrwt>0</asrwt>
<pdfrwt beam="1">  1        1 0.36502971E+00 0.92030951E+03</pdfrwt>
<pdfrwt beam="2">  1       -1 0.71454633E-01 0.92030951E+03</pdfrwt>
<totfact> 0.33746601E+00</totfact>
</mgrwt>
</event>
<event>
12    1  0.1338445E-007  0.5155707E+03  0.7818608E-02  0.1009793E+00
          2   -1    0    0  501    0  0.00000000000E+00  0.00000000000E+00  0.20266588571E+04  0.20266588571E+04  0.00000000000E+00 0. -1.
         -2   -1    0    0    0  501 -0.00000000000E+00 -0.00000000000E+00 -0.17615529196E+03  0.17615529196E+03  0.00000000000E+00 0.  1.
         23    2    1    2    0    0 -0.38609743041E+03  0.85135828899E+02  0.33890091990E+03  0.52912536397E+03  0.93810885089E+02 0.  0.
    5000000    2    1    2    0    0  0.38609743041E+03 -0.85135828899E+02  0.15116026452E+04  0.16736887850E+04  0.59997688048E+03 0.  0.
         23    2    4    4    0    0  0.16052785642E+02 -0.21752948258E+03  0.97289202220E+03  0.10011023065E+04  0.90056501466E+02 0.  0.
         23    2    4    4    0    0  0.37004464476E+03  0.13239365368E+03  0.53871062299E+03  0.67258647857E+03  0.87762846218E+02 0.  0.
          1    1    3    3  502    0 -0.29240188355E+03  0.67643699966E+02  0.30515936189E+03  0.42801491539E+03  0.00000000000E+00 0. -1.
         -1    1    3    3    0  502 -0.93695546857E+02  0.17492128932E+02  0.33741558011E+02  0.10111044858E+03  0.00000000000E+00 0.  1.
         13    1    5    5    0    0  0.47937477914E+02 -0.68717540783E+02  0.34865761694E+03  0.35858365279E+03  0.00000000000E+00 0.  1.
        -13    1    5    5    0    0 -0.31884692272E+02 -0.14881194180E+03  0.62423440525E+03  0.64251865368E+03  0.00000000000E+00 0. -1.
          3    1    6    6  503    0  0.13070115741E+03  0.84504027509E+02  0.25038929982E+03  0.29481947812E+03  0.00000000000E+00 0. -1.
         -3    1    6    6    0  503  0.23934348736E+03  0.47889626173E+02  0.28832132317E+03  0.37776700045E+03  0.00000000000E+00 0.  1.
<mgrwt>
<rscale>  0 0.51557066E+03</rscale>
<asrwt>0</asrwt>
<pdfrwt beam="1">  1        2 0.31179365E+00 0.51557066E+03</pdfrwt>
<pdfrwt beam="2">  1       -2 0.27100816E-01 0.51557066E+03</pdfrwt>
<totfact> 0.84687550E+01</totfact>
</mgrwt>
</event>
<event>
12    1  0.1338445E-007  0.6799861E+03  0.7818608E-02  0.9752084E-01
         -3   -1    0    0    0  501 -0.00000000000E+00  0.00000000000E+00  0.70127852580E+03  0.70127852580E+03  0.00000000000E+00 0.  1.
          3   -1    0    0  501    0  0.00000000000E+00 -0.00000000000E+00 -0.86143429332E+03  0.86143429332E+03  0.00000000000E+00 0. -1.
         23    2    1    2    0    0 -0.23654878983E+03  0.49412004287E+03  0.29712995741E+03  0.63043325100E+03  0.95131097083E+02 0.  0.
    5000000    2    1    2    0    0  0.23654878983E+03 -0.49412004287E+03 -0.45728572493E+03  0.93227956812E+03  0.59993750689E+03 0.  0.
         23    2    4    4    0    0  0.41198784140E+03 -0.23269819725E+03 -0.30629803590E+03  0.57141098449E+03  0.93859437134E+02 0.  0.
         23    2    4    4    0    0 -0.17543905157E+03 -0.26142184562E+03 -0.15098768904E+03  0.36086858363E+03  0.91151578295E+02 0.  0.
          3    1    3    3  502    0 -0.14890172593E+03  0.22613739224E+03  0.11124523971E+03  0.29272059632E+03  0.00000000000E+00 0. -1.
         -3    1    3    3    0  502 -0.87647063896E+02  0.26798265063E+03  0.18588471770E+03  0.33771265467E+03  0.00000000000E+00 0.  1.
         11    1    5    5    0    0  0.25935848901E+03 -0.10238097971E+03 -0.14719529116E+03  0.31530167232E+03  0.00000000000E+00 0.  1.
        -11    1    5    5    0    0  0.15262935239E+03 -0.13031721754E+03 -0.15910274474E+03  0.25610931217E+03  0.00000000000E+00 0. -1.
          3    1    6    6  503    0 -0.64846803976E+02 -0.17729094390E+03 -0.89368597062E+02  0.20886343126E+03  0.00000000000E+00 0. -1.
         -3    1    6    6    0  503 -0.11059224759E+03 -0.84130901723E+02 -0.61619091976E+02  0.15200515237E+03  0.00000000000E+00 0.  1.
<mgrwt>
<rscale>  0 0.67998615E+03</rscale>
<asrwt>0</asrwt>
<pdfrwt beam="1">  1        3 0.13252835E+00 0.67998615E+03</pdfrwt>
<pdfrwt beam="2">  1       -3 0.10788900E+00 0.67998615E+03</pdfrwt>
<totfact> 0.84207978E-01</totfact>
</mgrwt>
</event>
<event>
12    1  0.1338445E-007  0.1436056E+04  0.7818608E-02  0.8928125E-01
          2   -1    0    0  501    0  0.00000000000E+00  0.00000000000E+00  0.14561912536E+04  0.14561912536E+04  0.00000000000E+00 0. -1.
         -2   -1    0    0    0  501 -0.00000000000E+00 -0.00000000000E+00 -0.24175813621E+04  0.24175813621E+04  0.00000000000E+00 0.  1.
         23    2    1    2    0    0 -0.35873677044E+03 -0.13255830454E+04 -0.17128422563E+04  0.21973025795E+04  0.91910555817E+02 0.  0.
    5000000    2    1    2    0    0  0.35873677044E+03  0.13255830454E+04  0.75145214775E+03  0.16764700362E+04  0.60000747599E+03 0.  0.
         23    2    4    4    0    0  0.42478081830E+03  0.49692932241E+03  0.35176475133E+03  0.74926824770E+03  0.10142470929E+03 0.  0.
         23    2    4    4    0    0 -0.66044047864E+02  0.82865372299E+03  0.39968739642E+03  0.92720178852E+03  0.94468687377E+02 0.  0.
          3    1    3    3  502    0 -0.28034284341E+03 -0.95322211302E+03 -0.11813882655E+04  0.15436653590E+04  0.00000000000E+00 0. -1.
         -3    1    3    3    0  502 -0.78393927029E+02 -0.37236093239E+03 -0.53145399079E+03  0.65363722055E+03  0.00000000000E+00 0.  1.
         13    1    5    5    0    0  0.19664767140E+03  0.30716508911E+03  0.18743607920E+03  0.41006460762E+03  0.00000000000E+00 0.  1.
        -13    1    5    5    0    0  0.22813314690E+03  0.18976423330E+03  0.16432867213E+03  0.33920364008E+03  0.00000000000E+00 0. -1.
          4    1    6    6  503    0 -0.40139554265E+02  0.10489502130E+03  0.48877704609E+02  0.12248746596E+03  0.00000000000E+00 0. -1.
         -4    1    6    6    0  503 -0.25904493599E+02  0.72375870169E+03  0.35080969181E+03  0.80471432256E+03  0.00000000000E+00 0.  1.
<mgrwt>
<rscale>  0 0.14360556E+04</rscale>
<asrwt>0</asrwt>
<pdfrwt beam="1">  1        2 0.22402942E+00 0.14360556E+04</pdfrwt>
<pdfrwt beam="2">  1       -2 0.37193559E+00 0.14360556E+04</pdfrwt>
<totfact> 0.14414933E-01</totfact>
</mgrwt>
</event>
<event>
12    1  0.1338445E-007  0.9748217E+03  0.7818608E-02  0.9336599E-01
          2   -1    0    0  501    0  0.00000000000E+00  0.00000000000E+00  0.30187416380E+04  0.30187416380E+04  0.00000000000E+00 0. -1.
         -2   -1    0    0    0  501 -0.00000000000E+00 -0.00000000000E+00 -0.33119698988E+03  0.33119698988E+03  0.00000000000E+00 0.  1.
         23    2    1    2    0    0  0.87560215388E+03 -0.16879869610E+03  0.94701933487E+03  0.13042859708E+04  0.95625003440E+02 0.  0.
    5000000    2    1    2    0    0 -0.87560215388E+03  0.16879869610E+03  0.17405253132E+04  0.20456526571E+04  0.60007857463E+03 0.  0.
         23    2    4    4    0    0 -0.13605037038E+03 -0.17936773872E+03  0.52038599905E+03  0.57433452574E+03  0.91520874516E+02 0.  0.
         23    2    4    4    0    0 -0.73955178350E+03  0.34816643482E+03  0.12201393142E+04  0.14713181313E+04  0.88771565194E+02 0.  0.
          1    1    3    3  502    0  0.28401424229E+03 -0.88895800500E+02  0.35962385253E+03  0.46679317527E+03  0.00000000000E+00 0. -1.
         -1    1    3    3    0  502  0.59158791159E+03 -0.79902895603E+02  0.58739548234E+03  0.83749279552E+03  0.00000000000E+00 0.  1.
         11    1    5    5    0    0 -0.96879721422E+02 -0.70225085002E+02  0.33437550474E+03  0.35513972061E+03  0.00000000000E+00 0.  1.
        -11    1    5    5    0    0 -0.39170648953E+02 -0.10914265372E+03  0.18601049431E+03  0.21919480513E+03  0.00000000000E+00 0. -1.
          2    1    6    6  503    0 -0.26246600935E+03  0.93169582641E+02  0.35905991958E+03  0.45441501190E+03  0.00000000000E+00 0. -1.
         -2    1    6    6    0  503 -0.47708577415E+03  0.25499685218E+03  0.86107939457E+03  0.10169031194E+04  0.00000000000E+00 0.  1.
<mgrwt>
<rscale>  0 0.97482165E+03</rscale>
<asrwt>0</asrwt>
<pdfrwt beam="1">  1        2 0.46442177E+00 0.97482165E+03</pdfrwt>
<pdfrwt beam="2">  1       -2 0.50953385E-01 0.97482165E+03</pdfrwt>
<totfact> 0.63375848E+00</totfact>
</mgrwt>
</event>
<event>
12    1  0.1338445E-007  0.4632207E+03  0.7818608E-02  0.1023851E+00
         -1   -1    0    0    0  501 -0.00000000000E+00  0.00000000000E+00  0.44846925637E+03  0.44846925637E+03  0.00000000000E+00 0.  1.
          1   -1    0    0  501    0  0.00000000000E+00 -0.00000000000E+00 -0.66509163695E+03  0.66509163695E+03  0.00000000000E+00 0. -1.
         23    2    1    2    0    0  0.34857313618E+03  0.79398277046E+02 -0.19160661771E+03  0.41482352749E+03  0.86937594543E+02 0.  0.
    5000000    2    1    2    0    0 -0.34857313618E+03 -0.79398277046E+02 -0.25015762869E+02  0.69873736583E+03  0.59983397732E+03 0.  0.
         23    2    4    4    0    0 -0.74275909615E+02 -0.21804778907E+03 -0.21187963804E+03  0.32634941509E+03  0.92461941610E+02 0.  0.
         23    2    4    4    0    0 -0.27429722657E+03  0.13864951202E+03  0.18686387517E+03  0.37238795074E+03  0.96395136417E+02 0.  0.
          2    1    3    3  502    0  0.20623094274E+03  0.85610771183E+02 -0.13855912241E+03  0.26279086036E+03  0.00000000000E+00 0. -1.
         -2    1    3    3    0  502  0.14234219345E+03 -0.62124941373E+01 -0.53047495298E+02  0.15203266713E+03  0.00000000000E+00 0.  1.
         13    1    5    5    0    0 -0.53154489782E+02 -0.58820152105E+02 -0.11195044914E+03  0.13717912793E+03  0.00000000000E+00 0.  1.
        -13    1    5    5    0    0 -0.21121419832E+02 -0.15922763696E+03 -0.99929188900E+02  0.18917028715E+03  0.00000000000E+00 0. -1.
          3    1    6    6  503    0 -0.19480411918E+03  0.48845288221E+02  0.10036573549E+03  0.22451678755E+03  0.00000000000E+00 0. -1.
         -3    1    6    6    0  503 -0.79493107385E+02  0.89804223800E+02  0.86498139681E+02  0.14787116319E+03  0.00000000000E+00 0.  1.
<mgrwt>
<rscale>  0 0.46322075E+03</rscale>
<asrwt>0</asrwt>
<pdfrwt beam="1">  1        1 0.10232179E+00 0.46322075E+03</pdfrwt>
<pdfrwt beam="2">  1       -1 0.68995271E-01 0.46322075E+03</pdfrwt>
<totfact> 0.65798155E+01</totfact>
</mgrwt>
</event>
<event>
12    1  0.1338445E-007  0.1001327E+04  0.7818608E-02  0.9307091E-01
         -2   -1    0    0    0  501 -0.00000000000E+00  0.00000000000E+00  0.29640493161E+03  0.29640493161E+03  0.00000000000E+00 0.  1.
          2   -1    0    0  501    0  0.00000000000E+00 -0.00000000000E+00 -0.36494456959E+04  0.36494456959E+04  0.00000000000E+00 0. -1.
         23    2    1    2    0    0  0.79315152602E+03 -0.46682167174E+03 -0.19954405738E+04  0.21991469786E+04  0.86328058366E+02 0.  0.
    5000000    2    1    2    0    0 -0.79315152602E+03  0.46682167174E+03 -0.13576001906E+04  0.17467036490E+04  0.60073583496E+03 0.  0.
         23    2    4    4    0    0  0.63647237389E+02  0.13259618129E+03 -0.19105699755E+03  0.25850593456E+03  0.93219224227E+02 0.  0.
         23    2    4    4    0    0 -0.85679876341E+03  0.33422549045E+03 -0.11665431930E+04  0.14881977144E+04  0.89992313740E+02 0.  0.
          4    1    3    3  502    0  0.48273122487E+03 -0.23472036062E+03 -0.11619150968E+04  0.12799100654E+04  0.00000000000E+00 0. -1.
         -4    1    3    3    0  502  0.31042030115E+03 -0.23210131112E+03 -0.83352547692E+03  0.91923691324E+03  0.00000000000E+00 0.  1.
         13    1    5    5    0    0  0.72987869414E+02  0.12969757622E+03 -0.19712538652E+03  0.24699617076E+03  0.00000000000E+00 0. -1.
        -13    1    5    5    0    0 -0.93406320254E+01  0.28986050745E+01  0.60683889666E+01  0.11509763797E+02  0.00000000000E+00 0.  1.
          3    1    6    6  503    0 -0.17068073605E+03  0.66969492629E+02 -0.29394480460E+03  0.34643956869E+03  0.00000000000E+00 0. -1.
         -3    1    6    6    0  503 -0.68611802735E+03  0.26725599782E+03 -0.87259838842E+03  0.11417581457E+04  0.00000000000E+00 0.  1.
<mgrwt>
<rscale>  0 0.10013265E+04</rscale>
<asrwt>0</asrwt>
<pdfrwt beam="1">  1        2 0.56145322E+00 0.10013265E+04</pdfrwt>
<pdfrwt beam="2">  1       -2 0.45600756E-01 0.10013265E+04</pdfrwt>
<totfact> 0.30205223E+00</totfact>
</mgrwt>
</event>
<event>
12    1  0.1338445E-007  0.9413163E+03  0.7818608E-02  0.9375358E-01
         -1   -1    0    0    0  501 -0.00000000000E+00  0.00000000000E+00  0.97302070825E+03  0.97302070825E+03  0.00000000000E+00 0.  1.
          1   -1    0    0  501    0  0.00000000000E+00 -0.00000000000E+00 -0.10340286061E+04  0.10340286061E+04  0.00000000000E+00 0. -1.
         23    2    1    2    0    0 -0.44941508091E+03  0.73057017957E+03  0.27800039405E+03  0.90665129135E+03  0.95003383119E+02 0.  0.
    5000000    2    1    2    0    0  0.44941508091E+03 -0.73057017957E+03 -0.33900829192E+03  0.11003980230E+04  0.60020203668E+03 0.  0.
         23    2    4    4    0    0  0.54256041169E+03 -0.72554763481E+03 -0.33182294928E+03  0.96947557778E+03  0.94790587821E+02 0.  0.
         23    2    4    4    0    0 -0.93145330781E+02 -0.50225447564E+01 -0.71853426403E+01  0.13092244523E+03  0.91584818140E+02 0.  0.
          1    1    3    3  502    0 -0.20745881858E+03  0.39354330021E+03  0.10473424181E+03  0.45703911425E+03  0.00000000000E+00 0. -1.
         -1    1    3    3    0  502 -0.24195626233E+03  0.33702687936E+03  0.17326615224E+03  0.44961217711E+03  0.00000000000E+00 0.  1.
         13    1    5    5    0    0  0.37307650201E+03 -0.43903267875E+03 -0.18003030995E+03  0.60361136658E+03  0.00000000000E+00 0.  1.
        -13    1    5    5    0    0  0.16948390968E+03 -0.28651495606E+03 -0.15179263932E+03  0.36586421121E+03  0.00000000000E+00 0. -1.
          4    1    6    6  503    0 -0.62779435787E+02  0.28208988710E+02 -0.35801912070E+02  0.77580806322E+02  0.00000000000E+00 0. -1.
         -4    1    6    6    0  503 -0.30365894994E+02 -0.33231533467E+02  0.28616569430E+02  0.53341638907E+02  0.00000000000E+00 0.  1.
<mgrwt>
<rscale>  0 0.94131629E+03</rscale>
<asrwt>0</asrwt>
<pdfrwt beam="1">  1        1 0.15908133E+00 0.94131629E+03</pdfrwt>
<pdfrwt beam="2">  1       -1 0.14969549E+00 0.94131629E+03</pdfrwt>
<totfact> 0.50429950E+00</totfact>
</mgrwt>
</event>
<event>
12    1  0.1338445E-007  0.9180930E+03  0.7818608E-02  0.9403243E-01
          2   -1    0    0  501    0  0.00000000000E+00  0.00000000000E+00  0.19573373767E+04  0.19573373767E+04  0.00000000000E+00 0. -1.
         -2   -1    0    0    0  501 -0.00000000000E+00 -0.00000000000E+00 -0.45517886611E+03  0.45517886611E+03  0.00000000000E+00 0.  1.
         23    2    1    2    0    0  0.78658834297E+03 -0.30687632673E+03  0.74161202244E+03  0.11274947794E+04  0.91442794509E+02 0.  0.
    5000000    2    1    2    0    0 -0.78658834297E+03  0.30687632673E+03  0.76054648812E+03  0.12850214633E+04  0.59996241501E+03 0.  0.
         23    2    4    4    0    0 -0.75338213901E+02  0.25352742525E+03  0.72193856410E+02  0.28956150219E+03  0.93176761160E+02 0.  0.
         23    2    4    4    0    0 -0.71125012906E+03  0.53348901473E+02  0.68835263171E+03  0.99545996113E+03  0.91587866287E+02 0.  0.
          1    1    3    3  502    0  0.34549698641E+03 -0.10136421769E+03  0.27220804718E+03  0.45137577826E+03  0.00000000000E+00 0. -1.
         -1    1    3    3    0  502  0.44109135656E+03 -0.20551210903E+03  0.46940397525E+03  0.67611900119E+03  0.00000000000E+00 0.  1.
         11    1    5    5    0    0 -0.77875420822E+02  0.13530698159E+03  0.70510750573E+02  0.17130185750E+03  0.00000000000E+00 0. -1.
        -11    1    5    5    0    0  0.25372069204E+01  0.11822044366E+03  0.16831058364E+01  0.11825964470E+03  0.00000000000E+00 0.  1.
          1    1    6    6  503    0 -0.33975619091E+03  0.51556571241E+02  0.38304601564E+03  0.51460334180E+03  0.00000000000E+00 0. -1.
         -1    1    6    6    0  503 -0.37149393816E+03  0.17923302322E+01  0.30530661607E+03  0.48085661933E+03  0.00000000000E+00 0.  1.
<mgrwt>
<rscale>  0 0.91809300E+03</rscale>
<asrwt>0</asrwt>
<pdfrwt beam="1">  1        2 0.30112882E+00 0.91809300E+03</pdfrwt>
<pdfrwt beam="2">  1       -2 0.70027519E-01 0.91809300E+03</pdfrwt>
<totfact> 0.13258614E+01</totfact>
</mgrwt>
</event>
<event>
12    1  0.1338445E-007  0.5510667E+03  0.7818608E-02  0.1001247E+00
         -2   -1    0    0    0  501 -0.00000000000E+00  0.00000000000E+00  0.81724582553E+03  0.81724582553E+03  0.00000000000E+00 0.  1.
          2   -1    0    0  501    0  0.00000000000E+00 -0.00000000000E+00 -0.56134847315E+03  0.56134847315E+03  0.00000000000E+00 0. -1.
         23    2    1    2    0    0  0.51003828527E+03 -0.53773632289E+02  0.26248629976E+03  0.58921880658E+03  0.12348719975E+03 0.  0.
    5000000    2    1    2    0    0 -0.51003828527E+03  0.53773632289E+02 -0.65889473744E+01  0.78937549209E+03  0.60003299686E+03 0.  0.
         23    2    4    4    0    0 -0.49887960233E+02  0.52786999091E+02 -0.23932539863E+03  0.26621448878E+03  0.91204340673E+02 0.  0.
         23    2    4    4    0    0 -0.46015032504E+03  0.98663319774E+00  0.23273645126E+03  0.52316100331E+03  0.88271652115E+02 0.  0.
          2    1    3    3  502    0  0.32652632628E+03  0.18105095815E+02  0.19576464965E+03  0.38114437462E+03  0.00000000000E+00 0. -1.
         -2    1    3    3    0  502  0.18351195899E+03 -0.71878728104E+02  0.66721650105E+02  0.20807443197E+03  0.00000000000E+00 0.  1.
         11    1    5    5    0    0 -0.86639674756E+01  0.70510483404E+02 -0.16033183051E+03  0.17536558521E+03  0.00000000000E+00 0.  1.
        -11    1    5    5    0    0 -0.41223992757E+02 -0.17723484313E+02 -0.78993568124E+02  0.90848903570E+02  0.00000000000E+00 0. -1.
          3    1    6    6  503    0 -0.24416123745E+03  0.21710239949E+02  0.80132676011E+02  0.25789007379E+03  0.00000000000E+00 0. -1.
         -3    1    6    6    0  503 -0.21598908758E+03 -0.20723606751E+02  0.15260377525E+03  0.26527092952E+03  0.00000000000E+00 0.  1.
<mgrwt>
<rscale>  0 0.55106673E+03</rscale>
<asrwt>0</asrwt>
<pdfrwt beam="1">  1        2 0.86361304E-01 0.55106673E+03</pdfrwt>
<pdfrwt beam="2">  1       -2 0.12573013E+00 0.55106673E+03</pdfrwt>
<totfact> 0.26211742E+01</totfact>
</mgrwt>
</event>
<event>
12    1  0.1338445E-007  0.9762447E+03  0.7818608E-02  0.9334990E-01
         -1   -1    0    0    0  501 -0.00000000000E+00  0.00000000000E+00  0.62951481100E+03  0.62951481100E+03  0.00000000000E+00 0.  1.
          1   -1    0    0  501    0  0.00000000000E+00 -0.00000000000E+00 -0.16914925285E+04  0.16914925285E+04  0.00000000000E+00 0. -1.
         23    2    1    2    0    0  0.59623330028E+03  0.66764970381E+03 -0.15591650080E+03  0.91315323996E+03  0.91041798436E+02 0.  0.
    5000000    2    1    2    0    0 -0.59623330028E+03 -0.66764970381E+03 -0.90606121666E+03  0.14078540995E+04  0.59987995613E+03 0.  0.
         23    2    4    4    0    0 -0.86547920830E+02 -0.50344595667E+03 -0.32688251444E+03  0.61348723791E+03  0.92552898143E+02 0.  0.
         23    2    4    4    0    0 -0.50968537945E+03 -0.16420374715E+03 -0.57917870222E+03  0.79436686158E+03  0.93961082748E+02 0.  0.
          4    1    3    3  502    0  0.26643575920E+03  0.30298352919E+03 -0.24484464484E+02  0.40421098667E+03  0.00000000000E+00 0. -1.
         -4    1    3    3    0  502  0.32979754108E+03  0.36466617462E+03 -0.13143203632E+03  0.50894225329E+03  0.00000000000E+00 0.  1.
         11    1    5    5    0    0 -0.91543147065E+02 -0.28387514009E+03 -0.16711478135E+03  0.34189558798E+03  0.00000000000E+00 0.  1.
        -11    1    5    5    0    0  0.49952262356E+01 -0.21957081658E+03 -0.15976773308E+03  0.27159164994E+03  0.00000000000E+00 0. -1.
          2    1    6    6  503    0 -0.25668775681E+03 -0.48436171802E+02 -0.32996783274E+03  0.42084847377E+03  0.00000000000E+00 0. -1.
         -2    1    6    6    0  503 -0.25299762264E+03 -0.11576757534E+03 -0.24921086948E+03  0.37351838780E+03  0.00000000000E+00 0.  1.
<mgrwt>
<rscale>  0 0.97624473E+03</rscale>
<asrwt>0</asrwt>
<pdfrwt beam="1">  1        1 0.26022962E+00 0.97624473E+03</pdfrwt>
<pdfrwt beam="2">  1       -1 0.96848433E-01 0.97624473E+03</pdfrwt>
<totfact> 0.50041496E+00</totfact>
</mgrwt>
</event>
<event>
12    1  0.1338445E-007  0.4335987E+03  0.7818608E-02  0.1032729E+00
          2   -1    0    0  501    0  0.00000000000E+00  0.00000000000E+00  0.16336806333E+04  0.16336806333E+04  0.00000000000E+00 0. -1.
         -2   -1    0    0    0  501 -0.00000000000E+00 -0.00000000000E+00 -0.16892209084E+03  0.16892209084E+03  0.00000000000E+00 0.  1.
         23    2    1    2    0    0  0.30267214949E+03 -0.14149152200E+03  0.34218613457E+03  0.48664398931E+03  0.90004115278E+02 0.  0.
    5000000    2    1    2    0    0 -0.30267214949E+03  0.14149152200E+03  0.11225724079E+04  0.13159587348E+04  0.59995691506E+03 0.  0.
         23    2    4    4    0    0  0.94674064824E+02 -0.22444388212E+02  0.27010245158E+02  0.13563096976E+03  0.90549861969E+02 0.  0.
         23    2    4    4    0    0 -0.39734621432E+03  0.16393591021E+03  0.10955621627E+04  0.11803277651E+04  0.90322665361E+02 0.  0.
          1    1    3    3  502    0  0.19638441687E+03 -0.98096015898E+02  0.16133666813E+03  0.27243198786E+03  0.00000000000E+00 0. -1.
         -1    1    3    3    0  502  0.10628773262E+03 -0.43395506098E+02  0.18084946644E+03  0.21421200145E+03  0.00000000000E+00 0.  1.
         13    1    5    5    0    0  0.41137022749E+02  0.28751111944E+01 -0.31871591980E+02  0.52118320007E+02  0.00000000000E+00 0.  1.
        -13    1    5    5    0    0  0.53537042075E+02 -0.25319499406E+02  0.58881837138E+02  0.83512649755E+02  0.00000000000E+00 0. -1.
          1    1    6    6  503    0 -0.55110836761E+02  0.41291140037E+02  0.26274149099E+03  0.27161600406E+03  0.00000000000E+00 0. -1.
         -1    1    6    6    0  503 -0.34223537756E+03  0.12264477017E+03  0.83282067173E+03  0.90871176099E+03  0.00000000000E+00 0.  1.
<mgrwt>
<rscale>  0 0.43359868E+03</rscale>
<asrwt>0</asrwt>
<pdfrwt beam="1">  1        2 0.25133547E+00 0.43359868E+03</pdfrwt>
<pdfrwt beam="2">  1       -2 0.25988015E-01 0.43359868E+03</pdfrwt>
<totfact> 0.15046911E+02</totfact>
</mgrwt>
</event>
<event>
12    1  0.1338445E-007  0.5708747E+03  0.7818608E-02  0.9967745E-01
         -1   -1    0    0    0  501 -0.00000000000E+00  0.00000000000E+00  0.77768057455E+03  0.77768057455E+03  0.00000000000E+00 0.  1.
          1   -1    0    0  501    0  0.00000000000E+00 -0.00000000000E+00 -0.56726774033E+03  0.56726774033E+03  0.00000000000E+00 0. -1.
         23    2    1    2    0    0 -0.10938959562E+03  0.45187520464E+03  0.32887440556E+03  0.57674792935E+03  0.91227820203E+02 0.  0.
    5000000    2    1    2    0    0  0.10938959562E+03 -0.45187520464E+03 -0.11846157134E+03  0.76820038553E+03  0.59995116822E+03 0.  0.
         23    2    4    4    0    0 -0.17741865886E+03 -0.27647969814E+03 -0.21852777192E+03  0.40499508588E+03  0.91368640639E+02 0.  0.
         23    2    4    4    0    0  0.28680825448E+03 -0.17539550650E+03  0.10006620058E+03  0.36320529965E+03  0.94245884051E+02 0.  0.
          1    1    3    3  502    0 -0.40825960518E+02  0.15745908986E+03  0.63917788645E+02  0.17477301776E+03  0.00000000000E+00 0. -1.
         -1    1    3    3    0  502 -0.68563635099E+02  0.29441611478E+03  0.26495661692E+03  0.40197491159E+03  0.00000000000E+00 0.  1.
         11    1    5    5    0    0 -0.18686466872E+02 -0.10577248458E+03 -0.78877736319E+02  0.13326177180E+03  0.00000000000E+00 0.  1.
        -11    1    5    5    0    0 -0.15873219199E+03 -0.17070721357E+03 -0.13965003560E+03  0.27173331408E+03  0.00000000000E+00 0. -1.
          4    1    6    6  503    0  0.15253315690E+03 -0.88775942321E+02  0.10113806686E+03  0.20341199684E+03  0.00000000000E+00 0. -1.
         -4    1    6    6    0  503  0.13427509757E+03 -0.86619564178E+02 -0.10718662783E+01  0.15979330281E+03  0.00000000000E+00 0.  1.
<mgrwt>
<rscale>  0 0.57087470E+03</rscale>
<asrwt>0</asrwt>
<pdfrwt beam="1">  1        1 0.87271960E-01 0.57087470E+03</pdfrwt>
<pdfrwt beam="2">  1       -1 0.11964317E+00 0.57087470E+03</pdfrwt>
<totfact> 0.24253238E+01</totfact>
</mgrwt>
</event>
<event>
12    1  0.1338445E-007  0.1327907E+04  0.7818608E-02  0.9007723E-01
          2   -1    0    0  501    0  0.00000000000E+00  0.00000000000E+00  0.14918371376E+04  0.14918371376E+04  0.00000000000E+00 0. -1.
         -2   -1    0    0    0  501 -0.00000000000E+00 -0.00000000000E+00 -0.20484403942E+04  0.20484403942E+04  0.00000000000E+00 0.  1.
         23    2    1    2    0    0 -0.12968749362E+04 -0.21885370351E+03 -0.13537554700E+04  0.18896103609E+04  0.90509114816E+02 0.  0.
    5000000    2    1    2    0    0  0.12968749362E+04  0.21885370351E+03  0.79715221338E+03  0.16506671709E+04  0.59955726516E+03 0.  0.
         23    2    4    4    0    0  0.61455144100E+03 -0.13769795873E+02  0.74104955304E+02  0.62558045934E+03  0.89421953689E+02 0.  0.
         23    2    4    4    0    0  0.68232349521E+03  0.23262349939E+03  0.72304725807E+03  0.10250867116E+04  0.91249023520E+02 0.  0.
          3    1    3    3  502    0 -0.58879208448E+03 -0.12697525060E+03 -0.67113467928E+03  0.90178744211E+03  0.00000000000E+00 0. -1.
         -3    1    3    3    0  502 -0.70808285173E+03 -0.91878452910E+02 -0.68262079070E+03  0.98782291880E+03  0.00000000000E+00 0.  1.
         13    1    5    5    0    0  0.25085351360E+03  0.19270086960E+02 -0.61615117995E+01  0.25166800703E+03  0.00000000000E+00 0.  1.
        -13    1    5    5    0    0  0.36369792740E+03 -0.33039882833E+02  0.80266467103E+02  0.37391245231E+03  0.00000000000E+00 0. -1.
          3    1    6    6  503    0  0.66538841729E+02  0.71887557384E+01  0.10147900558E+03  0.12156103093E+03  0.00000000000E+00 0. -1.
         -3    1    6    6    0  503  0.61578465348E+03  0.22543474365E+03  0.62156825250E+03  0.90352568066E+03  0.00000000000E+00 0.  1.
<mgrwt>
<rscale>  0 0.13279068E+04</rscale>
<asrwt>0</asrwt>
<pdfrwt beam="1">  1        2 0.22951341E+00 0.13279068E+04</pdfrwt>
<pdfrwt beam="2">  1       -2 0.31514467E+00 0.13279068E+04</pdfrwt>
<totfact> 0.31617286E-01</totfact>
</mgrwt>
</event>
<event>
12    1  0.1338445E-007  0.2164253E+04  0.7818608E-02  0.8533456E-01
          2   -1    0    0  501    0  0.00000000000E+00  0.00000000000E+00  0.26125113545E+04  0.26125113545E+04  0.00000000000E+00 0. -1.
         -2   -1    0    0    0  501 -0.00000000000E+00 -0.00000000000E+00 -0.19439801663E+04  0.19439801663E+04  0.00000000000E+00 0.  1.
         23    2    1    2    0    0 -0.46207183510E+03 -0.20960438171E+04  0.87191202363E+03  0.23185719679E+04  0.92926471264E+02 0.  0.
    5000000    2    1    2    0    0  0.46207183510E+03  0.20960438171E+04 -0.20338083534E+03  0.22379195529E+04  0.60000841416E+03 0.  0.
         23    2    4    4    0    0  0.47656281559E+03  0.19753467330E+04 -0.68896473527E+02  0.20352432132E+04  0.91440581661E+02 0.  0.
         23    2    4    4    0    0 -0.14490980489E+02  0.12069708409E+03 -0.13448436182E+03  0.20267633970E+03  0.90630461095E+02 0.  0.
          4    1    3    3  502    0 -0.42847955329E+03 -0.19361663633E+04  0.83145955285E+03  0.21502697278E+04  0.00000000000E+00 0.  1.
         -4    1    3    3    0  502 -0.33592281809E+02 -0.15987745381E+03  0.40452470779E+02  0.16830224011E+03  0.00000000000E+00 0. -1.
         11    1    5    5    0    0  0.41217769455E+03  0.15500082509E+04 -0.50883758203E+02  0.16046822697E+04  0.00000000000E+00 0.  1.
        -11    1    5    5    0    0  0.64385121038E+02  0.42533848217E+03 -0.18012715324E+02  0.43056094358E+03  0.00000000000E+00 0. -1.
          1    1    6    6  503    0  0.33509491646E+02  0.73365799360E+02 -0.51223910079E+02  0.95547451614E+02  0.00000000000E+00 0. -1.
         -1    1    6    6    0  503 -0.48000472135E+02  0.47331284728E+02 -0.83260451736E+02  0.10712888809E+03  0.00000000000E+00 0.  1.
<mgrwt>
<rscale>  0 0.21642535E+04</rscale>
<asrwt>0</asrwt>
<pdfrwt beam="1">  1        2 0.40192482E+00 0.21642535E+04</pdfrwt>
<pdfrwt beam="2">  1       -2 0.29907387E+00 0.21642535E+04</pdfrwt>
<totfact> 0.84033080E-02</totfact>
</mgrwt>
</event>
<event>
12    1  0.1338445E-007  0.1689485E+04  0.7818608E-02  0.8767385E-01
          2   -1    0    0  501    0  0.00000000000E+00  0.00000000000E+00  0.21389433798E+04  0.21389433798E+04  0.00000000000E+00 0. -1.
         -2   -1    0    0    0  501 -0.00000000000E+00 -0.00000000000E+00 -0.15648607023E+04  0.15648607023E+04  0.00000000000E+00 0.  1.
         23    2    1    2    0    0 -0.11795120927E+04  0.11882786414E+04  0.88869350752E+03  0.18977130103E+04  0.91014354106E+02 0.  0.
    5000000    2    1    2    0    0  0.11795120927E+04 -0.11882786414E+04 -0.31461083000E+03  0.18060910718E+04  0.59977502339E+03 0.  0.
         23    2    4    4    0    0  0.81966422329E+03 -0.62944677316E+03 -0.43278360607E+03  0.11235663028E+04  0.83945862796E+02 0.  0.
         23    2    4    4    0    0  0.35984786946E+03 -0.55883186828E+03  0.11817277607E+03  0.68252476903E+03  0.10045749933E+03 0.  0.
          3    1    3    3  502    0 -0.91973415815E+03  0.97058006347E+03  0.73065523981E+03  0.15237433054E+04  0.00000000000E+00 0. -1.
         -3    1    3    3    0  502 -0.25977793460E+03  0.21769857797E+03  0.15803826771E+03  0.37396970494E+03  0.00000000000E+00 0.  1.
         11    1    5    5    0    0  0.39317196958E+03 -0.32885531979E+03 -0.17532218178E+03  0.54172676364E+03  0.00000000000E+00 0. -1.
        -11    1    5    5    0    0  0.42649225371E+03 -0.30059145337E+03 -0.25746142429E+03  0.58183953914E+03  0.00000000000E+00 0.  1.
          4    1    6    6  503    0  0.18808121931E+03 -0.22615002617E+03  0.87421721392E+02  0.30685654102E+03  0.00000000000E+00 0. -1.
         -4    1    6    6    0  503  0.17176665015E+03 -0.33268184211E+03  0.30751054682E+02  0.37566822801E+03  0.00000000000E+00 0.  1.
<mgrwt>
<rscale>  0 0.16894846E+04</rscale>
<asrwt>0</asrwt>
<pdfrwt beam="1">  1        2 0.32906821E+00 0.16894846E+04</pdfrwt>
<pdfrwt beam="2">  1       -2 0.24074780E+00 0.16894846E+04</pdfrwt>
<totfact> 0.37644125E-01</totfact>
</mgrwt>
</event>
<event>
12    1  0.1338445E-007  0.9660462E+03  0.7818608E-02  0.9346589E-01
          1   -1    0    0  501    0  0.00000000000E+00  0.00000000000E+00  0.12701228602E+04  0.12701228602E+04  0.00000000000E+00 0. -1.
         -1   -1    0    0    0  501 -0.00000000000E+00 -0.00000000000E+00 -0.82088653412E+03  0.82088653412E+03  0.00000000000E+00 0.  1.
         23    2    1    2    0    0  0.75945221883E+03  0.46003326965E+03  0.48952248525E+03  0.10180060029E+04  0.91135483779E+02 0.  0.
    5000000    2    1    2    0    0 -0.75945221883E+03 -0.46003326965E+03 -0.40286159170E+02  0.10730033915E+04  0.60109485241E+03 0.  0.
         23    2    4    4    0    0 -0.69096079184E+03 -0.57696406664E+03 -0.46736659632E+02  0.90590909740E+03  0.90402584799E+02 0.  0.
         23    2    4    4    0    0 -0.68491426992E+02  0.11693079699E+03  0.64505004623E+01  0.16709429406E+03  0.97544898875E+02 0.  0.
          2    1    3    3  502    0  0.50218933752E+03  0.26998057039E+03  0.35026202127E+03  0.66915403507E+03  0.00000000000E+00 0.  1.
         -2    1    3    3    0  502  0.25726288131E+03  0.19005269926E+03  0.13926046398E+03  0.34885196779E+03  0.00000000000E+00 0. -1.
         11    1    5    5    0    0 -0.99582168670E+02 -0.78289814511E+02  0.24676342346E+02  0.12905357509E+03  0.00000000000E+00 0. -1.
        -11    1    5    5    0    0 -0.59137862317E+03 -0.49867425213E+03 -0.71413001979E+02  0.77685552230E+03  0.00000000000E+00 0.  1.
          3    1    6    6  503    0 -0.67772604232E+01  0.51328829487E+02  0.45499239482E+02  0.68925762881E+02  0.00000000000E+00 0. -1.
         -3    1    6    6    0  503 -0.61714166569E+02  0.65601967502E+02 -0.39048739020E+02  0.98168531182E+02  0.00000000000E+00 0.  1.
<mgrwt>
<rscale>  0 0.96604620E+03</rscale>
<asrwt>0</asrwt>
<pdfrwt beam="1">  1        1 0.19540352E+00 0.96604620E+03</pdfrwt>
<pdfrwt beam="2">  1       -1 0.12629024E+00 0.96604620E+03</pdfrwt>
<totfact> 0.52243761E+00</totfact>
</mgrwt>
</event>
<event>
12    1  0.1338445E-007  0.3781685E+03  0.7818608E-02  0.1051613E+00
         -2   -1    0    0    0  501 -0.00000000000E+00  0.00000000000E+00  0.51850263452E+02  0.51850263452E+02  0.00000000000E+00 0.  1.
          2   -1    0    0  501    0  0.00000000000E+00 -0.00000000000E+00 -0.32500602893E+04  0.32500602893E+04  0.00000000000E+00 0. -1.
         23    2    1    2    0    0  0.13216621489E+03  0.13933186954E+02 -0.31637726930E+03  0.35528678589E+03  0.92043911456E+02 0.  0.
    5000000    2    1    2    0    0 -0.13216621489E+03 -0.13933186954E+02 -0.28818327565E+04  0.29466237668E+04  0.59997462005E+03 0.  0.
         23    2    4    4    0    0  0.21704826543E+03  0.66400157447E+02 -0.11162720580E+04  0.11427103827E+04  0.90580245971E+02 0.  0.
         23    2    4    4    0    0 -0.34921448033E+03 -0.80333344401E+02 -0.17655606986E+04  0.18039133841E+04  0.92166792368E+02 0.  0.
          3    1    3    3  502    0  0.75695682569E+02  0.39880926784E+02 -0.25056073227E+03  0.26476594425E+03  0.00000000000E+00 0. -1.
         -3    1    3    3    0  502  0.56470532322E+02 -0.25947739830E+02 -0.65816537038E+02  0.90520841637E+02  0.00000000000E+00 0.  1.
         11    1    5    5    0    0  0.19491112198E+03  0.30328953272E+02 -0.99221614983E+03  0.10116338660E+04  0.00000000000E+00 0. -1.
        -11    1    5    5    0    0  0.22137143457E+02  0.36071204175E+02 -0.12405590814E+03  0.13107651672E+03  0.00000000000E+00 0.  1.
          1    1    6    6  503    0 -0.20963787620E+03 -0.33742580341E+01 -0.10662951676E+04  0.10867128458E+04  0.00000000000E+00 0. -1.
         -1    1    6    6    0  503 -0.13957660413E+03 -0.76959086367E+02 -0.69926553094E+03  0.71720053831E+03  0.00000000000E+00 0.  1.
<mgrwt>
<rscale>  0 0.37816849E+03</rscale>
<asrwt>0</asrwt>
<pdfrwt beam="1">  1        2 0.50000933E+00 0.37816849E+03</pdfrwt>
<pdfrwt beam="2">  1       -2 0.79769627E-02 0.37816849E+03</pdfrwt>
<totfact> 0.13521495E+02</totfact>
</mgrwt>
</event>
<event>
12    1  0.1338445E-007  0.5574513E+03  0.7818608E-02  0.9997838E-01
          2   -1    0    0  501    0  0.00000000000E+00  0.00000000000E+00  0.14333079200E+04  0.14333079200E+04  0.00000000000E+00 0. -1.
         -2   -1    0    0    0  501 -0.00000000000E+00 -0.00000000000E+00 -0.36792029591E+03  0.36792029591E+03  0.00000000000E+00 0.  1.
         23    2    1    2    0    0 -0.41161372693E+03  0.13408857386E+03  0.95601725027E+03  0.10532628338E+04  0.89375659030E+02 0.  0.
    5000000    2    1    2    0    0  0.41161372693E+03 -0.13408857386E+03  0.10937037387E+03  0.74796538214E+03  0.60007060282E+03 0.  0.
         23    2    4    4    0    0  0.23605606177E+03  0.19082049013E+03 -0.74299615564E+02  0.32567233778E+03  0.91690321049E+02 0.  0.
         23    2    4    4    0    0  0.17555766516E+03 -0.32490906399E+03  0.18366998943E+03  0.42229304436E+03  0.90611018296E+02 0.  0.
          4    1    3    3  502    0 -0.36349515317E+03  0.99434931794E+02  0.75725153986E+03  0.84584036713E+03  0.00000000000E+00 0. -1.
         -4    1    3    3    0  502 -0.48118573759E+02  0.34653642064E+02  0.19876571040E+03  0.20742246667E+03  0.00000000000E+00 0.  1.
         11    1    5    5    0    0  0.22501982696E+03  0.17765707981E+03 -0.91911074456E+02  0.30107076600E+03  0.00000000000E+00 0. -1.
        -11    1    5    5    0    0  0.11036234807E+02  0.13163410321E+02  0.17611458892E+02  0.24601571785E+02  0.00000000000E+00 0.  1.
          2    1    6    6  503    0 -0.25566945115E+01 -0.31744034809E+02 -0.25966747034E+01  0.31952514021E+02  0.00000000000E+00 0. -1.
         -2    1    6    6    0  503  0.17811435967E+03 -0.29316502918E+03  0.18626666414E+03  0.39034053034E+03  0.00000000000E+00 0.  1.
<mgrwt>
<rscale>  0 0.55745125E+03</rscale>
<asrwt>0</asrwt>
<pdfrwt beam="1">  1        2 0.22050891E+00 0.55745125E+03</pdfrwt>
<pdfrwt beam="2">  1       -2 0.56603123E-01 0.55745125E+03</pdfrwt>
<totfact> 0.42411166E+01</totfact>
</mgrwt>
</event>
<event>
12    1  0.1338445E-007  0.2073242E+04  0.7818608E-02  0.8573123E-01
         -1   -1    0    0    0  501 -0.00000000000E+00  0.00000000000E+00  0.13160106715E+04  0.13160106715E+04  0.00000000000E+00 0.  1.
          1   -1    0    0  501    0  0.00000000000E+00 -0.00000000000E+00 -0.36203297745E+04  0.36203297745E+04  0.00000000000E+00 0. -1.
         23    2    1    2    0    0  0.19514654340E+04  0.68536399767E+03 -0.50746756701E+03  0.21315318362E+04  0.89238375934E+02 0.  0.
    5000000    2    1    2    0    0 -0.19514654340E+04 -0.68536399767E+03 -0.17968515360E+04  0.28048086098E+04  0.60027888993E+03 0.  0.
         23    2    4    4    0    0 -0.14137684609E+04 -0.45891055972E+03 -0.92760405803E+03  0.17539485903E+04  0.80908626585E+02 0.  0.
         23    2    4    4    0    0 -0.53769697307E+03 -0.22645343795E+03 -0.86924747794E+03  0.10508600195E+04  0.91194343482E+02 0.  0.
          2    1    3    3  502    0  0.18197597459E+04  0.65171314300E+03 -0.45460967021E+03  0.19856801116E+04  0.00000000000E+00 0. -1.
         -2    1    3    3    0  502  0.13170568815E+03  0.33650854671E+02 -0.52857896805E+02  0.14585172459E+03  0.00000000000E+00 0.  1.
         11    1    5    5    0    0 -0.10568797809E+04 -0.30573242471E+03 -0.68633080562E+03  0.12967332654E+04  0.00000000000E+00 0. -1.
        -11    1    5    5    0    0 -0.35688868006E+03 -0.15317813501E+03 -0.24127325242E+03  0.45721532491E+03  0.00000000000E+00 0.  1.
          3    1    6    6  503    0 -0.15659549690E+02  0.70122998468E+01 -0.14565175438E+02  0.22506403115E+02  0.00000000000E+00 0. -1.
         -3    1    6    6    0  503 -0.52203742338E+03 -0.23346573780E+03 -0.85468230250E+03  0.10283536164E+04  0.00000000000E+00 0.  1.
<mgrwt>
<rscale>  0 0.20732418E+04</rscale>
<asrwt>0</asrwt>
<pdfrwt beam="1">  1        1 0.55697381E+00 0.20732418E+04</pdfrwt>
<pdfrwt beam="2">  1       -1 0.20246318E+00 0.20732418E+04</pdfrwt>
<totfact> 0.25728196E-02</totfact>
</mgrwt>
</event>
<event>
12    1  0.1338445E-007  0.6762643E+03  0.7818608E-02  0.9758707E-01
         -1   -1    0    0    0  501 -0.00000000000E+00  0.00000000000E+00  0.11871214737E+04  0.11871214737E+04  0.00000000000E+00 0.  1.
          1   -1    0    0  501    0  0.00000000000E+00 -0.00000000000E+00 -0.39242334382E+03  0.39242334382E+03  0.00000000000E+00 0. -1.
         23    2    1    2    0    0 -0.24819814825E+03 -0.48303094071E+03  0.38962409199E+03  0.67449053836E+03  0.90605423694E+02 0.  0.
    5000000    2    1    2    0    0  0.24819814825E+03  0.48303094071E+03  0.40507403792E+03  0.90505427919E+03  0.60009754340E+03 0.  0.
         23    2    4    4    0    0  0.20158842429E+03 -0.80847762839E+02  0.11834938249E+03  0.26430789300E+03  0.93154883938E+02 0.  0.
         23    2    4    4    0    0  0.46609723961E+02  0.56387870355E+03  0.28672465543E+03  0.64074638619E+03  0.90626953456E+02 0.  0.
          3    1    3    3  502    0 -0.23917456447E+03 -0.41090441748E+03  0.31506430446E+03  0.57036166468E+03  0.00000000000E+00 0. -1.
         -3    1    3    3    0  502 -0.90235837842E+01 -0.72126523228E+02  0.74559787532E+02  0.10412887368E+03  0.00000000000E+00 0.  1.
         13    1    5    5    0    0  0.62643389704E+02 -0.71566723042E+02  0.31504638436E+02  0.10019247658E+03  0.00000000000E+00 0.  1.
        -13    1    5    5    0    0  0.13894503459E+03 -0.92810397975E+01  0.86844744050E+02  0.16411541642E+03  0.00000000000E+00 0. -1.
          3    1    6    6  503    0  0.44657628614E+02  0.15913561238E+03  0.11342317840E+03  0.20045763722E+03  0.00000000000E+00 0. -1.
         -3    1    6    6    0  503  0.19520953468E+01  0.40474309117E+03  0.17330147704E+03  0.44028874897E+03  0.00000000000E+00 0.  1.
<mgrwt>
<rscale>  0 0.67626425E+03</rscale>
<asrwt>0</asrwt>
<pdfrwt beam="1">  1        1 0.60372823E-01 0.67626425E+03</pdfrwt>
<pdfrwt beam="2">  1       -1 0.18263407E+00 0.67626425E+03</pdfrwt>
<totfact> 0.12736383E+01</totfact>
</mgrwt>
</event>
<event>
12    1  0.1338445E-007  0.3640462E+03  0.7818608E-02  0.1056993E+00
          1   -1    0    0  501    0  0.00000000000E+00  0.00000000000E+00  0.43883676211E+03  0.43883676211E+03  0.00000000000E+00 0. -1.
         -1   -1    0    0    0  501 -0.00000000000E+00 -0.00000000000E+00 -0.40136979021E+03  0.40136979021E+03  0.00000000000E+00 0.  1.
         23    2    1    2    0    0 -0.29113085476E+02  0.17635696631E+03 -0.54687445811E+02  0.20798716912E+03  0.91206329155E+02 0.  0.
    5000000    2    1    2    0    0  0.29113085476E+02 -0.17635696631E+03  0.92154417707E+02  0.63221938319E+03  0.59938264946E+03 0.  0.
         23    2    4    4    0    0 -0.20896570341E+03 -0.18371007939E+03 -0.10291107393E+03  0.31038050793E+03  0.91265065036E+02 0.  0.
         23    2    4    4    0    0  0.23807878888E+03  0.73531130774E+01  0.19506549164E+03  0.32183887527E+03  0.93777063378E+02 0.  0.
          3    1    3    3  502    0 -0.30105014177E+02  0.71862300443E+02  0.18905914948E+02  0.80174408158E+02  0.00000000000E+00 0. -1.
         -3    1    3    3    0  502  0.99192870065E+00  0.10449466587E+03 -0.73593360759E+02  0.12781276096E+03  0.00000000000E+00 0.  1.
         11    1    5    5    0    0 -0.10508014895E+03 -0.35678264539E+02 -0.51689367477E+02  0.12241963475E+03  0.00000000000E+00 0. -1.
        -11    1    5    5    0    0 -0.10388555446E+03 -0.14803181485E+03 -0.51221706454E+02  0.18796087317E+03  0.00000000000E+00 0.  1.
          2    1    6    6  503    0  0.64184454305E+02  0.41788741930E+02  0.78524665020E+02  0.10969077510E+03  0.00000000000E+00 0. -1.
         -2    1    6    6    0  503  0.17389433458E+03 -0.34435628853E+02  0.11654082662E+03  0.21214810016E+03  0.00000000000E+00 0.  1.
<mgrwt>
<rscale>  0 0.36404615E+03</rscale>
<asrwt>0</asrwt>
<pdfrwt beam="1">  1        1 0.67513348E-01 0.36404615E+03</pdfrwt>
<pdfrwt beam="2">  1       -1 0.61749198E-01 0.36404615E+03</pdfrwt>
<totfact> 0.14741485E+02</totfact>
</mgrwt>
</event>
<event>
12    1  0.1338445E-007  0.5695207E+03  0.7818608E-02  0.9970740E-01
         -2   -1    0    0    0  501 -0.00000000000E+00  0.00000000000E+00  0.49896614066E+03  0.49896614066E+03  0.00000000000E+00 0.  1.
          2   -1    0    0  501    0  0.00000000000E+00 -0.00000000000E+00 -0.17908071394E+04  0.17908071394E+04  0.00000000000E+00 0. -1.
         23    2    1    2    0    0  0.27241690367E+03 -0.46824987811E+03 -0.13714124441E+04  0.14775146363E+04  0.93853560512E+02 0.  0.
    5000000    2    1    2    0    0 -0.27241690367E+03  0.46824987811E+03  0.79571445321E+02  0.81225864382E+03  0.59996964240E+03 0.  0.
         23    2    4    4    0    0 -0.15086387934E+02  0.15634578551E+03  0.29393543121E+03  0.34601401940E+03  0.93037950048E+02 0.  0.
         23    2    4    4    0    0 -0.25733051573E+03  0.31190409259E+03 -0.21436398589E+03  0.46624462442E+03  0.89044786771E+02 0.  0.
          3    1    3    3  502    0  0.18566632865E+03 -0.39023275989E+03 -0.10424410891E+04  0.11284666662E+04  0.00000000000E+00 0. -1.
         -3    1    3    3    0  502  0.86750575021E+02 -0.78017118224E+02 -0.32897135502E+03  0.34904797009E+03  0.00000000000E+00 0.  1.
         13    1    5    5    0    0 -0.40098656814E+02  0.34877002697E+02  0.53116929119E+02  0.75137978110E+02  0.00000000000E+00 0. -1.
        -13    1    5    5    0    0  0.25012268880E+02  0.12146878282E+03  0.24081850209E+03  0.27087604129E+03  0.00000000000E+00 0.  1.
          4    1    6    6  503    0 -0.64333892256E+02  0.14214268872E+03 -0.96686187302E+02  0.18355275117E+03  0.00000000000E+00 0.  1.
         -4    1    6    6    0  503 -0.19299662348E+03  0.16976140388E+03 -0.11767779859E+03  0.28269187325E+03  0.00000000000E+00 0. -1.
<mgrwt>
<rscale>  0 0.56952067E+03</rscale>
<asrwt>0</asrwt>
<pdfrwt beam="1">  1        2 0.27550879E+00 0.56952067E+03</pdfrwt>
<pdfrwt beam="2">  1       -2 0.76764021E-01 0.56952067E+03</pdfrwt>
<totfact> 0.14038561E+01</totfact>
</mgrwt>
</event>
<event>
12    1  0.1338445E-007  0.9184884E+03  0.7818608E-02  0.9402761E-01
         -2   -1    0    0    0  501 -0.00000000000E+00  0.00000000000E+00  0.86364480346E+03  0.86364480346E+03  0.00000000000E+00 0.  1.
          2   -1    0    0  501    0  0.00000000000E+00 -0.00000000000E+00 -0.13834428545E+04  0.13834428545E+04  0.00000000000E+00 0. -1.
         23    2    1    2    0    0 -0.84955861088E+03  0.26712270146E+03 -0.72691228815E+03  0.11534810184E+04  0.94934789207E+02 0.  0.
    5000000    2    1    2    0    0  0.84955861088E+03 -0.26712270146E+03  0.20711423708E+03  0.10936066396E+04  0.59997900296E+03 0.  0.
         23    2    4    4    0    0  0.49453985270E+03 -0.26613434498E+02  0.37014705435E+03  0.62654598281E+03  0.10135623279E+03 0.  0.
         23    2    4    4    0    0  0.35501875818E+03 -0.24050926697E+03 -0.16303281728E+03  0.46706065678E+03  0.87652332814E+02 0.  0.
          3    1    3    3  502    0 -0.77113279951E+03  0.21497560545E+03 -0.66564584816E+03  0.10411266496E+04  0.00000000000E+00 0. -1.
         -3    1    3    3    0  502 -0.78425811366E+02  0.52147096011E+02 -0.61266439984E+02  0.11235436876E+03  0.00000000000E+00 0.  1.
         11    1    5    5    0    0  0.15487008859E+03  0.38689098140E+02  0.11743124879E+03  0.19817085771E+03  0.00000000000E+00 0. -1.
        -11    1    5    5    0    0  0.33966976411E+03 -0.65302532638E+02  0.25271580556E+03  0.42837512510E+03  0.00000000000E+00 0.  1.
          4    1    6    6  503    0  0.19615068054E+03 -0.18157855796E+03 -0.11463494767E+03  0.29083850057E+03  0.00000000000E+00 0. -1.
         -4    1    6    6    0  503  0.15886807764E+03 -0.58930709006E+02 -0.48397869608E+02  0.17622215621E+03  0.00000000000E+00 0.  1.
<mgrwt>
<rscale>  0 0.91848845E+03</rscale>
<asrwt>0</asrwt>
<pdfrwt beam="1">  1        2 0.21283736E+00 0.91848845E+03</pdfrwt>
<pdfrwt beam="2">  1       -2 0.13286843E+00 0.91848845E+03</pdfrwt>
<totfact> 0.60867460E+00</totfact>
</mgrwt>
</event>
<event>
12    1  0.1338445E-007  0.1264692E+04  0.7818608E-02  0.9058043E-01
         -2   -1    0    0    0  501 -0.00000000000E+00  0.00000000000E+00  0.17971491326E+04  0.17971491326E+04  0.00000000000E+00 0.  1.
          2   -1    0    0  501    0  0.00000000000E+00 -0.00000000000E+00 -0.98374595505E+03  0.98374595505E+03  0.00000000000E+00 0. -1.
         23    2    1    2    0    0  0.75331157788E+02 -0.12000138841E+04  0.78301152268E+03  0.14372901770E+04  0.83593677019E+02 0.  0.
    5000000    2    1    2    0    0 -0.75331157788E+02  0.12000138841E+04  0.30391654900E+02  0.13436049107E+04  0.59886759629E+03 0.  0.
         23    2    4    4    0    0 -0.28954698561E+03  0.39525468030E+03 -0.57396136883E+02  0.50136011221E+03  0.89464665743E+02 0.  0.
         23    2    4    4    0    0  0.21421582782E+03  0.80475920382E+03  0.87787791783E+02  0.84224479847E+03  0.90243044776E+02 0.  0.
          2    1    3    3  502    0  0.48148214138E+02 -0.59451634504E+03  0.34023365514E+03  0.68667814523E+03  0.00000000000E+00 0.  1.
         -2    1    3    3    0  502  0.27182943651E+02 -0.60549753908E+03  0.44277786754E+03  0.75061203177E+03  0.00000000000E+00 0. -1.
         11    1    5    5    0    0 -0.29166570029E+02  0.14401919867E+02 -0.20685607773E+02  0.38548650716E+02  0.00000000000E+00 0. -1.
        -11    1    5    5    0    0 -0.26038041558E+03  0.38085276043E+03 -0.36710529111E+02  0.46281146150E+03  0.00000000000E+00 0.  1.
          3    1    6    6  503    0  0.12943850676E+03  0.51586226485E+03  0.12982995076E+02  0.53201199375E+03  0.00000000000E+00 0. -1.
         -3    1    6    6    0  503  0.84777321058E+02  0.28889693897E+03  0.74804796707E+02  0.31023280472E+03  0.00000000000E+00 0.  1.
<mgrwt>
<rscale>  0 0.12646923E+04</rscale>
<asrwt>0</asrwt>
<pdfrwt beam="1">  1        2 0.15134553E+00 0.12646923E+04</pdfrwt>
<pdfrwt beam="2">  1       -2 0.27648448E+00 0.12646923E+04</pdfrwt>
<totfact> 0.11068410E+00</totfact>
</mgrwt>
</event>
<event>
12    1  0.1338445E-007  0.1397001E+04  0.7818608E-02  0.8955992E-01
         -2   -1    0    0    0  501 -0.00000000000E+00  0.00000000000E+00  0.15950182807E+04  0.15950182807E+04  0.00000000000E+00 0.  1.
          2   -1    0    0  501    0  0.00000000000E+00 -0.00000000000E+00 -0.14126496947E+04  0.14126496947E+04  0.00000000000E+00 0. -1.
         23    2    1    2    0    0  0.12967637328E+04 -0.49986235024E+03  0.46367586717E+03  0.14679793967E+04  0.92247772500E+02 0.  0.
    5000000    2    1    2    0    0 -0.12967637328E+04  0.49986235024E+03 -0.28130728109E+03  0.15396885787E+04  0.60004048634E+03 0.  0.
         23    2    4    4    0    0 -0.42490701217E+03  0.86658882437E+02  0.16370690038E+03  0.47333047430E+03  0.95843923998E+02 0.  0.
         23    2    4    4    0    0 -0.87185672058E+03  0.41320346780E+03 -0.44501418148E+03  0.10663581044E+04  0.90613123265E+02 0.  0.
          4    1    3    3  502    0  0.43636638137E+03 -0.17314724624E+03  0.11121431063E+03  0.48245643385E+03  0.00000000000E+00 0. -1.
         -4    1    3    3    0  502  0.86039735138E+03 -0.32671510400E+03  0.35246155654E+03  0.98552296284E+03  0.00000000000E+00 0.  1.
         13    1    5    5    0    0 -0.22377733735E+03  0.79158973304E+02  0.51469647609E+02  0.24288179099E+03  0.00000000000E+00 0. -1.
        -13    1    5    5    0    0 -0.20112967482E+03  0.74999091330E+01  0.11223725277E+03  0.23044868331E+03  0.00000000000E+00 0.  1.
          3    1    6    6  503    0 -0.48604239877E+03  0.25116386608E+03 -0.20706640721E+03  0.58497606620E+03  0.00000000000E+00 0. -1.
         -3    1    6    6    0  503 -0.38581432181E+03  0.16203960173E+03 -0.23794777427E+03  0.48138203822E+03  0.00000000000E+00 0.  1.
<mgrwt>
<rscale>  0 0.13970007E+04</rscale>
<asrwt>0</asrwt>
<pdfrwt beam="1">  1        2 0.21733072E+00 0.13970007E+04</pdfrwt>
<pdfrwt beam="2">  1       -2 0.24538743E+00 0.13970007E+04</pdfrwt>
<totfact> 0.92846237E-01</totfact>
</mgrwt>
</event>
<event>
12    1  0.1338445E-007  0.7828337E+03  0.7818608E-02  0.9585203E-01
         -4   -1    0    0    0  501 -0.00000000000E+00  0.00000000000E+00  0.59667195669E+03  0.59667195669E+03  0.00000000000E+00 0.  1.
          4   -1    0    0  501    0  0.00000000000E+00 -0.00000000000E+00 -0.12250342190E+04  0.12250342190E+04  0.00000000000E+00 0. -1.
         23    2    1    2    0    0 -0.43246301165E+03  0.60648755928E+03 -0.33183452399E+03  0.82034376905E+03  0.89433394769E+02 0.  0.
    5000000    2    1    2    0    0  0.43246301165E+03 -0.60648755928E+03 -0.29652773828E+03  0.10013624066E+04  0.59995545984E+03 0.  0.
         23    2    4    4    0    0 -0.17204407625E+02 -0.18829362505E+03 -0.31788629378E+03  0.37941701579E+03  0.84587795901E+02 0.  0.
         23    2    4    4    0    0  0.44966741927E+03 -0.41819393423E+03  0.21358555504E+02  0.62194539082E+03  0.96296036737E+02 0.  0.
          3    1    3    3  502    0 -0.13537233676E+03  0.18817545880E+03 -0.14947389224E+03  0.27582261930E+03  0.00000000000E+00 0.  1.
         -3    1    3    3    0  502 -0.29709067489E+03  0.41831210048E+03 -0.18236063174E+03  0.54452114975E+03  0.00000000000E+00 0. -1.
         11    1    5    5    0    0  0.22233090254E+01 -0.17645803513E+03 -0.23757781179E+03  0.29594864068E+03  0.00000000000E+00 0. -1.
        -11    1    5    5    0    0 -0.19427716651E+02 -0.11835589923E+02 -0.80308481991E+02  0.83468375105E+02  0.00000000000E+00 0.  1.
          4    1    6    6  503    0  0.22676440357E+03 -0.14581654554E+03  0.11656211684E+02  0.26985260227E+03  0.00000000000E+00 0.  1.
         -4    1    6    6    0  503  0.22290301571E+03 -0.27237738869E+03  0.97023438200E+01  0.35209278856E+03  0.00000000000E+00 0. -1.
<mgrwt>
<rscale>  0 0.78283366E+03</rscale>
<asrwt>0</asrwt>
<pdfrwt beam="1">  1        4 0.18846680E+00 0.78283366E+03</pdfrwt>
<pdfrwt beam="2">  1       -4 0.91795687E-01 0.78283366E+03</pdfrwt>
<totfact> 0.31082463E-01</totfact>
</mgrwt>
</event>
<event>
12    1  0.1338445E-007  0.8979375E+03  0.7818608E-02  0.9428163E-01
         -2   -1    0    0    0  501 -0.00000000000E+00  0.00000000000E+00  0.35970943655E+03  0.35970943655E+03  0.00000000000E+00 0.  1.
          2   -1    0    0  501    0  0.00000000000E+00 -0.00000000000E+00 -0.22976863567E+04  0.22976863567E+04  0.00000000000E+00 0. -1.
         23    2    1    2    0    0  0.52320475851E+03  0.61490374107E+03 -0.84715585580E+03  0.11736234345E+04  0.88707902606E+02 0.  0.
    5000000    2    1    2    0    0 -0.52320475851E+03 -0.61490374107E+03 -0.10908210643E+04  0.14837723587E+04  0.59986664177E+03 0.  0.
         23    2    4    4    0    0 -0.22668852001E+03 -0.64405250546E+03 -0.79288910026E+03  0.10514695298E+04  0.10355545275E+03 0.  0.
         23    2    4    4    0    0 -0.29651623850E+03  0.29148764394E+02 -0.29793196407E+03  0.43230282894E+03  0.96699278842E+02 0.  0.
          2    1    3    3  502    0  0.18876093198E+03  0.26830127365E+03 -0.29825809777E+03  0.44336684109E+03  0.00000000000E+00 0. -1.
         -2    1    3    3    0  502  0.33444382653E+03  0.34660246741E+03 -0.54889775803E+03  0.73025659346E+03  0.00000000000E+00 0.  1.
         13    1    5    5    0    0 -0.57101210076E+02 -0.86938634246E+02 -0.16539590942E+03  0.19538342092E+03  0.00000000000E+00 0. -1.
        -13    1    5    5    0    0 -0.16958730993E+03 -0.55711387121E+03 -0.62749319084E+03  0.85608610883E+03  0.00000000000E+00 0.  1.
          4    1    6    6  503    0 -0.27236166332E+03  0.17314637884E+02 -0.29970833262E+03  0.40534646535E+03  0.00000000000E+00 0. -1.
         -4    1    6    6    0  503 -0.24154575187E+02  0.11834126510E+02  0.17763685451E+01  0.26956363588E+02  0.00000000000E+00 0.  1.
<mgrwt>
<rscale>  0 0.89793752E+03</rscale>
<asrwt>0</asrwt>
<pdfrwt beam="1">  1        2 0.35349020E+00 0.89793752E+03</pdfrwt>
<pdfrwt beam="2">  1       -2 0.55339915E-01 0.89793752E+03</pdfrwt>
<totfact> 0.14246968E+01</totfact>
</mgrwt>
</event>
<event>
12    1  0.1338445E-007  0.6236716E+03  0.7818608E-02  0.9857477E-01
          1   -1    0    0  501    0  0.00000000000E+00  0.00000000000E+00  0.10475212355E+04  0.10475212355E+04  0.00000000000E+00 0. -1.
         -1   -1    0    0    0  501 -0.00000000000E+00 -0.00000000000E+00 -0.41469375449E+03  0.41469375449E+03  0.00000000000E+00 0.  1.
         23    2    1    2    0    0 -0.37493067396E+03 -0.35675632319E+03  0.25371964308E+03  0.58369937001E+03  0.92104358510E+02 0.  0.
    5000000    2    1    2    0    0  0.37493067396E+03  0.35675632319E+03  0.37910783796E+03  0.87851562000E+03  0.60018235344E+03 0.  0.
         23    2    4    4    0    0  0.45391914393E+03  0.38922460262E+03  0.15879128930E+03  0.62500761619E+03  0.88777622349E+02 0.  0.
         23    2    4    4    0    0 -0.78988469975E+02 -0.32468279429E+02  0.22031654867E+03  0.25350800381E+03  0.91834409801E+02 0.  0.
          3    1    3    3  502    0 -0.12009441460E+03 -0.59182290559E+02  0.65920205995E+02  0.14923366072E+03  0.00000000000E+00 0.  1.
         -3    1    3    3    0  502 -0.25483625936E+03 -0.29757403263E+03  0.18779943708E+03  0.43446570929E+03  0.00000000000E+00 0. -1.
         13    1    5    5    0    0  0.35309485906E+03  0.33214698068E+03  0.99552144499E+02  0.49488203215E+03  0.00000000000E+00 0. -1.
        -13    1    5    5    0    0  0.10082428487E+03  0.57077621937E+02  0.59239144799E+02  0.13012558404E+03  0.00000000000E+00 0.  1.
          3    1    6    6  503    0 -0.68206173092E+02  0.17106886023E+02  0.15946827981E+03  0.17428384854E+03  0.00000000000E+00 0. -1.
         -3    1    6    6    0  503 -0.10782296883E+02 -0.49575165452E+02  0.60848268854E+02  0.79224155270E+02  0.00000000000E+00 0.  1.
<mgrwt>
<rscale>  0 0.62367159E+03</rscale>
<asrwt>0</asrwt>
<pdfrwt beam="1">  1        1 0.16115711E+00 0.62367159E+03</pdfrwt>
<pdfrwt beam="2">  1       -1 0.63799039E-01 0.62367159E+03</pdfrwt>
<totfact> 0.36085616E+01</totfact>
</mgrwt>
</event>
<event>
12    1  0.1338445E-007  0.1119576E+04  0.7818608E-02  0.9186319E-01
         -2   -1    0    0    0  501 -0.00000000000E+00  0.00000000000E+00  0.44109504230E+03  0.44109504230E+03  0.00000000000E+00 0.  1.
          2   -1    0    0  501    0  0.00000000000E+00 -0.00000000000E+00 -0.33980644935E+04  0.33980644935E+04  0.00000000000E+00 0. -1.
         23    2    1    2    0    0  0.10434968814E+04 -0.23522665963E+03 -0.20503849698E+04  0.23140810720E+04  0.81702879150E+02 0.  0.
    5000000    2    1    2    0    0 -0.10434968814E+04  0.23522665963E+03 -0.90658448145E+03  0.15250784638E+04  0.59979294419E+03 0.  0.
         23    2    4    4    0    0 -0.22590198005E+03 -0.13436919887E+03 -0.41023805150E+03  0.49555032739E+03  0.90488020665E+02 0.  0.
         23    2    4    4    0    0 -0.81759490138E+03  0.36959585850E+03 -0.49634642995E+03  0.10295281364E+04  0.92227348568E+02 0.  0.
          3    1    3    3  502    0  0.68176563150E+03 -0.11387929195E+03 -0.13111894895E+04  0.14822249312E+04  0.00000000000E+00 0. -1.
         -3    1    3    3    0  502  0.36173124993E+03 -0.12134736768E+03 -0.73919548031E+03  0.83185614076E+03  0.00000000000E+00 0.  1.
         13    1    5    5    0    0 -0.14128778536E+03 -0.10348623239E+03 -0.19430565129E+03  0.26158425929E+03  0.00000000000E+00 0.  1.
        -13    1    5    5    0    0 -0.84614194686E+02 -0.30882966483E+02 -0.21593240021E+03  0.23396606810E+03  0.00000000000E+00 0. -1.
          3    1    6    6  503    0 -0.11745073356E+03  0.87019222388E+02 -0.96674795960E+02  0.17525135107E+03  0.00000000000E+00 0. -1.
         -3    1    6    6    0  503 -0.70014416783E+03  0.28257663611E+03 -0.39967163399E+03  0.85427678537E+03  0.00000000000E+00 0.  1.
<mgrwt>
<rscale>  0 0.11195765E+04</rscale>
<asrwt>0</asrwt>
<pdfrwt beam="1">  1        2 0.52277912E+00 0.11195765E+04</pdfrwt>
<pdfrwt beam="2">  1       -2 0.67860780E-01 0.11195765E+04</pdfrwt>
<totfact> 0.19294397E+00</totfact>
</mgrwt>
</event>
<event>
12    1  0.1338445E-007  0.6035523E+03  0.7818608E-02  0.9898063E-01
         -1   -1    0    0    0  501 -0.00000000000E+00  0.00000000000E+00  0.42458009576E+03  0.42458009576E+03  0.00000000000E+00 0.  1.
          1   -1    0    0  501    0  0.00000000000E+00 -0.00000000000E+00 -0.13261278545E+04  0.13261278545E+04  0.00000000000E+00 0. -1.
         23    2    1    2    0    0  0.35143159176E+03 -0.32456527840E+03  0.91466228139E+02  0.49578180436E+03  0.92664680512E+02 0.  0.
    5000000    2    1    2    0    0 -0.35143159176E+03  0.32456527840E+03 -0.99301398684E+03  0.12549261459E+04  0.59993005417E+03 0.  0.
         23    2    4    4    0    0  0.19725018391E+02  0.33967365844E+03 -0.65980474771E+03  0.74698515405E+03  0.82929154626E+02 0.  0.
         23    2    4    4    0    0 -0.37115661015E+03 -0.15108380041E+02 -0.33320923913E+03  0.50794099181E+03  0.94816463315E+02 0.  0.
          4    1    3    3  502    0  0.30405968314E+02 -0.24805964175E+02  0.35675413283E+02  0.53033893697E+02  0.00000000000E+00 0. -1.
         -4    1    3    3    0  502  0.32102562345E+03 -0.29975931423E+03  0.55790814856E+02  0.44274791066E+03  0.00000000000E+00 0.  1.
         13    1    5    5    0    0 -0.16532942020E+02  0.20965385614E+03 -0.46079403079E+03  0.50651674836E+03  0.00000000000E+00 0. -1.
        -13    1    5    5    0    0  0.36257960411E+02  0.13001980231E+03 -0.19901071692E+03  0.24046840569E+03  0.00000000000E+00 0.  1.
          3    1    6    6  503    0 -0.14732019601E+03 -0.52552032420E+02 -0.13377150627E+03  0.20581489779E+03  0.00000000000E+00 0. -1.
         -3    1    6    6    0  503 -0.22383641414E+03  0.37443652379E+02 -0.19943773286E+03  0.30212609402E+03  0.00000000000E+00 0.  1.
<mgrwt>
<rscale>  0 0.60355229E+03</rscale>
<asrwt>0</asrwt>
<pdfrwt beam="1">  1        1 0.20401967E+00 0.60355229E+03</pdfrwt>
<pdfrwt beam="2">  1       -1 0.65320016E-01 0.60355229E+03</pdfrwt>
<totfact> 0.21696891E+01</totfact>
</mgrwt>
</event>
<event>
12    1  0.1338445E-007  0.3447042E+03  0.7818608E-02  0.1064810E+00
         -2   -1    0    0    0  501 -0.00000000000E+00  0.00000000000E+00  0.14631265174E+03  0.14631265174E+03  0.00000000000E+00 0.  1.
          2   -1    0    0  501    0  0.00000000000E+00 -0.00000000000E+00 -0.10729130985E+04  0.10729130985E+04  0.00000000000E+00 0. -1.
         23    2    1    2    0    0  0.12068879639E+03  0.86289885007E+02 -0.16206107668E+03  0.23622615347E+03  0.86759859257E+02 0.  0.
    5000000    2    1    2    0    0 -0.12068879639E+03 -0.86289885007E+02 -0.76453937010E+03  0.98299959679E+03  0.59979665641E+03 0.  0.
         23    2    4    4    0    0 -0.29895137636E+03  0.54690002939E+02 -0.62450424058E+03  0.70089059234E+03  0.94229263363E+02 0.  0.
         23    2    4    4    0    0  0.17826257998E+03 -0.14097988795E+03 -0.14003512952E+03  0.28210900445E+03  0.91229253372E+02 0.  0.
          1    1    3    3  502    0  0.97187765254E+02  0.69894206203E+02 -0.16865551810E+03  0.20682201421E+03  0.00000000000E+00 0. -1.
         -1    1    3    3    0  502  0.23501031134E+02  0.16395678805E+02  0.65944414194E+01  0.29404139258E+02  0.00000000000E+00 0.  1.
         13    1    5    5    0    0 -0.18051255706E+03  0.40073784611E+02 -0.47417451655E+03  0.50895202486E+03  0.00000000000E+00 0. -1.
        -13    1    5    5    0    0 -0.11843881931E+03  0.14616218328E+02 -0.15032972404E+03  0.19193856748E+03  0.00000000000E+00 0.  1.
          4    1    6    6  503    0  0.12955088210E+03 -0.61097840136E+02 -0.48517208252E+02  0.15122928492E+03  0.00000000000E+00 0. -1.
         -4    1    6    6    0  503  0.48711697879E+02 -0.79882047810E+02 -0.91517921263E+02  0.13087971953E+03  0.00000000000E+00 0.  1.
<mgrwt>
<rscale>  0 0.34470423E+03</rscale>
<asrwt>0</asrwt>
<pdfrwt beam="1">  1        2 0.16506356E+00 0.34470423E+03</pdfrwt>
<pdfrwt beam="2">  1       -2 0.22509638E-01 0.34470423E+03</pdfrwt>
<totfact> 0.40523005E+02</totfact>
</mgrwt>
</event>
<event>
12    1  0.1338445E-007  0.4117252E+03  0.7818608E-02  0.1039794E+00
          1   -1    0    0  501    0  0.00000000000E+00  0.00000000000E+00  0.77143151722E+03  0.77143151722E+03  0.00000000000E+00 0. -1.
         -1   -1    0    0    0  501 -0.00000000000E+00 -0.00000000000E+00 -0.12063030094E+04  0.12063030094E+04  0.00000000000E+00 0.  1.
         23    2    1    2    0    0 -0.34346850437E+03 -0.19456651635E+03 -0.99025159307E+03  0.10698408204E+04  0.90191022847E+02 0.  0.
    5000000    2    1    2    0    0  0.34346850437E+03  0.19456651635E+03  0.55538010085E+03  0.90789370628E+03  0.59999765225E+03 0.  0.
         23    2    4    4    0    0  0.13370852526E+03  0.95672488382E+02  0.62182317636E+03  0.64966841451E+03  0.91508422493E+02 0.  0.
         23    2    4    4    0    0  0.20975997911E+03  0.98894027963E+02 -0.66443075511E+02  0.25822529178E+03  0.92121340768E+02 0.  0.
          4    1    3    3  502    0 -0.80817004406E+02 -0.55392661290E+02 -0.35860104741E+03  0.37174513626E+03  0.00000000000E+00 0.  1.
         -4    1    3    3    0  502 -0.26265149996E+03 -0.13917385506E+03 -0.63165054566E+03  0.69809568412E+03  0.00000000000E+00 0. -1.
         13    1    5    5    0    0  0.99041283619E+02  0.10738087133E+03  0.42320535182E+03  0.44770816074E+03  0.00000000000E+00 0.  1.
        -13    1    5    5    0    0  0.34667241638E+02 -0.11708382945E+02  0.19861782455E+03  0.20196025377E+03  0.00000000000E+00 0. -1.
          3    1    6    6  503    0  0.12988031222E+03  0.16718684541E+02 -0.12453029198E+02  0.13154272253E+03  0.00000000000E+00 0. -1.
         -3    1    6    6    0  503  0.79879666898E+02  0.82175343422E+02 -0.53990046313E+02  0.12668256925E+03  0.00000000000E+00 0.  1.
<mgrwt>
<rscale>  0 0.41172523E+03</rscale>
<asrwt>0</asrwt>
<pdfrwt beam="1">  1        1 0.11868177E+00 0.41172523E+03</pdfrwt>
<pdfrwt beam="2">  1       -1 0.18558508E+00 0.41172523E+03</pdfrwt>
<totfact> 0.49424217E+00</totfact>
</mgrwt>
</event>
<event>
12    1  0.1338445E-007  0.4417750E+03  0.7818608E-02  0.1030204E+00
          1   -1    0    0  501    0  0.00000000000E+00  0.00000000000E+00  0.18728787966E+03  0.18728787966E+03  0.00000000000E+00 0. -1.
         -1   -1    0    0    0  501 -0.00000000000E+00 -0.00000000000E+00 -0.11195225026E+04  0.11195225026E+04  0.00000000000E+00 0.  1.
         23    2    1    2    0    0 -0.23948352695E+03  0.64130887172E+02 -0.31507175673E+03  0.41108602187E+03  0.90864597732E+02 0.  0.
    5000000    2    1    2    0    0  0.23948352695E+03 -0.64130887172E+02 -0.61716286625E+03  0.89572436044E+03  0.59997249606E+03 0.  0.
         23    2    4    4    0    0  0.35057203055E+02  0.24617923551E+03 -0.21810085054E+03  0.34308311731E+03  0.91130790031E+02 0.  0.
         23    2    4    4    0    0  0.20442632390E+03 -0.31031012268E+03 -0.39906201571E+03  0.55264124313E+03  0.89885243998E+02 0.  0.
          3    1    3    3  502    0 -0.14036361563E+03  0.18348417623E+02 -0.11193363566E+03  0.18046536458E+03  0.00000000000E+00 0. -1.
         -3    1    3    3    0  502 -0.99119911325E+02  0.45782469550E+02 -0.20313812107E+03  0.23062065729E+03  0.00000000000E+00 0.  1.
         11    1    5    5    0    0  0.19101608930E+02  0.32969186568E+02 -0.62289836842E+00  0.38108092698E+02  0.00000000000E+00 0.  1.
        -11    1    5    5    0    0  0.15955594124E+02  0.21321004894E+03 -0.21747795217E+03  0.30497502461E+03  0.00000000000E+00 0. -1.
          3    1    6    6  503    0  0.15186388442E+03 -0.15525695958E+03 -0.20384799008E+03  0.29786132000E+03  0.00000000000E+00 0.  1.
         -3    1    6    6    0  503  0.52562439473E+02 -0.15505316310E+03 -0.19521402563E+03  0.25477992314E+03  0.00000000000E+00 0. -1.
<mgrwt>
<rscale>  0 0.44177503E+03</rscale>
<asrwt>0</asrwt>
<pdfrwt beam="1">  1        1 0.28813520E-01 0.44177503E+03</pdfrwt>
<pdfrwt beam="2">  1       -1 0.17223423E+00 0.44177503E+03</pdfrwt>
<totfact> 0.40510698E+01</totfact>
</mgrwt>
</event>
<event>
12    1  0.1769219E-007  0.7414311E+03  0.7818608E-02  0.9648890E-01
          2   -1    0    0  501    0  0.00000000000E+00  0.00000000000E+00  0.13053183458E+04  0.13053183458E+04  0.00000000000E+00 0. -1.
         -2   -1    0    0    0  501 -0.00000000000E+00 -0.00000000000E+00 -0.53406116069E+03  0.53406116069E+03  0.00000000000E+00 0.  1.
         23    2    1    2    0    0  0.37223667776E+03 -0.55827334418E+03  0.37352552231E+02  0.67790155527E+03  0.89028278548E+02 0.  0.
    5000000    2    1    2    0    0 -0.37223667776E+03  0.55827334418E+03  0.73390463288E+03  0.11614779512E+04  0.60015477163E+03 0.  0.
         23    2    4    4    0    0 -0.46163858367E+02  0.46512516197E+03  0.63960279672E+03  0.79754482521E+03  0.92268589150E+02 0.  0.
         23    2    4    4    0    0 -0.32607281939E+03  0.93148182215E+02  0.94301836169E+02  0.36393312601E+03  0.92490088698E+02 0.  0.
          1    1    3    3  502    0  0.17206335939E+03 -0.20256616484E+03  0.45558733046E+02  0.26965616800E+03  0.00000000000E+00 0. -1.
         -1    1    3    3    0  502  0.20017331836E+03 -0.35570717934E+03 -0.82061808147E+01  0.40824538727E+03  0.00000000000E+00 0.  1.
         13    1    5    5    0    0 -0.63070055016E+01  0.21435935926E+03  0.36657286268E+03  0.42469445120E+03  0.00000000000E+00 0.  1.
        -13    1    5    5    0    0 -0.39856852865E+02  0.25076580270E+03  0.27302993403E+03  0.37285037402E+03  0.00000000000E+00 0. -1.
          1    1    6    6  503    0 -0.14021780474E+03  0.56204626319E+02 -0.26364762515E+01  0.15108588217E+03  0.00000000000E+00 0. -1.
         -1    1    6    6    0  503 -0.18585501465E+03  0.36943555896E+02  0.96938312420E+02  0.21284724383E+03  0.00000000000E+00 0.  1.
<mgrwt>
<rscale>  0 0.74143114E+03</rscale>
<asrwt>0</asrwt>
<pdfrwt beam="1">  1        2 0.20081821E+00 0.74143114E+03</pdfrwt>
<pdfrwt beam="2">  1       -2 0.82163256E-01 0.74143114E+03</pdfrwt>
<totfact> 0.21823531E+01</totfact>
</mgrwt>
</event>
<event>
12    1  0.1338445E-007  0.4741978E+03  0.7818608E-02  0.1020742E+00
          1   -1    0    0  501    0  0.00000000000E+00  0.00000000000E+00  0.99439519532E+03  0.99439519532E+03  0.00000000000E+00 0. -1.
         -1   -1    0    0    0  501 -0.00000000000E+00 -0.00000000000E+00 -0.33340539627E+03  0.33340539627E+03  0.00000000000E+00 0.  1.
         23    2    1    2    0    0  0.12978631824E+03  0.37670197311E+03  0.37037547061E+03  0.55150225694E+03  0.90707691146E+02 0.  0.
    5000000    2    1    2    0    0 -0.12978631824E+03 -0.37670197311E+03  0.29061432844E+03  0.77629833466E+03  0.59952777380E+03 0.  0.
         23    2    4    4    0    0 -0.89442657657E+02  0.55035222507E+02 -0.11117216665E+03  0.17832125155E+03  0.91707978898E+02 0.  0.
         23    2    4    4    0    0 -0.40343660578E+02 -0.43173719562E+03  0.40178649509E+03  0.59797708311E+03  0.90108752387E+02 0.  0.
          2    1    3    3  502    0  0.35981015984E+02  0.85793804957E+02  0.14278356113E+03  0.17041817922E+03  0.00000000000E+00 0. -1.
         -2    1    3    3    0  502  0.93805302251E+02  0.29090816815E+03  0.22759190948E+03  0.38108407771E+03  0.00000000000E+00 0.  1.
         13    1    5    5    0    0 -0.77494874605E+02  0.64514521626E+02 -0.12297972212E+03  0.15903330200E+03  0.00000000000E+00 0.  1.
        -13    1    5    5    0    0 -0.11947783053E+02 -0.94792991194E+01  0.11807555478E+02  0.19287949555E+02  0.00000000000E+00 0. -1.
          3    1    6    6  503    0 -0.63740841459E+01 -0.67883362308E+02  0.23783205304E+02  0.72210945718E+02  0.00000000000E+00 0. -1.
         -3    1    6    6    0  503 -0.33969576432E+02 -0.36385383331E+03  0.37800328978E+03  0.52576613739E+03  0.00000000000E+00 0.  1.
<mgrwt>
<rscale>  0 0.47419780E+03</rscale>
<asrwt>0</asrwt>
<pdfrwt beam="1">  1        1 0.15298387E+00 0.47419780E+03</pdfrwt>
<pdfrwt beam="2">  1       -1 0.51293138E-01 0.47419780E+03</pdfrwt>
<totfact> 0.61720773E+01</totfact>
</mgrwt>
</event>
<event>
12    1  0.1338445E-007  0.5210617E+03  0.7818608E-02  0.1008423E+00
          2   -1    0    0  501    0  0.00000000000E+00  0.00000000000E+00  0.16547865918E+04  0.16547865918E+04  0.00000000000E+00 0. -1.
         -2   -1    0    0    0  501 -0.00000000000E+00 -0.00000000000E+00 -0.24352401635E+03  0.24352401635E+03  0.00000000000E+00 0.  1.
         23    2    1    2    0    0  0.25615739466E+03  0.41390747131E+03  0.60017528644E+03  0.77812637225E+03  0.91292229159E+02 0.  0.
    5000000    2    1    2    0    0 -0.25615739466E+03 -0.41390747131E+03  0.81108728903E+03  0.11201842359E+04  0.60001177180E+03 0.  0.
         23    2    4    4    0    0 -0.14314972097E+01 -0.16132319648E+03 -0.40560952587E+02  0.19171037263E+03  0.95291411954E+02 0.  0.
         23    2    4    4    0    0 -0.25472589745E+03 -0.25258427483E+03  0.85164824162E+03  0.92847386328E+03  0.89860384016E+02 0.  0.
          2    1    3    3  502    0  0.24907909887E+03  0.34300710948E+03  0.50848762274E+03  0.66200750534E+03  0.00000000000E+00 0. -1.
         -2    1    3    3    0  502  0.70782957847E+01  0.70900361833E+02  0.91687663698E+02  0.11611886692E+03  0.00000000000E+00 0.  1.
         11    1    5    5    0    0 -0.45867943295E+02 -0.86753441303E+02 -0.61250717409E+01  0.98323671127E+02  0.00000000000E+00 0.  1.
        -11    1    5    5    0    0  0.44436446085E+02 -0.74569755175E+02 -0.34435880846E+02  0.93386701501E+02  0.00000000000E+00 0. -1.
          2    1    6    6  503    0 -0.13167276776E+03 -0.16444816854E+03  0.58618106535E+03  0.62288775817E+03  0.00000000000E+00 0. -1.
         -2    1    6    6    0  503 -0.12305312969E+03 -0.88136106287E+02  0.26546717627E+03  0.30558610511E+03  0.00000000000E+00 0.  1.
<mgrwt>
<rscale>  0 0.52106168E+03</rscale>
<asrwt>0</asrwt>
<pdfrwt beam="1">  1        2 0.25458255E+00 0.52106168E+03</pdfrwt>
<pdfrwt beam="2">  1       -2 0.37465234E-01 0.52106168E+03</pdfrwt>
<totfact> 0.73406921E+01</totfact>
</mgrwt>
</event>
<event>
12    1  0.1338445E-007  0.1401681E+04  0.7818608E-02  0.8952603E-01
         -1   -1    0    0    0  501 -0.00000000000E+00  0.00000000000E+00  0.10179080382E+04  0.10179080382E+04  0.00000000000E+00 0.  1.
          1   -1    0    0  501    0  0.00000000000E+00 -0.00000000000E+00 -0.19478930661E+04  0.19478930661E+04  0.00000000000E+00 0. -1.
         23    2    1    2    0    0 -0.46066820062E+03 -0.12602171801E+04 -0.40118472907E+03  0.14038714747E+04  0.97690319883E+02 0.  0.
    5000000    2    1    2    0    0  0.46066820062E+03  0.12602171801E+04 -0.52880029882E+03  0.15619296295E+04  0.59969315436E+03 0.  0.
         23    2    4    4    0    0  0.12575747183E+03 -0.49804105496E+01 -0.75130467123E+02  0.17373261211E+03  0.93266752977E+02 0.  0.
         23    2    4    4    0    0  0.33491072879E+03  0.12651975907E+04 -0.45366983170E+03  0.13881970174E+04  0.91566933025E+02 0.  0.
          4    1    3    3  502    0 -0.77569481714E+02 -0.16849837406E+03 -0.87617128761E+02  0.20514747819E+03  0.00000000000E+00 0. -1.
         -4    1    3    3    0  502 -0.38309871890E+03 -0.10917188061E+04 -0.31356760031E+03  0.11987239966E+04  0.00000000000E+00 0.  1.
         13    1    5    5    0    0  0.12766460144E+03  0.18065075183E+02 -0.46809990019E+02  0.13717059659E+03  0.00000000000E+00 0.  1.
        -13    1    5    5    0    0 -0.19071296082E+01 -0.23045485733E+02 -0.28320477104E+02  0.36562015527E+02  0.00000000000E+00 0. -1.
          2    1    6    6  503    0  0.11512920792E+03  0.45548646352E+03 -0.11700452035E+03  0.48416186420E+03  0.00000000000E+00 0. -1.
         -2    1    6    6    0  503  0.21978152087E+03  0.80971112716E+03 -0.33666531135E+03  0.90403515320E+03  0.00000000000E+00 0.  1.
<mgrwt>
<rscale>  0 0.14016810E+04</rscale>
<asrwt>0</asrwt>
<pdfrwt beam="1">  1        1 0.29967586E+00 0.14016810E+04</pdfrwt>
<pdfrwt beam="2">  1       -1 0.15660124E+00 0.14016810E+04</pdfrwt>
<totfact> 0.96189993E-01</totfact>
</mgrwt>
</event>
<event>
12    1  0.1338445E-007  0.4648420E+03  0.7818608E-02  0.1023386E+00
         -2   -1    0    0    0  501 -0.00000000000E+00  0.00000000000E+00  0.27514524620E+03  0.27514524620E+03  0.00000000000E+00 0.  1.
          2   -1    0    0  501    0  0.00000000000E+00 -0.00000000000E+00 -0.10174729212E+04  0.10174729212E+04  0.00000000000E+00 0. -1.
         23    2    1    2    0    0 -0.24510440896E+03 -0.22671231890E+03 -0.12064657346E+03  0.36631949946E+03  0.90331241353E+02 0.  0.
    5000000    2    1    2    0    0  0.24510440896E+03  0.22671231890E+03 -0.62168110153E+03  0.92629866794E+03  0.60005598355E+03 0.  0.
         23    2    4    4    0    0  0.15927292727E+03 -0.12417697677E+03 -0.24693037201E+02  0.22268943266E+03  0.90515470555E+02 0.  0.
         23    2    4    4    0    0  0.85831481688E+02  0.35088929567E+03 -0.59698806433E+03  0.70360923528E+03  0.90448139563E+02 0.  0.
          2    1    3    3  502    0 -0.19051628711E+03 -0.12026198607E+03 -0.91637118725E+02  0.24322163242E+03  0.00000000000E+00 0. -1.
         -2    1    3    3    0  502 -0.54588121849E+02 -0.10645033283E+03 -0.29009454738E+02  0.12309786704E+03  0.00000000000E+00 0.  1.
         13    1    5    5    0    0  0.79537029027E+02 -0.11186028250E+03  0.32864713643E+01  0.13729407373E+03  0.00000000000E+00 0. -1.
        -13    1    5    5    0    0  0.79735898243E+02 -0.12316694269E+02 -0.27979508565E+02  0.85395358924E+02  0.00000000000E+00 0.  1.
          3    1    6    6  503    0  0.29634766287E+02  0.24640008159E+03 -0.45759349401E+03  0.52056029943E+03  0.00000000000E+00 0. -1.
         -3    1    6    6    0  503  0.56196715400E+02  0.10448921408E+03 -0.13939457032E+03  0.18304893585E+03  0.00000000000E+00 0.  1.
<mgrwt>
<rscale>  0 0.46484199E+03</rscale>
<asrwt>0</asrwt>
<pdfrwt beam="1">  1        2 0.15653429E+00 0.46484199E+03</pdfrwt>
<pdfrwt beam="2">  1       -2 0.42330038E-01 0.46484199E+03</pdfrwt>
<totfact> 0.13470547E+02</totfact>
</mgrwt>
</event>
<event>
12    1  0.1338445E-007  0.7479708E+03  0.7818608E-02  0.9638539E-01
         -2   -1    0    0    0  501 -0.00000000000E+00  0.00000000000E+00  0.20287046713E+03  0.20287046713E+03  0.00000000000E+00 0.  1.
          2   -1    0    0  501    0  0.00000000000E+00 -0.00000000000E+00 -0.30241706090E+04  0.30241706090E+04  0.00000000000E+00 0. -1.
         23    2    1    2    0    0 -0.95238186401E+02 -0.63401341591E+03 -0.84584473233E+03  0.10652255215E+04  0.90602299505E+02 0.  0.
    5000000    2    1    2    0    0  0.95238186401E+02  0.63401341591E+03 -0.19754554095E+04  0.21618155546E+04  0.59998257774E+03 0.  0.
         23    2    4    4    0    0 -0.20233801637E+02 -0.93127373013E+02 -0.22089300359E+03  0.25694565333E+03  0.90250957866E+02 0.  0.
         23    2    4    4    0    0  0.11547198804E+03  0.72714078893E+03 -0.17545624059E+04  0.19048699013E+04  0.89289404194E+02 0.  0.
          1    1    3    3  502    0 -0.58398418776E+02 -0.27578338495E+03 -0.44089751934E+03  0.52331393378E+03  0.00000000000E+00 0. -1.
         -1    1    3    3    0  502 -0.36839767625E+02 -0.35823003097E+03 -0.40494721298E+03  0.54191158768E+03  0.00000000000E+00 0.  1.
         11    1    5    5    0    0  0.25575680000E+02 -0.40496804487E+02 -0.37825016480E+02  0.61031454618E+02  0.00000000000E+00 0. -1.
        -11    1    5    5    0    0 -0.45809481637E+02 -0.52630568526E+02 -0.18306798711E+03  0.19591419871E+03  0.00000000000E+00 0.  1.
          1    1    6    6  503    0  0.89588899298E+02  0.56429354409E+03 -0.14505013857E+04  0.15589764735E+04  0.00000000000E+00 0. -1.
         -1    1    6    6    0  503  0.25883088740E+02  0.16284724483E+03 -0.30406102018E+03  0.34589342784E+03  0.00000000000E+00 0.  1.
<mgrwt>
<rscale>  0 0.74797084E+03</rscale>
<asrwt>0</asrwt>
<pdfrwt beam="1">  1        2 0.46525701E+00 0.74797084E+03</pdfrwt>
<pdfrwt beam="2">  1       -2 0.31210841E-01 0.74797084E+03</pdfrwt>
<totfact> 0.16985804E+01</totfact>
</mgrwt>
</event>
<event>
12    1  0.1338445E-007  0.1206776E+04  0.7818608E-02  0.9106947E-01
          2   -1    0    0  501    0  0.00000000000E+00  0.00000000000E+00  0.70458062193E+03  0.70458062193E+03  0.00000000000E+00 0. -1.
         -2   -1    0    0    0  501 -0.00000000000E+00 -0.00000000000E+00 -0.27272416154E+04  0.27272416154E+04  0.00000000000E+00 0.  1.
         23    2    1    2    0    0  0.25494798035E+03 -0.11579499197E+04 -0.16822111392E+04  0.20600659128E+04  0.90502811465E+02 0.  0.
    5000000    2    1    2    0    0 -0.25494798035E+03  0.11579499197E+04 -0.34044985422E+03  0.13717563245E+04  0.59996901715E+03 0.  0.
         23    2    4    4    0    0 -0.50928426486E+02  0.77265006767E+03 -0.46699244966E+03  0.90883269971E+03  0.91176182892E+02 0.  0.
         23    2    4    4    0    0 -0.20401955387E+03  0.38529985199E+03  0.12654259544E+03  0.46292362483E+03  0.90583109126E+02 0.  0.
          1    1    3    3  502    0  0.20133386606E+03 -0.72437687216E+03 -0.10902584531E+04  0.13243567016E+04  0.00000000000E+00 0. -1.
         -1    1    3    3    0  502  0.53614114296E+02 -0.43357304750E+03 -0.59195268610E+03  0.73570921113E+03  0.00000000000E+00 0.  1.
         11    1    5    5    0    0  0.18138747597E+02  0.40972564601E+03 -0.25334564213E+03  0.48206652398E+03  0.00000000000E+00 0. -1.
        -11    1    5    5    0    0 -0.69067174082E+02  0.36292442167E+03 -0.21364680753E+03  0.42676617573E+03  0.00000000000E+00 0.  1.
          3    1    6    6  503    0 -0.37322770040E+02  0.16413088726E+03  0.45853681709E+02  0.17445485789E+03  0.00000000000E+00 0. -1.
         -3    1    6    6    0  503 -0.16669678383E+03  0.22116896473E+03  0.80688913727E+02  0.28846876694E+03  0.00000000000E+00 0.  1.
<mgrwt>
<rscale>  0 0.12067755E+04</rscale>
<asrwt>0</asrwt>
<pdfrwt beam="1">  1        2 0.10839702E+00 0.12067755E+04</pdfrwt>
<pdfrwt beam="2">  1       -2 0.41957565E+00 0.12067755E+04</pdfrwt>
<totfact> 0.22186058E-01</totfact>
</mgrwt>
</event>
<event>
12    1  0.1338445E-007  0.8839687E+03  0.7818608E-02  0.9445846E-01
         -1   -1    0    0    0  501 -0.00000000000E+00  0.00000000000E+00  0.51430714219E+03  0.51430714219E+03  0.00000000000E+00 0.  1.
          1   -1    0    0  501    0  0.00000000000E+00 -0.00000000000E+00 -0.16101391714E+04  0.16101391714E+04  0.00000000000E+00 0. -1.
         23    2    1    2    0    0  0.57007099429E+03 -0.57136944857E+03 -0.53755787028E+03  0.97404929644E+03  0.91430753568E+02 0.  0.
    5000000    2    1    2    0    0 -0.57007099429E+03  0.57136944857E+03 -0.55827415891E+03  0.11503970171E+04  0.60024934421E+03 0.  0.
         23    2    4    4    0    0 -0.45009145689E+03  0.66805264961E+03 -0.53058734145E+03  0.96896899527E+03  0.92202628332E+02 0.  0.
         23    2    4    4    0    0 -0.11997953740E+03 -0.96683201040E+02 -0.27686817464E+02  0.18142802186E+03  0.91688802464E+02 0.  0.
          1    1    3    3  502    0  0.17487144665E+03 -0.15106559236E+03 -0.20010205905E+03  0.30568230254E+03  0.00000000000E+00 0. -1.
         -1    1    3    3    0  502  0.39519954764E+03 -0.42030385621E+03 -0.33745581123E+03  0.66836699390E+03  0.00000000000E+00 0.  1.
         11    1    5    5    0    0 -0.35040612492E+03  0.53633593827E+03 -0.37664078623E+03  0.74316819961E+03  0.00000000000E+00 0.  1.
        -11    1    5    5    0    0 -0.99685331974E+02  0.13171671134E+03 -0.15394655522E+03  0.22580079566E+03  0.00000000000E+00 0. -1.
          3    1    6    6  503    0 -0.58613274959E+02 -0.47526534946E+02 -0.60013233547E+02  0.96415121875E+02  0.00000000000E+00 0. -1.
         -3    1    6    6    0  503 -0.61366262441E+02 -0.49156666093E+02  0.32326416083E+02  0.85012899986E+02  0.00000000000E+00 0.  1.
<mgrwt>
<rscale>  0 0.88396869E+03</rscale>
<asrwt>0</asrwt>
<pdfrwt beam="1">  1        1 0.24771372E+00 0.88396869E+03</pdfrwt>
<pdfrwt beam="2">  1       -1 0.79124176E-01 0.88396869E+03</pdfrwt>
<totfact> 0.89537581E+00</totfact>
</mgrwt>
</event>
<event>
12    1  0.1338445E-007  0.7890338E+03  0.7818608E-02  0.9576027E-01
          1   -1    0    0  501    0  0.00000000000E+00  0.00000000000E+00  0.16188307318E+04  0.16188307318E+04  0.00000000000E+00 0. -1.
         -1   -1    0    0    0  501 -0.00000000000E+00 -0.00000000000E+00 -0.46683314139E+03  0.46683314139E+03  0.00000000000E+00 0.  1.
         23    2    1    2    0    0 -0.11435743810E+03 -0.75348484111E+03  0.47048508588E+03  0.90020722812E+03  0.90552791747E+02 0.  0.
    5000000    2    1    2    0    0  0.11435743810E+03  0.75348484111E+03  0.68151250450E+03  0.11854566450E+04  0.60002594450E+03 0.  0.
         23    2    4    4    0    0 -0.77582691453E+02  0.11770195525E+03 -0.67527561462E+02  0.18029342210E+03  0.89849441919E+02 0.  0.
         23    2    4    4    0    0  0.19194012955E+03  0.63578288586E+03  0.74904006596E+03  0.10051632229E+04  0.90725922777E+02 0.  0.
          3    1    3    3  502    0 -0.21317471066E+02 -0.93759351598E+02  0.96225467128E+02  0.13603158129E+03  0.00000000000E+00 0. -1.
         -3    1    3    3    0  502 -0.93039967034E+02 -0.65972548951E+03  0.37425961875E+03  0.76417564683E+03  0.00000000000E+00 0.  1.
         13    1    5    5    0    0 -0.82028162768E+02  0.11418887745E+03 -0.31838758292E+02  0.14415764201E+03  0.00000000000E+00 0.  1.
        -13    1    5    5    0    0  0.44454713141E+01  0.35130777942E+01 -0.35688803170E+02  0.36135780087E+02  0.00000000000E+00 0. -1.
          1    1    6    6  503    0  0.21497678878E+02  0.16533521668E+02  0.20954646654E+02  0.34272507236E+02  0.00000000000E+00 0. -1.
         -1    1    6    6    0  503  0.17044245068E+03  0.61924936419E+03  0.72808541931E+03  0.97089071571E+03  0.00000000000E+00 0.  1.
<mgrwt>
<rscale>  0 0.78903378E+03</rscale>
<asrwt>0</asrwt>
<pdfrwt beam="1">  1        1 0.24905088E+00 0.78903378E+03</pdfrwt>
<pdfrwt beam="2">  1       -1 0.71820484E-01 0.78903378E+03</pdfrwt>
<totfact> 0.10956282E+01</totfact>
</mgrwt>
</event>
<event>
12    1  0.1338445E-007  0.1199419E+04  0.7818608E-02  0.9113365E-01
         -2   -1    0    0    0  501 -0.00000000000E+00  0.00000000000E+00  0.47530422147E+03  0.47530422147E+03  0.00000000000E+00 0. -1.
          2   -1    0    0  501    0  0.00000000000E+00 -0.00000000000E+00 -0.38509477026E+04  0.38509477026E+04  0.00000000000E+00 0.  1.
         23    2    1    2    0    0 -0.15111643214E+03 -0.11393297952E+04 -0.25269056236E+04  0.27766490918E+04  0.60163029320E+02 0.  0.
    5000000    2    1    2    0    0  0.15111643214E+03  0.11393297952E+04 -0.84873785756E+03  0.15496028323E+04  0.60000369052E+03 0.  0.
         23    2    4    4    0    0 -0.17262777514E+03  0.31310892448E+03 -0.93109721181E+02  0.38044062520E+03  0.90708884838E+02 0.  0.
         23    2    4    4    0    0  0.32374420728E+03  0.82622087075E+03 -0.75562813638E+03  0.11691622071E+04  0.92277554100E+02 0.  0.
          1    1    3    3  502    0 -0.56080785894E+02 -0.56870955161E+03 -0.11998584142E+04  0.13289980522E+04  0.00000000000E+00 0. -1.
         -1    1    3    3    0  502 -0.95035646245E+02 -0.57062024362E+03 -0.13270472094E+04  0.14476510396E+04  0.00000000000E+00 0.  1.
         11    1    5    5    0    0 -0.11022259608E+03  0.21268518433E+03 -0.17694327848E+02  0.24020220140E+03  0.00000000000E+00 0.  1.
        -11    1    5    5    0    0 -0.62405179066E+02  0.10042374015E+03 -0.75415393334E+02  0.14023842381E+03  0.00000000000E+00 0. -1.
          1    1    6    6  503    0  0.67369448507E+02  0.27577365409E+03 -0.26763632787E+03  0.39015247644E+03  0.00000000000E+00 0. -1.
         -1    1    6    6    0  503  0.25637475877E+03  0.55044721667E+03 -0.48799180851E+03  0.77900973065E+03  0.00000000000E+00 0.  1.
<mgrwt>
<rscale>  0 0.11994193E+04</rscale>
<asrwt>0</asrwt>
<pdfrwt beam="1">  1        2 0.59245351E+00 0.11994193E+04</pdfrwt>
<pdfrwt beam="2">  1       -2 0.73123725E-01 0.11994193E+04</pdfrwt>
<totfact> 0.76833122E-01</totfact>
</mgrwt>
</event>
<event>
12    1  0.1338445E-007  0.1096388E+04  0.7818608E-02  0.9208720E-01
          2   -1    0    0  501    0  0.00000000000E+00  0.00000000000E+00  0.21630655468E+04  0.21630655468E+04  0.00000000000E+00 0. -1.
         -2   -1    0    0    0  501 -0.00000000000E+00 -0.00000000000E+00 -0.66888011707E+03  0.66888011707E+03  0.00000000000E+00 0.  1.
         23    2    1    2    0    0  0.66356332598E+03  0.78256242777E+03  0.12480691203E+04  0.16182348804E+04  0.91034927371E+02 0.  0.
    5000000    2    1    2    0    0 -0.66356332598E+03 -0.78256242777E+03  0.24611630941E+03  0.12137107835E+04  0.59983363303E+03 0.  0.
         23    2    4    4    0    0  0.64976424594E+01 -0.35994317691E+03  0.18137368550E+03  0.41345226998E+03  0.91896984683E+02 0.  0.
         23    2    4    4    0    0 -0.67006096844E+03 -0.42261925086E+03  0.64742623906E+02  0.80025851354E+03  0.92915814116E+02 0.  0.
          1    1    3    3  502    0  0.22631574785E+03  0.32759362636E+03  0.51545961589E+03  0.65133326137E+03  0.00000000000E+00 0. -1.
         -1    1    3    3    0  502  0.43724757813E+03  0.45496880142E+03  0.73260950445E+03  0.96690161902E+03  0.00000000000E+00 0.  1.
         11    1    5    5    0    0 -0.41063036118E+02 -0.21235733338E+03  0.99020828002E+02  0.23788008398E+03  0.00000000000E+00 0.  1.
        -11    1    5    5    0    0  0.47560678578E+02 -0.14758584353E+03  0.82352857503E+02  0.17557218600E+03  0.00000000000E+00 0. -1.
          3    1    6    6  503    0 -0.56126459507E+03 -0.35731956600E+03  0.19806698378E+02  0.66564819779E+03  0.00000000000E+00 0. -1.
         -3    1    6    6    0  503 -0.10879637337E+03 -0.65299684868E+02  0.44935925528E+02  0.13461031575E+03  0.00000000000E+00 0.  1.
<mgrwt>
<rscale>  0 0.10963880E+04</rscale>
<asrwt>0</asrwt>
<pdfrwt beam="1">  1        2 0.33277931E+00 0.10963880E+04</pdfrwt>
<pdfrwt beam="2">  1       -2 0.10290463E+00 0.10963880E+04</pdfrwt>
<totfact> 0.41409656E+00</totfact>
</mgrwt>
</event>
<event>
12    1  0.1338445E-007  0.1433114E+04  0.7818608E-02  0.8930191E-01
          2   -1    0    0  501    0  0.00000000000E+00  0.00000000000E+00  0.28870352684E+04  0.28870352684E+04  0.00000000000E+00 0. -1.
         -2   -1    0    0    0  501 -0.00000000000E+00 -0.00000000000E+00 -0.10051000581E+04  0.10051000581E+04  0.00000000000E+00 0.  1.
         23    2    1    2    0    0  0.13701789251E+04  0.21534632415E+03  0.19321452012E+04  0.23801026379E+04  0.89101977559E+02 0.  0.
    5000000    2    1    2    0    0 -0.13701789251E+04 -0.21534632415E+03 -0.50209990855E+02  0.15120326887E+04  0.59996456752E+03 0.  0.
         23    2    4    4    0    0 -0.98395629871E+03  0.76377937844E+02 -0.16711967345E+03  0.10058757109E+04  0.99264159200E+02 0.  0.
         23    2    4    4    0    0 -0.38622262640E+03 -0.29172426199E+03  0.11690968260E+03  0.50615697780E+03  0.90862809295E+02 0.  0.
          4    1    3    3  502    0  0.24604977472E+03  0.58673694008E+02  0.30556831285E+03  0.39668008246E+03  0.00000000000E+00 0.  1.
         -4    1    3    3    0  502  0.11241291504E+04  0.15667263014E+03  0.16265768883E+04  0.19834225554E+04  0.00000000000E+00 0. -1.
         13    1    5    5    0    0 -0.10249761593E+03  0.38909006872E+02 -0.17314437534E+02  0.11099307111E+03  0.00000000000E+00 0. -1.
        -13    1    5    5    0    0 -0.88145868278E+03  0.37468930973E+02 -0.14980523592E+03  0.89488263976E+03  0.00000000000E+00 0.  1.
          4    1    6    6  503    0 -0.25283485734E+03 -0.16169896525E+03  0.11035314918E+03  0.31976528577E+03  0.00000000000E+00 0. -1.
         -4    1    6    6    0  503 -0.13338776907E+03 -0.13002529674E+03  0.65565334147E+01  0.18639169203E+03  0.00000000000E+00 0.  1.
<mgrwt>
<rscale>  0 0.14331143E+04</rscale>
<asrwt>0</asrwt>
<pdfrwt beam="1">  1        2 0.44415927E+00 0.14331143E+04</pdfrwt>
<pdfrwt beam="2">  1       -2 0.15463078E+00 0.14331143E+04</pdfrwt>
<totfact> 0.53913569E-01</totfact>
</mgrwt>
</event>
<event>
12    1  0.1338445E-007  0.8298165E+03  0.7818608E-02  0.9517834E-01
         -2   -1    0    0    0  501 -0.00000000000E+00  0.00000000000E+00  0.33957764881E+03  0.33957764881E+03  0.00000000000E+00 0.  1.
          2   -1    0    0  501    0  0.00000000000E+00 -0.00000000000E+00 -0.22127096106E+04  0.22127096106E+04  0.00000000000E+00 0. -1.
         23    2    1    2    0    0  0.60951245812E+03  0.45379376355E+03 -0.82921722808E+03  0.11284873944E+04  0.91915023466E+02 0.  0.
    5000000    2    1    2    0    0 -0.60951245812E+03 -0.45379376355E+03 -0.10439147337E+04  0.14237998650E+04  0.60001155647E+03 0.  0.
         23    2    4    4    0    0  0.38089204943E+02 -0.15075835258E+03 -0.35006287869E+02  0.18371462719E+03  0.91360580379E+02 0.  0.
         23    2    4    4    0    0 -0.64760166307E+03 -0.30303541098E+03 -0.10089084459E+04  0.12400852378E+04  0.93256477828E+02 0.  0.
          2    1    3    3  502    0  0.29906144364E+03  0.22530341357E+03 -0.47634916856E+03  0.60589430235E+03  0.00000000000E+00 0. -1.
         -2    1    3    3    0  502  0.31045101448E+03  0.22849034998E+03 -0.35286805952E+03  0.52259309205E+03  0.00000000000E+00 0.  1.
         11    1    5    5    0    0  0.59848593242E+02 -0.57520958978E+02 -0.41126111421E+01  0.83110940346E+02  0.00000000000E+00 0.  1.
        -11    1    5    5    0    0 -0.21759388300E+02 -0.93237393598E+02 -0.30893676727E+02  0.10060368684E+03  0.00000000000E+00 0. -1.
          1    1    6    6  503    0 -0.15024166063E+03 -0.11522586431E+03 -0.27277999551E+03  0.33205192718E+03  0.00000000000E+00 0. -1.
         -1    1    6    6    0  503 -0.49736000243E+03 -0.18780954667E+03 -0.73612845037E+03  0.90803331067E+03  0.00000000000E+00 0.  1.
<mgrwt>
<rscale>  0 0.82981645E+03</rscale>
<asrwt>0</asrwt>
<pdfrwt beam="1">  1        2 0.34041685E+00 0.82981645E+03</pdfrwt>
<pdfrwt beam="2">  1       -2 0.52242717E-01 0.82981645E+03</pdfrwt>
<totfact> 0.18053842E+01</totfact>
</mgrwt>
</event>
<event>
12    1  0.1338445E-007  0.6150393E+03  0.7818608E-02  0.9874686E-01
          2   -1    0    0  501    0  0.00000000000E+00  0.00000000000E+00  0.91808229703E+03  0.91808229703E+03  0.00000000000E+00 0. -1.
         -2   -1    0    0    0  501 -0.00000000000E+00 -0.00000000000E+00 -0.53686069385E+03  0.53686069385E+03  0.00000000000E+00 0.  1.
         23    2    1    2    0    0  0.98372191004E+02 -0.55732905116E+03  0.90095747872E+02  0.58015130723E+03  0.90363356888E+02 0.  0.
    5000000    2    1    2    0    0 -0.98372191004E+02  0.55732905116E+03  0.29112585531E+03  0.87479168365E+03  0.60017786275E+03 0.  0.
         23    2    4    4    0    0 -0.21676879971E+03  0.31549987526E+03  0.40878084196E+03  0.56721268866E+03  0.89997631077E+02 0.  0.
         23    2    4    4    0    0  0.11839660871E+03  0.24182917590E+03 -0.11765498666E+03  0.30757899500E+03  0.90901237651E+02 0.  0.
          3    1    3    3  502    0  0.71489207827E+01 -0.28946273171E+03  0.58702649646E+02  0.29544167139E+03  0.00000000000E+00 0. -1.
         -3    1    3    3    0  502  0.91223270221E+02 -0.26786631945E+03  0.31393098225E+02  0.28470963584E+03  0.00000000000E+00 0.  1.
         11    1    5    5    0    0 -0.20851120931E+03  0.31743516408E+03  0.38018263286E+03  0.53738332886E+03  0.00000000000E+00 0. -1.
        -11    1    5    5    0    0 -0.82575904037E+01 -0.19352888257E+01  0.28598209105E+02  0.29829359801E+02  0.00000000000E+00 0.  1.
          4    1    6    6  503    0  0.54751121811E+01  0.13004154945E+02 -0.37576027890E+02  0.40137797289E+02  0.00000000000E+00 0. -1.
         -4    1    6    6    0  503  0.11292149653E+03  0.22882502096E+03 -0.80078958766E+02  0.26744119771E+03  0.00000000000E+00 0.  1.
<mgrwt>
<rscale>  0 0.61503928E+03</rscale>
<asrwt>0</asrwt>
<pdfrwt beam="1">  1        2 0.14124343E+00 0.61503928E+03</pdfrwt>
<pdfrwt beam="2">  1       -2 0.82593953E-01 0.61503928E+03</pdfrwt>
<totfact> 0.37718114E+01</totfact>
</mgrwt>
</event>
<event>
12    1  0.1338445E-007  0.1913851E+04  0.7818608E-02  0.8647993E-01
          1   -1    0    0  501    0  0.00000000000E+00  0.00000000000E+00  0.28003818946E+04  0.28003818946E+04  0.00000000000E+00 0. -1.
         -1   -1    0    0    0  501 -0.00000000000E+00 -0.00000000000E+00 -0.15351370217E+04  0.15351370217E+04  0.00000000000E+00 0.  1.
         23    2    1    2    0    0 -0.43379034959E+03 -0.18193428625E+04 -0.20258313701E+03  0.18834307270E+04  0.89938073801E+02 0.  0.
    5000000    2    1    2    0    0  0.43379034959E+03  0.18193428625E+04  0.14678280100E+04  0.24520881893E+04  0.60002908469E+03 0.  0.
         23    2    4    4    0    0  0.16963313508E+03  0.15905830131E+04  0.11658844209E+04  0.19814732576E+04  0.90664578876E+02 0.  0.
         23    2    4    4    0    0  0.26415721451E+03  0.22875984941E+03  0.30194358910E+03  0.47061493165E+03  0.90544907166E+02 0.  0.
          1    1    3    3  502    0 -0.36418660536E+03 -0.13712484772E+04 -0.16668311944E+03  0.14285438502E+04  0.00000000000E+00 0. -1.
         -1    1    3    3    0  502 -0.69603744226E+02 -0.44809438535E+03 -0.35900017566E+02  0.45488687677E+03  0.00000000000E+00 0.  1.
         13    1    5    5    0    0  0.46640698853E+02  0.86159360174E+03  0.63321855019E+03  0.10702731528E+04  0.00000000000E+00 0. -1.
        -13    1    5    5    0    0  0.12299243622E+03  0.72898941136E+03  0.53266587067E+03  0.91120010482E+03  0.00000000000E+00 0.  1.
          2    1    6    6  503    0  0.18615526752E+03  0.12817679806E+03  0.23783239322E+03  0.32809651393E+03  0.00000000000E+00 0. -1.
         -2    1    6    6    0  503  0.78001946987E+02  0.10058305135E+03  0.64111195875E+02  0.14251841772E+03  0.00000000000E+00 0.  1.
<mgrwt>
<rscale>  0 0.19138506E+04</rscale>
<asrwt>0</asrwt>
<pdfrwt beam="1">  1        1 0.43082798E+00 0.19138506E+04</pdfrwt>
<pdfrwt beam="2">  1       -1 0.23617493E+00 0.19138506E+04</pdfrwt>
<totfact> 0.64348596E-02</totfact>
</mgrwt>
</event>
<event>
12    1  0.1338445E-007  0.5573139E+03  0.7818608E-02  0.9998151E-01
          1   -1    0    0  501    0  0.00000000000E+00  0.00000000000E+00  0.12012048576E+04  0.12012048576E+04  0.00000000000E+00 0. -1.
         -1   -1    0    0    0  501 -0.00000000000E+00 -0.00000000000E+00 -0.65405502192E+03  0.65405502192E+03  0.00000000000E+00 0.  1.
         23    2    1    2    0    0 -0.48293804901E+03 -0.19390891778E+03  0.85432930488E+03  0.10036385786E+04  0.81129573590E+02 0.  0.
    5000000    2    1    2    0    0  0.48293804901E+03  0.19390891778E+03 -0.30717946917E+03  0.85162130095E+03  0.60005815249E+03 0.  0.
         23    2    4    4    0    0  0.45537642234E+03  0.19472032503E+03 -0.45344974829E+03  0.67754384125E+03  0.90362003034E+02 0.  0.
         23    2    4    4    0    0  0.27561626675E+02 -0.81140724757E+00  0.14627027912E+03  0.17407745970E+03  0.90264421416E+02 0.  0.
          4    1    3    3  502    0 -0.13905688435E+03 -0.59635246233E+02  0.18251220732E+03  0.23707358668E+03  0.00000000000E+00 0. -1.
         -4    1    3    3    0  502 -0.34388116467E+03 -0.13427367155E+03  0.67181709756E+03  0.76656499193E+03  0.00000000000E+00 0.  1.
         11    1    5    5    0    0  0.36114774024E+03  0.12351832792E+03 -0.30989660050E+03  0.49165065912E+03  0.00000000000E+00 0. -1.
        -11    1    5    5    0    0  0.94228682100E+02  0.71201997111E+02 -0.14355314779E+03  0.18589318213E+03  0.00000000000E+00 0.  1.
          2    1    6    6  503    0 -0.31767354243E+02 -0.12060028337E+02  0.51111131904E+02  0.61375539783E+02  0.00000000000E+00 0. -1.
         -2    1    6    6    0  503  0.59328980919E+02  0.11248621089E+02  0.95159147219E+02  0.11270191992E+03  0.00000000000E+00 0.  1.
<mgrwt>
<rscale>  0 0.55731391E+03</rscale>
<asrwt>0</asrwt>
<pdfrwt beam="1">  1        1 0.18480075E+00 0.55731391E+03</pdfrwt>
<pdfrwt beam="2">  1       -1 0.10062385E+00 0.55731391E+03</pdfrwt>
<totfact> 0.10701043E+01</totfact>
</mgrwt>
</event>
<event>
12    1  0.1338445E-007  0.2834098E+03  0.7818608E-02  0.1093841E+00
          1   -1    0    0  501    0  0.00000000000E+00  0.00000000000E+00  0.28982676468E+04  0.28982676468E+04  0.00000000000E+00 0. -1.
         -1   -1    0    0    0  501 -0.00000000000E+00 -0.00000000000E+00 -0.48206919802E+02  0.48206919802E+02  0.00000000000E+00 0.  1.
         23    2    1    2    0    0  0.58685165481E+02  0.81141752188E+02  0.66148811961E+03  0.67487838424E+03  0.88692550547E+02 0.  0.
    5000000    2    1    2    0    0 -0.58685165481E+02 -0.81141752188E+02  0.21885726074E+04  0.22715961824E+04  0.60022597857E+03 0.  0.
         23    2    4    4    0    0 -0.22382999024E+03  0.14179328309E+02  0.37729946037E+03  0.44805684878E+03  0.89995216869E+02 0.  0.
         23    2    4    4    0    0  0.16514482476E+03 -0.95321080497E+02  0.18112731470E+04  0.18235393336E+04  0.90699319199E+02 0.  0.
          3    1    3    3  502    0 -0.14883461886E+02  0.52896692349E+02  0.27666868665E+03  0.28207293325E+03  0.00000000000E+00 0. -1.
         -3    1    3    3    0  502  0.73568627368E+02  0.28245059839E+02  0.38481943296E+03  0.39280545099E+03  0.00000000000E+00 0.  1.
         11    1    5    5    0    0 -0.79355909236E+02 -0.37618573463E+02  0.12568828133E+03  0.15332991053E+03  0.00000000000E+00 0.  1.
        -11    1    5    5    0    0 -0.14447408101E+03  0.51797901773E+02  0.25161117904E+03  0.29472693825E+03  0.00000000000E+00 0. -1.
          2    1    6    6  503    0  0.82012187571E+02 -0.35606424156E+02  0.12361252827E+04  0.12393544815E+04  0.00000000000E+00 0. -1.
         -2    1    6    6    0  503  0.83132637192E+02 -0.59714656341E+02  0.57514786431E+03  0.58418485205E+03  0.00000000000E+00 0.  1.
<mgrwt>
<rscale>  0 0.28340983E+03</rscale>
<asrwt>0</asrwt>
<pdfrwt beam="1">  1        1 0.44588719E+00 0.28340983E+03</pdfrwt>
<pdfrwt beam="2">  1       -1 0.74164515E-02 0.28340983E+03</pdfrwt>
<totfact> 0.82124235E+01</totfact>
</mgrwt>
</event>
<event>
12    1  0.1338445E-007  0.4120702E+03  0.7818608E-02  0.1039679E+00
          2   -1    0    0  501    0  0.00000000000E+00  0.00000000000E+00  0.30461056482E+04  0.30461056482E+04  0.00000000000E+00 0. -1.
         -2   -1    0    0    0  501 -0.00000000000E+00 -0.00000000000E+00 -0.97626511197E+02  0.97626511197E+02  0.00000000000E+00 0.  1.
         23    2    1    2    0    0 -0.73855300154E+02  0.32180778430E+03  0.51249050403E+03  0.61331833742E+03  0.67067211838E+02 0.  0.
    5000000    2    1    2    0    0  0.73855300154E+02 -0.32180778430E+03  0.24359886329E+04  0.25304138219E+04  0.59994886038E+03 0.  0.
         23    2    4    4    0    0 -0.65636714387E+02 -0.31808389101E+03  0.22796593609E+04  0.23044506700E+04  0.90335755767E+02 0.  0.
         23    2    4    4    0    0  0.13949201454E+03 -0.37238932834E+01  0.15632927203E+03  0.22596315192E+03  0.84549483922E+02 0.  0.
          4    1    3    3  502    0 -0.79944374717E+02  0.26097808949E+03  0.44685843490E+03  0.52362498707E+03  0.00000000000E+00 0. -1.
         -4    1    3    3    0  502  0.60890745628E+01  0.60829694806E+02  0.65632069130E+02  0.89693350352E+02  0.00000000000E+00 0.  1.
         13    1    5    5    0    0 -0.70735955015E+02 -0.29219630128E+03  0.18766190525E+04  0.19005476374E+04  0.00000000000E+00 0. -1.
        -13    1    5    5    0    0  0.50992406277E+01 -0.25887589729E+02  0.40304030840E+03  0.40390303261E+03  0.00000000000E+00 0.  1.
          1    1    6    6  503    0 -0.56223708686E+00 -0.21812428384E+02  0.18045138184E+02  0.28314751538E+02  0.00000000000E+00 0. -1.
         -1    1    6    6    0  503  0.14005425163E+03  0.18088535101E+02  0.13828413384E+03  0.19764840038E+03  0.00000000000E+00 0.  1.
<mgrwt>
<rscale>  0 0.41207022E+03</rscale>
<asrwt>0</asrwt>
<pdfrwt beam="1">  1        2 0.46863157E+00 0.41207022E+03</pdfrwt>
<pdfrwt beam="2">  1       -2 0.15019466E-01 0.41207022E+03</pdfrwt>
<totfact> 0.64150094E+01</totfact>
</mgrwt>
</event>
<event>
12    1  0.1338445E-007  0.3697616E+03  0.7818608E-02  0.1054784E+00
          1   -1    0    0  501    0  0.00000000000E+00  0.00000000000E+00  0.10655158956E+04  0.10655158956E+04  0.00000000000E+00 0. -1.
         -1   -1    0    0    0  501 -0.00000000000E+00 -0.00000000000E+00 -0.15219245524E+03  0.15219245524E+03  0.00000000000E+00 0.  1.
         23    2    1    2    0    0  0.12121486077E+03  0.78393845504E+02  0.10640170150E+03  0.20181256361E+03  0.92565389133E+02 0.  0.
    5000000    2    1    2    0    0 -0.12121486077E+03 -0.78393845504E+02  0.80692173886E+03  0.10158957872E+04  0.60006909635E+03 0.  0.
         23    2    4    4    0    0 -0.16556682199E+03 -0.30763993917E+03  0.40763455445E+03  0.54455737813E+03  0.91225563175E+02 0.  0.
         23    2    4    4    0    0  0.44351961225E+02  0.22924609367E+03  0.39928718441E+03  0.47133840911E+03  0.90602275563E+02 0.  0.
          3    1    3    3  502    0  0.10073725238E+03  0.63369387437E+02  0.12325267241E+03  0.17133270131E+03  0.00000000000E+00 0. -1.
         -3    1    3    3    0  502  0.20477608388E+02  0.15024458067E+02 -0.16850970909E+02  0.30479862304E+02  0.00000000000E+00 0.  1.
         13    1    5    5    0    0 -0.45669707740E+02 -0.41673427150E+02  0.34140323510E+02  0.70625479997E+02  0.00000000000E+00 0. -1.
        -13    1    5    5    0    0 -0.11989711425E+03 -0.26596651202E+03  0.37349423093E+03  0.47393189813E+03  0.00000000000E+00 0.  1.
          4    1    6    6  503    0 -0.14316687738E+02  0.78324670476E+02  0.77524966918E+02  0.11112984319E+03  0.00000000000E+00 0. -1.
         -4    1    6    6    0  503  0.58668648963E+02  0.15092142319E+03  0.32176221750E+03  0.36020856591E+03  0.00000000000E+00 0.  1.
<mgrwt>
<rscale>  0 0.36976160E+03</rscale>
<asrwt>0</asrwt>
<pdfrwt beam="1">  1        1 0.16392552E+00 0.36976160E+03</pdfrwt>
<pdfrwt beam="2">  1       -1 0.23414225E-01 0.36976160E+03</pdfrwt>
<totfact> 0.22095423E+02</totfact>
</mgrwt>
</event>
<event>
12    1  0.1338445E-007  0.1316572E+04  0.7818608E-02  0.9016526E-01
          2   -1    0    0  501    0  0.00000000000E+00  0.00000000000E+00  0.68989135727E+03  0.68989135727E+03  0.00000000000E+00 0. -1.
         -2   -1    0    0    0  501 -0.00000000000E+00 -0.00000000000E+00 -0.30241074723E+04  0.30241074723E+04  0.00000000000E+00 0.  1.
         23    2    1    2    0    0 -0.12397445892E+04 -0.20250686253E+03 -0.18548585814E+04  0.22416968603E+04  0.82029143703E+02 0.  0.
    5000000    2    1    2    0    0  0.12397445892E+04  0.20250686253E+03 -0.47935753357E+03  0.14723019693E+04  0.59992813575E+03 0.  0.
         23    2    4    4    0    0  0.38813665869E+03  0.33704616596E+03 -0.22746002495E+03  0.56946732228E+03  0.91130589727E+02 0.  0.
         23    2    4    4    0    0  0.85160793048E+03 -0.13453930343E+03 -0.25189750862E+03  0.90283464702E+03  0.91220357299E+02 0.  0.
          1    1    3    3  502    0 -0.58472361092E+03 -0.10710863660E+03 -0.94783930943E+03  0.11188267595E+04  0.00000000000E+00 0. -1.
         -1    1    3    3    0  502 -0.65502097824E+03 -0.95398225933E+02 -0.90701927200E+03  0.11228701008E+04  0.00000000000E+00 0.  1.
         11    1    5    5    0    0  0.32599154356E+03  0.27157999716E+03 -0.22242755414E+03  0.47906178951E+03  0.00000000000E+00 0. -1.
        -11    1    5    5    0    0  0.62145115124E+02  0.65466168807E+02 -0.50324708091E+01  0.90405532764E+02  0.00000000000E+00 0.  1.
          2    1    6    6  503    0  0.55221934861E+03 -0.83807355396E+02 -0.11751286244E+03  0.57077066729E+03  0.00000000000E+00 0. -1.
         -2    1    6    6    0  503  0.29938858187E+03 -0.50731948037E+02 -0.13438464618E+03  0.33206397973E+03  0.00000000000E+00 0.  1.
<mgrwt>
<rscale>  0 0.13165718E+04</rscale>
<asrwt>0</asrwt>
<pdfrwt beam="1">  1        2 0.10613713E+00 0.13165718E+04</pdfrwt>
<pdfrwt beam="2">  1       -2 0.46524730E+00 0.13165718E+04</pdfrwt>
<totfact> 0.11189092E-01</totfact>
</mgrwt>
</event>
<event>
12    1  0.1338445E-007  0.1104475E+04  0.7818608E-02  0.9200841E-01
          1   -1    0    0  501    0  0.00000000000E+00  0.00000000000E+00  0.45441747237E+04  0.45441747237E+04  0.00000000000E+00 0. -1.
         -1   -1    0    0    0  501 -0.00000000000E+00 -0.00000000000E+00 -0.28211757132E+03  0.28211757132E+03  0.00000000000E+00 0.  1.
         23    2    1    2    0    0 -0.49120766081E+03 -0.92802357582E+03  0.20774130676E+04  0.23294913268E+04  0.91498988169E+02 0.  0.
    5000000    2    1    2    0    0  0.49120766081E+03  0.92802357582E+03  0.21846440848E+04  0.24968009682E+04  0.59902635543E+03 0.  0.
         23    2    4    4    0    0  0.88120891857E+02 -0.46043634334E+02  0.39413256155E+03  0.41703968212E+03  0.93254021590E+02 0.  0.
         23    2    4    4    0    0  0.40308676896E+03  0.97406721016E+03  0.17905115232E+04  0.20797612861E+04  0.90496514899E+02 0.  0.
          2    1    3    3  502    0 -0.17178632906E+03 -0.30730484429E+03  0.60511229766E+03  0.70007692645E+03  0.00000000000E+00 0. -1.
         -2    1    3    3    0  502 -0.31942133175E+03 -0.62071873153E+03  0.14723007699E+04  0.16294144003E+04  0.00000000000E+00 0.  1.
         13    1    5    5    0    0  0.28469374466E+02 -0.65113822715E+01  0.18321303190E+02  0.34475694803E+02  0.00000000000E+00 0. -1.
        -13    1    5    5    0    0  0.59651517391E+02 -0.39532252062E+02  0.37581125836E+03  0.38256398731E+03  0.00000000000E+00 0.  1.
          2    1    6    6  503    0  0.37651824602E+03  0.82818104188E+03  0.15433087510E+04  0.17914942725E+04  0.00000000000E+00 0. -1.
         -2    1    6    6    0  503  0.26568522932E+02  0.14588616828E+03  0.24720277227E+03  0.28826701359E+03  0.00000000000E+00 0.  1.
<mgrwt>
<rscale>  0 0.11044749E+04</rscale>
<asrwt>0</asrwt>
<pdfrwt beam="1">  1        1 0.69910375E+00 0.11044749E+04</pdfrwt>
<pdfrwt beam="2">  1       -1 0.43402707E-01 0.11044749E+04</pdfrwt>
<totfact> 0.15996346E-01</totfact>
</mgrwt>
</event>
<event>
12    1  0.1338445E-007  0.3482428E+03  0.7818608E-02  0.1063339E+00
          2   -1    0    0  501    0  0.00000000000E+00  0.00000000000E+00  0.13601784573E+04  0.13601784573E+04  0.00000000000E+00 0. -1.
         -2   -1    0    0    0  501 -0.00000000000E+00 -0.00000000000E+00 -0.12990044338E+03  0.12990044338E+03  0.00000000000E+00 0.  1.
         23    2    1    2    0    0  0.95637408610E+02 -0.39350608773E+02  0.59901606779E+03  0.61414737392E+03  0.87531497649E+02 0.  0.
    5000000    2    1    2    0    0 -0.95637408610E+02  0.39350608773E+02  0.63126194613E+03  0.87593152677E+03  0.59838901279E+03 0.  0.
         23    2    4    4    0    0  0.61444641916E+02  0.27209030820E+03  0.42220830732E+03  0.51416752332E+03  0.91103278937E+02 0.  0.
         23    2    4    4    0    0 -0.15708205053E+03 -0.23273969942E+03  0.20905363881E+03  0.36176400345E+03  0.91253668455E+02 0.  0.
          3    1    3    3  502    0  0.17690314163E+02 -0.41111570564E+02  0.35915306225E+03  0.36193097488E+03  0.00000000000E+00 0. -1.
         -3    1    3    3    0  502  0.77947094447E+02  0.17609617903E+01  0.23986300554E+03  0.25221639904E+03  0.00000000000E+00 0.  1.
         13    1    5    5    0    0  0.65687020221E+01  0.21002358377E+03  0.28943336733E+03  0.35766566471E+03  0.00000000000E+00 0. -1.
        -13    1    5    5    0    0  0.54875939894E+02  0.62066724424E+02  0.13277493999E+03  0.15650185861E+03  0.00000000000E+00 0.  1.
          3    1    6    6  503    0 -0.98893801833E+01 -0.14602139174E+02 -0.91902246997E+01  0.19886742792E+02  0.00000000000E+00 0. -1.
         -3    1    6    6    0  503 -0.14719267034E+03 -0.21813756025E+03  0.21824386351E+03  0.34187726066E+03  0.00000000000E+00 0.  1.
<mgrwt>
<rscale>  0 0.34824283E+03</rscale>
<asrwt>0</asrwt>
<pdfrwt beam="1">  1        2 0.20925821E+00 0.34824283E+03</pdfrwt>
<pdfrwt beam="2">  1       -2 0.19984685E-01 0.34824283E+03</pdfrwt>
<totfact> 0.34074050E+02</totfact>
</mgrwt>
</event>
<event>
12    1  0.1338445E-007  0.4237370E+03  0.7818608E-02  0.1035857E+00
          2   -1    0    0  501    0  0.00000000000E+00  0.00000000000E+00  0.14591473241E+04  0.14591473241E+04  0.00000000000E+00 0. -1.
         -2   -1    0    0    0  501 -0.00000000000E+00 -0.00000000000E+00 -0.36632078764E+03  0.36632078764E+03  0.00000000000E+00 0.  1.
         23    2    1    2    0    0 -0.19632361071E+03 -0.36623297672E+03 -0.90702100636E+02  0.43499567065E+03  0.91240391645E+02 0.  0.
    5000000    2    1    2    0    0  0.19632361071E+03  0.36623297672E+03  0.11835286371E+04  0.13904724411E+04  0.60000335101E+03 0.  0.
         23    2    4    4    0    0  0.48447609106E+02  0.20013797707E+03  0.11188263577E+04  0.11413526348E+04  0.92255284942E+02 0.  0.
         23    2    4    4    0    0  0.14787600161E+03  0.16609499964E+03  0.64702279340E+02  0.24911980622E+03  0.91757463695E+02 0.  0.
          4    1    3    3  502    0 -0.40705076582E+02 -0.11298962969E+03  0.11576367007E+02  0.12065476348E+03  0.00000000000E+00 0. -1.
         -4    1    3    3    0  502 -0.15561853413E+03 -0.25324334702E+03 -0.10227846764E+03  0.31434090717E+03  0.00000000000E+00 0.  1.
         11    1    5    5    0    0  0.49315386137E+02  0.15631657321E+03  0.64491770970E+03  0.66542146844E+03  0.00000000000E+00 0.  1.
        -11    1    5    5    0    0 -0.86777703094E+00  0.43821403864E+02  0.47390864803E+03  0.47593116640E+03  0.00000000000E+00 0. -1.
          4    1    6    6  503    0  0.10959116206E+03  0.12473396694E+03  0.88254751620E+02  0.18803639672E+03  0.00000000000E+00 0.  1.
         -4    1    6    6    0  503  0.38284839547E+02  0.41361032707E+02 -0.23552472280E+02  0.61083409500E+02  0.00000000000E+00 0. -1.
<mgrwt>
<rscale>  0 0.42373704E+03</rscale>
<asrwt>0</asrwt>
<pdfrwt beam="1">  1        2 0.22448420E+00 0.42373704E+03</pdfrwt>
<pdfrwt beam="2">  1       -2 0.56357045E-01 0.42373704E+03</pdfrwt>
<totfact> 0.42337534E+01</totfact>
</mgrwt>
</event>
<event>
12    1  0.1338445E-007  0.7317075E+03  0.7818608E-02  0.9664494E-01
          2   -1    0    0  501    0  0.00000000000E+00  0.00000000000E+00  0.10527653089E+04  0.10527653089E+04  0.00000000000E+00 0. -1.
         -2   -1    0    0    0  501 -0.00000000000E+00 -0.00000000000E+00 -0.17268675041E+04  0.17268675041E+04  0.00000000000E+00 0.  1.
         23    2    1    2    0    0 -0.55083146230E+03 -0.42093790544E+03 -0.14298159015E+04  0.15916566636E+04  0.91615515020E+02 0.  0.
    5000000    2    1    2    0    0  0.55083146230E+03  0.42093790544E+03  0.75571370628E+03  0.11879761494E+04  0.59964998581E+03 0.  0.
         23    2    4    4    0    0  0.33494592409E+03  0.43685400849E+03  0.77237810295E+03  0.95290475886E+03  0.91811484760E+02 0.  0.
         23    2    4    4    0    0  0.21588553821E+03 -0.15916103051E+02 -0.16664396674E+02  0.23507139050E+03  0.90116416748E+02 0.  0.
          4    1    3    3  502    0 -0.39387904632E+03 -0.31926798292E+03 -0.95303088673E+03  0.10795094345E+04  0.00000000000E+00 0. -1.
         -4    1    3    3    0  502 -0.15695241598E+03 -0.10166992253E+03 -0.47678501472E+03  0.51214722911E+03  0.00000000000E+00 0.  1.
         13    1    5    5    0    0  0.41105364713E+02  0.34550428629E+02  0.39194044079E+02  0.66479742914E+02  0.00000000000E+00 0. -1.
        -13    1    5    5    0    0  0.29384055937E+03  0.40230357986E+03  0.73318405887E+03  0.88642501594E+03  0.00000000000E+00 0.  1.
          1    1    6    6  503    0  0.31492455763E+02  0.51465050913E+01 -0.36430354437E+02  0.48429660426E+02  0.00000000000E+00 0. -1.
         -1    1    6    6    0  503  0.18439308245E+03 -0.21062608142E+02  0.19765957763E+02  0.18664173007E+03  0.00000000000E+00 0.  1.
<mgrwt>
<rscale>  0 0.73170749E+03</rscale>
<asrwt>0</asrwt>
<pdfrwt beam="1">  1        2 0.16196389E+00 0.73170749E+03</pdfrwt>
<pdfrwt beam="2">  1       -2 0.26567192E+00 0.73170749E+03</pdfrwt>
<totfact> 0.12513078E+00</totfact>
</mgrwt>
</event>
<event>
12    1  0.1338445E-007  0.3904479E+03  0.7818608E-02  0.1047138E+00
         -2   -1    0    0    0  501 -0.00000000000E+00  0.00000000000E+00  0.28746389749E+03  0.28746389749E+03  0.00000000000E+00 0.  1.
          2   -1    0    0  501    0  0.00000000000E+00 -0.00000000000E+00 -0.82648557468E+03  0.82648557468E+03  0.00000000000E+00 0. -1.
         23    2    1    2    0    0 -0.19473161577E+03  0.11063482635E+03  0.46205272601E+02  0.24674720647E+03  0.92675723383E+02 0.  0.
    5000000    2    1    2    0    0  0.19473161577E+03 -0.11063482635E+03 -0.58522694979E+03  0.86720226570E+03  0.59949038347E+03 0.  0.
         23    2    4    4    0    0  0.25243407927E+03 -0.26850784373E+03 -0.17834359189E+03  0.41752265324E+03  0.81849268019E+02 0.  0.
         23    2    4    4    0    0 -0.57702463495E+02  0.15787301739E+03 -0.40688335790E+03  0.44967961246E+03  0.91674549414E+02 0.  0.
          2    1    3    3  502    0 -0.12887074435E+03  0.71410616379E+02  0.74421540898E+02  0.16506274755E+03  0.00000000000E+00 0.  1.
         -2    1    3    3    0  502 -0.65860871427E+02  0.39224209967E+02 -0.28216268298E+02  0.81684458922E+02  0.00000000000E+00 0. -1.
         13    1    5    5    0    0  0.14565559198E+03 -0.17812607130E+03 -0.15032677299E+03  0.27485011812E+03  0.00000000000E+00 0. -1.
        -13    1    5    5    0    0  0.10677848729E+03 -0.90381772436E+02 -0.28016818898E+02  0.14267253512E+03  0.00000000000E+00 0.  1.
          4    1    6    6  503    0 -0.53794158022E+02  0.35438877814E+02 -0.96780087374E+02  0.11625880960E+03  0.00000000000E+00 0. -1.
         -4    1    6    6    0  503 -0.39083054731E+01  0.12243413957E+03 -0.31010327053E+03  0.33342080286E+03  0.00000000000E+00 0.  1.
<mgrwt>
<rscale>  0 0.39044795E+03</rscale>
<asrwt>0</asrwt>
<pdfrwt beam="1">  1        2 0.12715163E+00 0.39044795E+03</pdfrwt>
<pdfrwt beam="2">  1       -2 0.44225215E-01 0.39044795E+03</pdfrwt>
<totfact> 0.16606034E+02</totfact>
</mgrwt>
</event>
<event>
12    1  0.1338445E-007  0.7807049E+03  0.7818608E-02  0.9588374E-01
         -2   -1    0    0    0  501 -0.00000000000E+00  0.00000000000E+00  0.40647046828E+03  0.40647046828E+03  0.00000000000E+00 0.  1.
          2   -1    0    0  501    0  0.00000000000E+00 -0.00000000000E+00 -0.18355065895E+04  0.18355065895E+04  0.00000000000E+00 0. -1.
         23    2    1    2    0    0  0.21824245645E+03 -0.71360627788E+03 -0.47176684332E+03  0.88798188416E+03  0.95310977989E+02 0.  0.
    5000000    2    1    2    0    0 -0.21824245645E+03  0.71360627788E+03 -0.95726927796E+03  0.13539951737E+04  0.60006230522E+03 0.  0.
         23    2    4    4    0    0  0.36004388781E+02  0.38878888215E+03 -0.12376547346E+03  0.41961804913E+03  0.91149897645E+02 0.  0.
         23    2    4    4    0    0 -0.25424684523E+03  0.32481739573E+03 -0.83350380450E+03  0.93437712453E+03  0.90466678118E+02 0.  0.
          4    1    3    3  502    0  0.12096810309E+03 -0.40853574954E+03 -0.32432196076E+03  0.53546192661E+03  0.00000000000E+00 0. -1.
         -4    1    3    3    0  502  0.97274353362E+02 -0.30507052834E+03 -0.14744488256E+03  0.35251995755E+03  0.00000000000E+00 0.  1.
         11    1    5    5    0    0 -0.12115881473E+02  0.41313083623E+02 -0.40435832284E+02  0.59064557857E+02  0.00000000000E+00 0. -1.
        -11    1    5    5    0    0  0.48120270254E+02  0.34747579853E+03 -0.83329641172E+02  0.36055349127E+03  0.00000000000E+00 0.  1.
          3    1    6    6  503    0 -0.16289561535E+03  0.26827764010E+03 -0.64803792519E+03  0.72004237803E+03  0.00000000000E+00 0. -1.
         -3    1    6    6    0  503 -0.91351229883E+02  0.56539755624E+02 -0.18546587931E+03  0.21433474650E+03  0.00000000000E+00 0.  1.
<mgrwt>
<rscale>  0 0.78070494E+03</rscale>
<asrwt>0</asrwt>
<pdfrwt beam="1">  1        2 0.28238563E+00 0.78070494E+03</pdfrwt>
<pdfrwt beam="2">  1       -2 0.62533918E-01 0.78070494E+03</pdfrwt>
<totfact> 0.20074360E+01</totfact>
</mgrwt>
</event>
<event>
12    1  0.1338445E-007  0.1274918E+04  0.7818608E-02  0.9049696E-01
         -1   -1    0    0    0  501 -0.00000000000E+00  0.00000000000E+00  0.12119664091E+04  0.12119664091E+04  0.00000000000E+00 0.  1.
          1   -1    0    0  501    0  0.00000000000E+00 -0.00000000000E+00 -0.14768653355E+04  0.14768653355E+04  0.00000000000E+00 0. -1.
         23    2    1    2    0    0  0.43602381633E+03  0.11247179006E+04 -0.52148990423E+03  0.13173561896E+04  0.91479428647E+02 0.  0.
    5000000    2    1    2    0    0 -0.43602381633E+03 -0.11247179006E+04  0.25659097779E+03  0.13714755549E+04  0.59999928635E+03 0.  0.
         23    2    4    4    0    0  0.92928621868E+02 -0.45679011377E+02  0.49210411616E+02  0.14866647204E+03  0.94645414343E+02 0.  0.
         23    2    4    4    0    0 -0.52895243820E+03 -0.10790388892E+04  0.20738056617E+03  0.12228090829E+04  0.90220550265E+02 0.  0.
          2    1    3    3  502    0  0.10083446746E+03  0.19753956602E+03 -0.12603200371E+03  0.25509515074E+03  0.00000000000E+00 0. -1.
         -2    1    3    3    0  502  0.33518934887E+03  0.92717833456E+03 -0.39545790052E+03  0.10622610389E+04  0.00000000000E+00 0.  1.
         11    1    5    5    0    0  0.34996980273E+02  0.28925017724E+02  0.21457431547E+02  0.50218190401E+02  0.00000000000E+00 0. -1.
        -11    1    5    5    0    0  0.57931641594E+02 -0.74604029100E+02  0.27752980068E+02  0.98448281643E+02  0.00000000000E+00 0.  1.
          4    1    6    6  503    0 -0.28494812604E+03 -0.53924943359E+03  0.14693628650E+03  0.62735608585E+03  0.00000000000E+00 0. -1.
         -4    1    6    6    0  503 -0.24400431216E+03 -0.53978945562E+03  0.60444279669E+02  0.59545299705E+03  0.00000000000E+00 0.  1.
<mgrwt>
<rscale>  0 0.12749177E+04</rscale>
<asrwt>0</asrwt>
<pdfrwt beam="1">  1        1 0.22721005E+00 0.12749177E+04</pdfrwt>
<pdfrwt beam="2">  1       -1 0.18645637E+00 0.12749177E+04</pdfrwt>
<totfact> 0.12341325E+00</totfact>
</mgrwt>
</event>
<event>
12    1  0.1338445E-007  0.3967606E+03  0.7818608E-02  0.1044907E+00
         -2   -1    0    0    0  501 -0.00000000000E+00  0.00000000000E+00  0.33802503533E+03  0.33802503533E+03  0.00000000000E+00 0.  1.
          2   -1    0    0  501    0  0.00000000000E+00 -0.00000000000E+00 -0.56722529041E+03  0.56722529041E+03  0.00000000000E+00 0. -1.
         23    2    1    2    0    0  0.93054542792E+02 -0.19757478180E+03 -0.48977193450E+02  0.24183728651E+03  0.91605487460E+02 0.  0.
    5000000    2    1    2    0    0 -0.93054542792E+02  0.19757478180E+03 -0.18022306163E+03  0.66341303923E+03  0.59995130331E+03 0.  0.
         23    2    4    4    0    0 -0.28344889802E+03  0.23474239439E+03  0.21676293653E+01  0.37940192313E+03  0.92162091674E+02 0.  0.
         23    2    4    4    0    0  0.19039435523E+03 -0.37167612597E+02 -0.18239069100E+03  0.28401111611E+03  0.98815525005E+02 0.  0.
          4    1    3    3  502    0  0.42627759047E+02 -0.58332877910E+02  0.24798961121E+02  0.76386117583E+02  0.00000000000E+00 0. -1.
         -4    1    3    3    0  502  0.50426783745E+02 -0.13924190389E+03 -0.73776154571E+02  0.16545116893E+03  0.00000000000E+00 0.  1.
         13    1    5    5    0    0 -0.10213986107E+03  0.11477320996E+03  0.39919751443E+02  0.15874201555E+03  0.00000000000E+00 0. -1.
        -13    1    5    5    0    0 -0.18130903695E+03  0.11996918443E+03 -0.37752122077E+02  0.22065990758E+03  0.00000000000E+00 0.  1.
          3    1    6    6  503    0  0.51756218162E+02  0.15188825717E+02 -0.10207860779E+03  0.11545323172E+03  0.00000000000E+00 0. -1.
         -3    1    6    6    0  503  0.13863813706E+03 -0.52356438314E+02 -0.80312083207E+02  0.16855788439E+03  0.00000000000E+00 0.  1.
<mgrwt>
<rscale>  0 0.39676060E+03</rscale>
<asrwt>0</asrwt>
<pdfrwt beam="1">  1        2 0.87265429E-01 0.39676060E+03</pdfrwt>
<pdfrwt beam="2">  1       -2 0.52003852E-01 0.39676060E+03</pdfrwt>
<totfact> 0.19088111E+02</totfact>
</mgrwt>
</event>
<event>
12    1  0.1338445E-007  0.1131256E+04  0.7818608E-02  0.9175252E-01
         -1   -1    0    0    0  501 -0.00000000000E+00  0.00000000000E+00  0.97317000271E+03  0.97317000271E+03  0.00000000000E+00 0.  1.
          1   -1    0    0  501    0  0.00000000000E+00 -0.00000000000E+00 -0.20111138353E+04  0.20111138353E+04  0.00000000000E+00 0. -1.
         23    2    1    2    0    0  0.40312766970E+03 -0.97982277722E+03  0.36744372280E+03  0.11248012693E+04  0.87168877558E+02 0.  0.
    5000000    2    1    2    0    0 -0.40312766970E+03  0.97982277722E+03 -0.14053875554E+04  0.18594825687E+04  0.59999720795E+03 0.  0.
         23    2    4    4    0    0 -0.27044072227E+03  0.77607691356E+02 -0.42728596208E+03  0.51907250730E+03  0.87760107234E+02 0.  0.
         23    2    4    4    0    0 -0.13268694743E+03  0.90221508586E+03 -0.97810159328E+03  0.13404100614E+04  0.91752485778E+02 0.  0.
          1    1    3    3  502    0  0.10844547254E+03 -0.34655864928E+03  0.97595963201E+02  0.37601634265E+03  0.00000000000E+00 0. -1.
         -1    1    3    3    0  502  0.29468219716E+03 -0.63326412794E+03  0.26984775960E+03  0.74878492668E+03  0.00000000000E+00 0.  1.
         11    1    5    5    0    0 -0.20282277906E+03  0.78822224140E+02 -0.37510967050E+03  0.43365572477E+03  0.00000000000E+00 0. -1.
        -11    1    5    5    0    0 -0.67617943211E+02 -0.12145327843E+01 -0.52176291576E+02  0.85416782522E+02  0.00000000000E+00 0.  1.
          2    1    6    6  503    0 -0.56330561261E+01  0.30727215902E+03 -0.30143987026E+03  0.43048101748E+03  0.00000000000E+00 0. -1.
         -2    1    6    6    0  503 -0.12705389131E+03  0.59494292684E+03 -0.67666172301E+03  0.90992904388E+03  0.00000000000E+00 0.  1.
<mgrwt>
<rscale>  0 0.11312560E+04</rscale>
<asrwt>0</asrwt>
<pdfrwt beam="1">  1        1 0.30940213E+00 0.11312560E+04</pdfrwt>
<pdfrwt beam="2">  1       -1 0.14971846E+00 0.11312560E+04</pdfrwt>
<totfact> 0.10187767E+00</totfact>
</mgrwt>
</event>
<event>
12    1  0.1338445E-007  0.4268454E+03  0.7818608E-02  0.1034861E+00
          2   -1    0    0  501    0  0.00000000000E+00  0.00000000000E+00  0.37114978115E+04  0.37114978115E+04  0.00000000000E+00 0. -1.
         -2   -1    0    0    0  501 -0.00000000000E+00 -0.00000000000E+00 -0.92019729652E+02  0.92019729652E+02  0.00000000000E+00 0.  1.
         23    2    1    2    0    0  0.31464264752E+02  0.32534092911E+03  0.22247566350E+04  0.22504198982E+04  0.89503703909E+02 0.  0.
    5000000    2    1    2    0    0 -0.31464264752E+02 -0.32534092911E+03  0.13947214468E+04  0.15530976430E+04  0.60002304473E+03 0.  0.
         23    2    4    4    0    0 -0.13124995554E+03 -0.37309002824E+03  0.48757970550E+03  0.63477047748E+03  0.93684949996E+02 0.  0.
         23    2    4    4    0    0  0.99785690791E+02  0.47749099124E+02  0.90714174134E+03  0.91832716550E+03  0.90451553079E+02 0.  0.
          3    1    3    3  502    0  0.27652783672E+02  0.16149066585E+03  0.82587671258E+03  0.84197164797E+03  0.00000000000E+00 0.  1.
         -3    1    3    3    0  502  0.38114810795E+01  0.16385026327E+03  0.13988799224E+04  0.14084482502E+04  0.00000000000E+00 0. -1.
         11    1    5    5    0    0 -0.12422252335E+03 -0.33827234622E+03  0.39034873705E+03  0.53125469602E+03  0.00000000000E+00 0. -1.
        -11    1    5    5    0    0 -0.70274321951E+01 -0.34817682014E+02  0.97230968453E+02  0.10351578146E+03  0.00000000000E+00 0.  1.
          2    1    6    6  503    0  0.84056232688E+02  0.65349266851E+02  0.53815419920E+03  0.54858537991E+03  0.00000000000E+00 0. -1.
         -2    1    6    6    0  503  0.15729458102E+02 -0.17600167727E+02  0.36898754214E+03  0.36974178559E+03  0.00000000000E+00 0.  1.
<mgrwt>
<rscale>  0 0.42684543E+03</rscale>
<asrwt>0</asrwt>
<pdfrwt beam="1">  1        2 0.57099955E+00 0.42684543E+03</pdfrwt>
<pdfrwt beam="2">  1       -2 0.14156884E-01 0.42684543E+03</pdfrwt>
<totfact> 0.25892641E+01</totfact>
</mgrwt>
</event>
<event>
12    1  0.1338445E-007  0.4308672E+03  0.7818608E-02  0.1033586E+00
          2   -1    0    0  501    0  0.00000000000E+00  0.00000000000E+00  0.18051638068E+04  0.18051638068E+04  0.00000000000E+00 0. -1.
         -2   -1    0    0    0  501 -0.00000000000E+00 -0.00000000000E+00 -0.25223143307E+03  0.25223143307E+03  0.00000000000E+00 0.  1.
         23    2    1    2    0    0 -0.17665019514E+03  0.17155612518E+03 -0.10076599659E+03  0.28111325897E+03  0.90741846846E+02 0.  0.
    5000000    2    1    2    0    0  0.17665019514E+03 -0.17155612518E+03  0.16536983703E+04  0.17762819809E+04  0.59985213191E+03 0.  0.
         23    2    4    4    0    0  0.27708683809E+03  0.10023303081E+03  0.54149809012E+03  0.62326639409E+03  0.91744428108E+02 0.  0.
         23    2    4    4    0    0 -0.10043664295E+03 -0.27178915599E+03  0.11122002802E+04  0.11530155868E+04  0.92187936327E+02 0.  0.
          2    1    3    3  502    0  0.29943894231E+01  0.36963661236E+02 -0.64910777399E+01  0.37648541941E+02  0.00000000000E+00 0. -1.
         -2    1    3    3    0  502 -0.17964458456E+03  0.13459246395E+03 -0.94274918852E+02  0.24346471703E+03  0.00000000000E+00 0.  1.
         13    1    5    5    0    0  0.20157538263E+03  0.56843979162E+02  0.45315965653E+03  0.49921693396E+03  0.00000000000E+00 0. -1.
        -13    1    5    5    0    0  0.75511455458E+02  0.43389051648E+02  0.88338433595E+02  0.12404946013E+03  0.00000000000E+00 0.  1.
          4    1    6    6  503    0 -0.73730690583E+02 -0.75409361498E+02  0.41535591220E+03  0.42853625323E+03  0.00000000000E+00 0. -1.
         -4    1    6    6    0  503 -0.26705952369E+02 -0.19637979449E+03  0.69684436796E+03  0.72447933355E+03  0.00000000000E+00 0.  1.
<mgrwt>
<rscale>  0 0.43086725E+03</rscale>
<asrwt>0</asrwt>
<pdfrwt beam="1">  1        2 0.27771750E+00 0.43086725E+03</pdfrwt>
<pdfrwt beam="2">  1       -2 0.38804837E-01 0.43086725E+03</pdfrwt>
<totfact> 0.57840039E+01</totfact>
</mgrwt>
</event>
<event>
12    1  0.1338445E-007  0.8281839E+03  0.7818608E-02  0.9520095E-01
          2   -1    0    0  501    0  0.00000000000E+00  0.00000000000E+00  0.18044193121E+04  0.18044193121E+04  0.00000000000E+00 0. -1.
         -2   -1    0    0    0  501 -0.00000000000E+00 -0.00000000000E+00 -0.59294242192E+03  0.59294242192E+03  0.00000000000E+00 0.  1.
         23    2    1    2    0    0  0.28849260263E+03  0.66384026188E+03  0.12600897509E+04  0.14561344280E+04  0.92679108972E+02 0.  0.
    5000000    2    1    2    0    0 -0.28849260263E+03 -0.66384026188E+03 -0.48612860712E+02  0.94122730596E+03  0.59969471916E+03 0.  0.
         23    2    4    4    0    0 -0.18873652830E+03  0.46944641623E+02 -0.26850324419E+02  0.21721793744E+03  0.92937699190E+02 0.  0.
         23    2    4    4    0    0 -0.99756074325E+02 -0.71078490350E+03 -0.21762536293E+02  0.72400936852E+03  0.92463529586E+02 0.  0.
          1    1    3    3  502    0  0.20313758224E+03  0.47954470802E+03  0.98483368090E+03  0.11140580700E+04  0.00000000000E+00 0. -1.
         -1    1    3    3    0  502  0.85355020384E+02  0.18429555386E+03  0.27525606997E+03  0.34207635804E+03  0.00000000000E+00 0.  1.
         13    1    5    5    0    0  0.61482023583E+01  0.16319257554E+02 -0.75383235649E+01  0.18998549458E+02  0.00000000000E+00 0. -1.
        -13    1    5    5    0    0 -0.19488473066E+03  0.30625384070E+02 -0.19312000854E+02  0.19821938798E+03  0.00000000000E+00 0.  1.
          3    1    6    6  503    0 -0.57391281457E+02 -0.40028072737E+03 -0.58108069072E+02  0.40852780515E+03  0.00000000000E+00 0. -1.
         -3    1    6    6    0  503 -0.42364792868E+02 -0.31050417613E+03  0.36345532779E+02  0.31548156337E+03  0.00000000000E+00 0.  1.
<mgrwt>
<rscale>  0 0.82818388E+03</rscale>
<asrwt>0</asrwt>
<pdfrwt beam="1">  1        2 0.27760297E+00 0.82818388E+03</pdfrwt>
<pdfrwt beam="2">  1       -2 0.91221912E-01 0.82818388E+03</pdfrwt>
<totfact> 0.89625920E+00</totfact>
</mgrwt>
</event>
<event>
12    1  0.1338445E-007  0.5699035E+03  0.7818608E-02  0.9969892E-01
         -2   -1    0    0    0  501 -0.00000000000E+00  0.00000000000E+00  0.41731864651E+03  0.41731864651E+03  0.00000000000E+00 0.  1.
          2   -1    0    0  501    0  0.00000000000E+00 -0.00000000000E+00 -0.96847906743E+03  0.96847906743E+03  0.00000000000E+00 0. -1.
         23    2    1    2    0    0 -0.32260549069E+03 -0.35242588007E+03 -0.33038166228E+03  0.58797948182E+03  0.91046826957E+02 0.  0.
    5000000    2    1    2    0    0  0.32260549069E+03  0.35242588007E+03 -0.22077875864E+03  0.79781823212E+03  0.59957682383E+03 0.  0.
         23    2    4    4    0    0 -0.53787097657E+02 -0.48341428435E+02  0.10057969013E+03  0.15440762414E+03  0.92171008179E+02 0.  0.
         23    2    4    4    0    0  0.37639258835E+03  0.40076730850E+03 -0.32135844877E+03  0.64341060798E+03  0.91761330309E+02 0.  0.
          3    1    3    3  502    0 -0.11354764293E+03 -0.17666549980E+03 -0.17753571030E+03  0.27499580808E+03  0.00000000000E+00 0. -1.
         -3    1    3    3    0  502 -0.20905784777E+03 -0.17576038027E+03 -0.15284595199E+03  0.31298367373E+03  0.00000000000E+00 0.  1.
         13    1    5    5    0    0 -0.34381124515E+01  0.20871762187E+02  0.51663629131E+02  0.55826352639E+02  0.00000000000E+00 0. -1.
        -13    1    5    5    0    0 -0.50348985206E+02 -0.69213190621E+02  0.48916060996E+02  0.98581271500E+02  0.00000000000E+00 0.  1.
          2    1    6    6  503    0  0.76254958859E+02  0.88232215999E+02 -0.27393003155E+02  0.11979198351E+03  0.00000000000E+00 0. -1.
         -2    1    6    6    0  503  0.30013762949E+03  0.31253509250E+03 -0.29396544561E+03  0.52361862448E+03  0.00000000000E+00 0.  1.
<mgrwt>
<rscale>  0 0.56990352E+03</rscale>
<asrwt>0</asrwt>
<pdfrwt beam="1">  1        2 0.14899678E+00 0.56990352E+03</pdfrwt>
<pdfrwt beam="2">  1       -2 0.64202868E-01 0.56990352E+03</pdfrwt>
<totfact> 0.61089640E+01</totfact>
</mgrwt>
</event>
<event>
12    1  0.1338445E-007  0.6787984E+03  0.7818608E-02  0.9754193E-01
          2   -1    0    0  501    0  0.00000000000E+00  0.00000000000E+00  0.16889210242E+04  0.16889210242E+04  0.00000000000E+00 0. -1.
         -2   -1    0    0    0  501 -0.00000000000E+00 -0.00000000000E+00 -0.32351808063E+03  0.32351808063E+03  0.00000000000E+00 0.  1.
         23    2    1    2    0    0  0.60346286564E+03 -0.51914901771E+02  0.70552920917E+03  0.93434889131E+03  0.91508461175E+02 0.  0.
    5000000    2    1    2    0    0 -0.60346286564E+03  0.51914901771E+02  0.65987373437E+03  0.10780902135E+04  0.59998547972E+03 0.  0.
         23    2    4    4    0    0 -0.55778399489E+02 -0.14556673869E+03 -0.16848994201E+02  0.18109369172E+03  0.90609774926E+02 0.  0.
         23    2    4    4    0    0 -0.54768446615E+03  0.19748164046E+03  0.67672272857E+03  0.89699652177E+03  0.87703112355E+02 0.  0.
          3    1    3    3  502    0  0.53627732200E+03 -0.26657140625E+02  0.58493485631E+03  0.79401055117E+03  0.00000000000E+00 0. -1.
         -3    1    3    3    0  502  0.67185543640E+02 -0.25257761147E+02  0.12059435286E+03  0.14033834014E+03  0.00000000000E+00 0.  1.
         11    1    5    5    0    0 -0.50689259184E+02 -0.14737962063E+03  0.76163455253E+01  0.15603897684E+03  0.00000000000E+00 0. -1.
        -11    1    5    5    0    0 -0.50891403048E+01  0.18128819358E+01 -0.24465339726E+02  0.25054714883E+02  0.00000000000E+00 0.  1.
          4    1    6    6  503    0 -0.45894779707E+03  0.13266506641E+03  0.52753524826E+03  0.71170677841E+03  0.00000000000E+00 0. -1.
         -4    1    6    6    0  503 -0.88736669079E+02  0.64816574050E+02  0.14918748031E+03  0.18528974335E+03  0.00000000000E+00 0.  1.
<mgrwt>
<rscale>  0 0.67879838E+03</rscale>
<asrwt>0</asrwt>
<pdfrwt beam="1">  1        2 0.25983400E+00 0.67879838E+03</pdfrwt>
<pdfrwt beam="2">  1       -2 0.49772013E-01 0.67879838E+03</pdfrwt>
<totfact> 0.39310082E+01</totfact>
</mgrwt>
</event>
<event>
12    1  0.1338445E-007  0.7729853E+03  0.7818608E-02  0.9599964E-01
         -1   -1    0    0    0  501 -0.00000000000E+00  0.00000000000E+00  0.36207033620E+03  0.36207033620E+03  0.00000000000E+00 0.  1.
          1   -1    0    0  501    0  0.00000000000E+00 -0.00000000000E+00 -0.16881844998E+04  0.16881844998E+04  0.00000000000E+00 0. -1.
         23    2    1    2    0    0 -0.43696314378E+03 -0.49772858881E+03 -0.60058113584E+03  0.89887833268E+03  0.92811740001E+02 0.  0.
    5000000    2    1    2    0    0  0.43696314378E+03  0.49772858881E+03 -0.72553302776E+03  0.11513765033E+04  0.60049907651E+03 0.  0.
         23    2    4    4    0    0  0.46886690413E+03  0.11063582533E+03 -0.46185720814E+03  0.67350068596E+03  0.90634616135E+02 0.  0.
         23    2    4    4    0    0 -0.31903760351E+02  0.38709276348E+03 -0.26367581962E+03  0.47787581736E+03  0.89340368851E+02 0.  0.
          1    1    3    3  502    0 -0.71900091572E+02 -0.12218715924E+03 -0.16613454037E+03  0.21840332084E+03  0.00000000000E+00 0. -1.
         -1    1    3    3    0  502 -0.36506305221E+03 -0.37554142957E+03 -0.43444659548E+03  0.68047501183E+03  0.00000000000E+00 0.  1.
         13    1    5    5    0    0  0.13007760108E+03  0.18931765116E+02 -0.75764343758E+02  0.15171957625E+03  0.00000000000E+00 0. -1.
        -13    1    5    5    0    0  0.33878930305E+03  0.91704060215E+02 -0.38609286438E+03  0.52178110971E+03  0.00000000000E+00 0.  1.
          3    1    6    6  503    0  0.30373387883E+02  0.12325859566E+03 -0.72872336540E+02  0.14637486645E+03  0.00000000000E+00 0. -1.
         -3    1    6    6    0  503 -0.62277148234E+02  0.26383416782E+03 -0.19080348308E+03  0.33150095091E+03  0.00000000000E+00 0.  1.
<mgrwt>
<rscale>  0 0.77298535E+03</rscale>
<asrwt>0</asrwt>
<pdfrwt beam="1">  1        1 0.25972069E+00 0.77298535E+03</pdfrwt>
<pdfrwt beam="2">  1       -1 0.55703129E-01 0.77298535E+03</pdfrwt>
<totfact> 0.16379071E+01</totfact>
</mgrwt>
</event>
<event>
12    1  0.1338445E-007  0.1177478E+04  0.7818608E-02  0.9132802E-01
         -1   -1    0    0    0  501 -0.00000000000E+00  0.00000000000E+00  0.69626867526E+03  0.69626867526E+03  0.00000000000E+00 0.  1.
          1   -1    0    0  501    0  0.00000000000E+00 -0.00000000000E+00 -0.21023094275E+04  0.21023094275E+04  0.00000000000E+00 0. -1.
         23    2    1    2    0    0 -0.78224762084E+03  0.80942866725E+03 -0.81567233038E+03  0.13930387135E+04  0.90274022406E+02 0.  0.
    5000000    2    1    2    0    0  0.78224762084E+03 -0.80942866725E+03 -0.59036842183E+03  0.14055393892E+04  0.59993332419E+03 0.  0.
         23    2    4    4    0    0  0.10217567464E+03  0.43837187822E+02 -0.19365041119E+03  0.24125776244E+03  0.91341439991E+02 0.  0.
         23    2    4    4    0    0  0.68007194620E+03 -0.85326585507E+03 -0.39671801064E+03  0.11642816268E+04  0.87212700049E+02 0.  0.
          1    1    3    3  502    0 -0.66742375547E+03  0.72177513474E+03 -0.68432362700E+03  0.11977949077E+04  0.00000000000E+00 0. -1.
         -1    1    3    3    0  502 -0.11482386537E+03  0.87653532511E+02 -0.13134870338E+03  0.19524380579E+03  0.00000000000E+00 0.  1.
         11    1    5    5    0    0  0.73703419937E+02 -0.95553216177E+01 -0.14747003947E+03  0.16513906510E+03  0.00000000000E+00 0.  1.
        -11    1    5    5    0    0  0.28472254703E+02  0.53392509440E+02 -0.46180371716E+02  0.76118697335E+02  0.00000000000E+00 0. -1.
          3    1    6    6  503    0  0.45577139317E+03 -0.52805063170E+03 -0.21925324891E+03  0.73118877154E+03  0.00000000000E+00 0. -1.
         -3    1    6    6    0  503  0.22430055303E+03 -0.32521522337E+03 -0.17746476172E+03  0.43309285523E+03  0.00000000000E+00 0.  1.
<mgrwt>
<rscale>  0 0.11774781E+04</rscale>
<asrwt>0</asrwt>
<pdfrwt beam="1">  1        1 0.32343222E+00 0.11774781E+04</pdfrwt>
<pdfrwt beam="2">  1       -1 0.10711826E+00 0.11774781E+04</pdfrwt>
<totfact> 0.20403272E+00</totfact>
</mgrwt>
</event>
<event>
12    1  0.1338445E-007  0.1240580E+04  0.7818608E-02  0.9078060E-01
         -2   -1    0    0    0  501 -0.00000000000E+00  0.00000000000E+00  0.15643315522E+04  0.15643315522E+04  0.00000000000E+00 0.  1.
          2   -1    0    0  501    0  0.00000000000E+00 -0.00000000000E+00 -0.13328486287E+04  0.13328486287E+04  0.00000000000E+00 0. -1.
         23    2    1    2    0    0  0.40159219053E+03 -0.11097914117E+04  0.82821405391E+03  0.14449470004E+04  0.94973942644E+02 0.  0.
    5000000    2    1    2    0    0 -0.40159219053E+03  0.11097914117E+04 -0.59673113041E+03  0.14522331805E+04  0.59998325271E+03 0.  0.
         23    2    4    4    0    0 -0.37702948387E+03  0.31328442427E+03 -0.36272107602E+03  0.61676128605E+03  0.92355523881E+02 0.  0.
         23    2    4    4    0    0 -0.24562706658E+02  0.79650698742E+03 -0.23401005439E+03  0.83547189443E+03  0.90696600010E+02 0.  0.
          1    1    3    3  502    0  0.36335943717E+03 -0.90845172123E+03  0.66606915850E+03  0.11836227162E+04  0.00000000000E+00 0. -1.
         -1    1    3    3    0  502  0.38232753359E+02 -0.20133969047E+03  0.16214489541E+03  0.26132428416E+03  0.00000000000E+00 0.  1.
         13    1    5    5    0    0 -0.21861086985E+03  0.12229561871E+03 -0.19080936207E+03  0.31488909703E+03  0.00000000000E+00 0. -1.
        -13    1    5    5    0    0 -0.15841861402E+03  0.19098880556E+03 -0.17191171395E+03  0.30187218903E+03  0.00000000000E+00 0.  1.
          1    1    6    6  503    0  0.16427693701E+02  0.44063682466E+03 -0.93945015851E+02  0.45083960160E+03  0.00000000000E+00 0. -1.
         -1    1    6    6    0  503 -0.40990400360E+02  0.35587016276E+03 -0.14006503854E+03  0.38463229282E+03  0.00000000000E+00 0.  1.
<mgrwt>
<rscale>  0 0.12405805E+04</rscale>
<asrwt>0</asrwt>
<pdfrwt beam="1">  1        2 0.20505364E+00 0.12405805E+04</pdfrwt>
<pdfrwt beam="2">  1       -2 0.24066639E+00 0.12405805E+04</pdfrwt>
<totfact> 0.11225570E+00</totfact>
</mgrwt>
</event>
<event>
12    1  0.1338445E-007  0.7231186E+03  0.7818608E-02  0.9678493E-01
         -1   -1    0    0    0  501 -0.00000000000E+00  0.00000000000E+00  0.85578048709E+03  0.85578048709E+03  0.00000000000E+00 0.  1.
          1   -1    0    0  501    0  0.00000000000E+00 -0.00000000000E+00 -0.71827664472E+03  0.71827664472E+03  0.00000000000E+00 0. -1.
         23    2    1    2    0    0  0.56035841861E+03  0.32159405049E+03 -0.10138789317E+03  0.66041526745E+03  0.91894123760E+02 0.  0.
    5000000    2    1    2    0    0 -0.56035841861E+03 -0.32159405049E+03  0.23889173555E+03  0.91364186436E+03  0.60020655143E+03 0.  0.
         23    2    4    4    0    0  0.63126518183E+02  0.36719497843E+02  0.13799812827E+03  0.18162668847E+03  0.92798123574E+02 0.  0.
         23    2    4    4    0    0 -0.62348493679E+03 -0.35831354834E+03  0.10089360728E+03  0.73201517589E+03  0.92437180926E+02 0.  0.
          1    1    3    3  502    0  0.33526715331E+03  0.14682583296E+03 -0.79935542911E+02  0.37463526306E+03  0.00000000000E+00 0. -1.
         -1    1    3    3    0  502  0.22509126530E+03  0.17476821754E+03 -0.21452350264E+02  0.28578000439E+03  0.00000000000E+00 0.  1.
         11    1    5    5    0    0  0.70176645764E+01  0.12007649947E+02 -0.12762615924E+02  0.18876324817E+02  0.00000000000E+00 0. -1.
        -11    1    5    5    0    0  0.56108853607E+02  0.24711847896E+02  0.15076074419E+03  0.16275036365E+03  0.00000000000E+00 0.  1.
          4    1    6    6  503    0 -0.14663736842E+03 -0.10245475800E+03 -0.11722661690E+02  0.17926772172E+03  0.00000000000E+00 0. -1.
         -4    1    6    6    0  503 -0.47684756837E+03 -0.25585879033E+03  0.11261626897E+03  0.55274745417E+03  0.00000000000E+00 0.  1.
<mgrwt>
<rscale>  0 0.72311856E+03</rscale>
<asrwt>0</asrwt>
<pdfrwt beam="1">  1        1 0.11050410E+00 0.72311856E+03</pdfrwt>
<pdfrwt beam="2">  1       -1 0.13165854E+00 0.72311856E+03</pdfrwt>
<totfact> 0.13281815E+01</totfact>
</mgrwt>
</event>
<event>
12    1  0.1338445E-007  0.1029247E+04  0.7818608E-02  0.9277036E-01
         -2   -1    0    0    0  501 -0.00000000000E+00  0.00000000000E+00  0.11817426365E+04  0.11817426365E+04  0.00000000000E+00 0.  1.
          2   -1    0    0  501    0  0.00000000000E+00 -0.00000000000E+00 -0.10342021653E+04  0.10342021653E+04  0.00000000000E+00 0. -1.
         23    2    1    2    0    0 -0.70672321175E+03 -0.72537666658E+03  0.19951304860E+03  0.10376751500E+04  0.10646714939E+03 0.  0.
    5000000    2    1    2    0    0  0.70672321175E+03  0.72537666658E+03 -0.51972577468E+02  0.11782696518E+04  0.59999101416E+03 0.  0.
         23    2    4    4    0    0  0.93559763317E+02  0.56750352517E+02  0.18977979225E+03  0.23522041146E+03  0.85663531320E+02 0.  0.
         23    2    4    4    0    0  0.61316344843E+03  0.66862631407E+03 -0.24175236972E+03  0.94304924033E+03  0.88696668893E+02 0.  0.
          3    1    3    3  502    0 -0.14266286157E+03 -0.17180861953E+03  0.32003166600E+01  0.22334085126E+03  0.00000000000E+00 0. -1.
         -3    1    3    3    0  502 -0.56406035018E+03 -0.55356804705E+03  0.19631273194E+03  0.81433429873E+03  0.00000000000E+00 0.  1.
         13    1    5    5    0    0 -0.17306688035E+00  0.41477284361E+02  0.79613942179E+02  0.89770679285E+02  0.00000000000E+00 0. -1.
        -13    1    5    5    0    0  0.93732830198E+02  0.15273068156E+02  0.11016585007E+03  0.14544973218E+03  0.00000000000E+00 0.  1.
          1    1    6    6  503    0  0.39915546635E+03  0.46757464002E+03 -0.19982054674E+03  0.64643590650E+03  0.00000000000E+00 0. -1.
         -1    1    6    6    0  503  0.21400798208E+03  0.20105167405E+03 -0.41931822974E+02  0.29661333383E+03  0.00000000000E+00 0.  1.
<mgrwt>
<rscale>  0 0.10292469E+04</rscale>
<asrwt>0</asrwt>
<pdfrwt beam="1">  1        2 0.15910803E+00 0.10292469E+04</pdfrwt>
<pdfrwt beam="2">  1       -2 0.18180656E+00 0.10292469E+04</pdfrwt>
<totfact> 0.41712874E+00</totfact>
</mgrwt>
</event>
<event>
12    1  0.1338445E-007  0.1091819E+04  0.7818608E-02  0.9213203E-01
          1   -1    0    0  501    0  0.00000000000E+00  0.00000000000E+00  0.19270549487E+04  0.19270549487E+04  0.00000000000E+00 0. -1.
         -1   -1    0    0    0  501 -0.00000000000E+00 -0.00000000000E+00 -0.68308365324E+03  0.68308365324E+03  0.00000000000E+00 0.  1.
         23    2    1    2    0    0  0.10225007781E+04  0.14708848655E+03  0.88370219959E+03  0.13623851710E+04  0.89559547258E+02 0.  0.
    5000000    2    1    2    0    0 -0.10225007781E+04 -0.14708848655E+03  0.36026909587E+03  0.12477534310E+04  0.59995994784E+03 0.  0.
         23    2    4    4    0    0 -0.10094720262E+04 -0.48247334830E+02  0.42302835234E+03  0.10990942489E+04  0.87713191717E+02 0.  0.
         23    2    4    4    0    0 -0.13028751875E+02 -0.98841151719E+02 -0.62759256475E+02  0.14865918210E+03  0.90672523413E+02 0.  0.
          4    1    3    3  502    0  0.70748454506E+03  0.14305157514E+03  0.62173935151E+03  0.95265836262E+03  0.00000000000E+00 0. -1.
         -4    1    3    3    0  502  0.31501623301E+03  0.40369114114E+01  0.26196284808E+03  0.40972680836E+03  0.00000000000E+00 0.  1.
         13    1    5    5    0    0 -0.10809111803E+03  0.19375520169E+02  0.58715072515E+02  0.12452534007E+03  0.00000000000E+00 0. -1.
        -13    1    5    5    0    0 -0.90138090816E+03 -0.67622854999E+02  0.36431327983E+03  0.97456890879E+03  0.00000000000E+00 0.  1.
          3    1    6    6  503    0  0.36388458460E+02 -0.60161511308E+02 -0.44857076349E+02  0.83400747302E+02  0.00000000000E+00 0. -1.
         -3    1    6    6    0  503 -0.49417210335E+02 -0.38679640410E+02 -0.17902180126E+02  0.65258434802E+02  0.00000000000E+00 0.  1.
<mgrwt>
<rscale>  0 0.10918185E+04</rscale>
<asrwt>0</asrwt>
<pdfrwt beam="1">  1        1 0.29646999E+00 0.10918185E+04</pdfrwt>
<pdfrwt beam="2">  1       -1 0.10508979E+00 0.10918185E+04</pdfrwt>
<totfact> 0.28323391E+00</totfact>
</mgrwt>
</event>
<event>
12    1  0.1338445E-007  0.1053562E+04  0.7818608E-02  0.9251674E-01
         -2   -1    0    0    0  501 -0.00000000000E+00  0.00000000000E+00  0.36533264543E+03  0.36533264543E+03  0.00000000000E+00 0. -1.
          2   -1    0    0  501    0  0.00000000000E+00 -0.00000000000E+00 -0.36020896587E+04  0.36020896587E+04  0.00000000000E+00 0.  1.
         23    2    1    2    0    0  0.32155172618E+03  0.93239723357E+03 -0.80760053340E+03  0.12778432792E+04  0.88908440881E+02 0.  0.
    5000000    2    1    2    0    0 -0.32155172618E+03 -0.93239723357E+03 -0.24291564799E+04  0.26895790249E+04  0.60022830150E+03 0.  0.
         23    2    4    4    0    0  0.14525973137E+03 -0.15900602220E+03 -0.69068748982E+03  0.72837074075E+03  0.84210585604E+02 0.  0.
         23    2    4    4    0    0 -0.46681145755E+03 -0.77339121137E+03 -0.17384689901E+04  0.19612082842E+04  0.89535478464E+02 0.  0.
          4    1    3    3  502    0  0.14800772477E+03  0.39206279594E+03 -0.28897109986E+03  0.50904206025E+03  0.00000000000E+00 0. -1.
         -4    1    3    3    0  502  0.17354400141E+03  0.54033443763E+03 -0.51862943354E+03  0.76880121895E+03  0.00000000000E+00 0.  1.
         13    1    5    5    0    0  0.15992157313E+02 -0.84031557638E+01 -0.17301511065E+03  0.17395571458E+03  0.00000000000E+00 0.  1.
        -13    1    5    5    0    0  0.12926757406E+03 -0.15060286644E+03 -0.51767237917E+03  0.55441502617E+03  0.00000000000E+00 0. -1.
          1    1    6    6  503    0 -0.15055419440E+03 -0.28094441767E+03 -0.52960806914E+03  0.61812704048E+03  0.00000000000E+00 0. -1.
         -1    1    6    6    0  503 -0.31625726314E+03 -0.49244679370E+03 -0.12088609209E+04  0.13430812437E+04  0.00000000000E+00 0.  1.
<mgrwt>
<rscale>  0 0.10535619E+04</rscale>
<asrwt>0</asrwt>
<pdfrwt beam="1">  1        2 0.55416764E+00 0.10535619E+04</pdfrwt>
<pdfrwt beam="2">  1       -2 0.56205022E-01 0.10535619E+04</pdfrwt>
<totfact> 0.21082343E+00</totfact>
</mgrwt>
</event>
<event>
12    1  0.1338445E-007  0.1104919E+04  0.7818608E-02  0.9200411E-01
          2   -1    0    0  501    0  0.00000000000E+00  0.00000000000E+00  0.11457015789E+04  0.11457015789E+04  0.00000000000E+00 0. -1.
         -2   -1    0    0    0  501 -0.00000000000E+00 -0.00000000000E+00 -0.11710309374E+04  0.11710309374E+04  0.00000000000E+00 0.  1.
         23    2    1    2    0    0 -0.45563337192E+03 -0.95292875573E+03 -0.22970393774E+03  0.10848406564E+04  0.91871473310E+02 0.  0.
    5000000    2    1    2    0    0  0.45563337192E+03  0.95292875573E+03  0.20437457922E+03  0.12318918600E+04  0.60009466167E+03 0.  0.
         23    2    4    4    0    0  0.49844715363E+03  0.60603569613E+03 -0.47707769449E+02  0.79145117941E+03  0.91597533691E+02 0.  0.
         23    2    4    4    0    0 -0.42813781717E+02  0.34689305960E+03  0.25208234867E+03  0.44044068057E+03  0.90965201516E+02 0.  0.
          1    1    3    3  502    0 -0.38185421142E+03 -0.70799734614E+03 -0.17791104889E+03  0.82384781497E+03  0.00000000000E+00 0. -1.
         -1    1    3    3    0  502 -0.73779160502E+02 -0.24493140959E+03 -0.51792888853E+02  0.26099284140E+03  0.00000000000E+00 0.  1.
         11    1    5    5    0    0  0.27571534804E+03  0.40433410975E+03 -0.36569051057E+02  0.49075688578E+03  0.00000000000E+00 0.  1.
        -11    1    5    5    0    0  0.22273180560E+03  0.20170158638E+03 -0.11138718392E+02  0.30069429363E+03  0.00000000000E+00 0. -1.
          3    1    6    6  503    0 -0.18796308449E+02  0.32963647357E+03  0.21970855855E+03  0.39659217922E+03  0.00000000000E+00 0. -1.
         -3    1    6    6    0  503 -0.24017473268E+02  0.17256586024E+02  0.32373790124E+02  0.43848501347E+02  0.00000000000E+00 0.  1.
<mgrwt>
<rscale>  0 0.11049185E+04</rscale>
<asrwt>0</asrwt>
<pdfrwt beam="1">  1        2 0.17626178E+00 0.11049185E+04</pdfrwt>
<pdfrwt beam="2">  1       -2 0.18015860E+00 0.11049185E+04</pdfrwt>
<totfact> 0.36224390E+00</totfact>
</mgrwt>
</event>
<event>
12    1  0.1338445E-007  0.5461028E+03  0.7818608E-02  0.1002400E+00
          1   -1    0    0  501    0  0.00000000000E+00  0.00000000000E+00  0.25398085696E+04  0.25398085696E+04  0.00000000000E+00 0. -1.
         -1   -1    0    0    0  501 -0.00000000000E+00 -0.00000000000E+00 -0.15841363191E+03  0.15841363191E+03  0.00000000000E+00 0.  1.
         23    2    1    2    0    0 -0.58356307335E+01 -0.41079376649E+03  0.14877098814E+04  0.15460771276E+04  0.91039662218E+02 0.  0.
    5000000    2    1    2    0    0  0.58356307335E+01  0.41079376649E+03  0.89368505623E+03  0.11521450738E+04  0.59998309832E+03 0.  0.
         23    2    4    4    0    0  0.22571277812E+03  0.39022040497E+03  0.43057729468E+03  0.63020893738E+03  0.92456883975E+02 0.  0.
         23    2    4    4    0    0 -0.21987714738E+03  0.20573361519E+02  0.46310776155E+03  0.52193613646E+03  0.95808708339E+02 0.  0.
          1    1    3    3  502    0  0.51386017378E+01 -0.48071730142E+02  0.30935796934E+03  0.31311283854E+03  0.00000000000E+00 0. -1.
         -1    1    3    3    0  502 -0.10974232471E+02 -0.36272203635E+03  0.11783519121E+04  0.12329642891E+04  0.00000000000E+00 0.  1.
         11    1    5    5    0    0  0.77277613222E+02  0.59570440508E+02  0.98393774554E+02  0.13857056599E+03  0.00000000000E+00 0. -1.
        -11    1    5    5    0    0  0.14843516489E+03  0.33064996447E+03  0.33218352013E+03  0.49163837139E+03  0.00000000000E+00 0.  1.
          3    1    6    6  503    0 -0.13271700831E+03  0.16023391215E+02  0.17090544918E+03  0.21697747791E+03  0.00000000000E+00 0. -1.
         -3    1    6    6    0  503 -0.87160139074E+02  0.45499703039E+01  0.29220231237E+03  0.30495865855E+03  0.00000000000E+00 0.  1.
<mgrwt>
<rscale>  0 0.54610280E+03</rscale>
<asrwt>0</asrwt>
<pdfrwt beam="1">  1        1 0.39073975E+00 0.54610280E+03</pdfrwt>
<pdfrwt beam="2">  1       -1 0.24371330E-01 0.54610280E+03</pdfrwt>
<totfact> 0.20201997E+01</totfact>
</mgrwt>
</event>
<event>
12    1  0.1338445E-007  0.6688880E+03  0.7818608E-02  0.9771969E-01
         -2   -1    0    0    0  501 -0.00000000000E+00  0.00000000000E+00  0.45779009494E+03  0.45779009494E+03  0.00000000000E+00 0. -1.
          2   -1    0    0  501    0  0.00000000000E+00 -0.00000000000E+00 -0.14123435794E+04  0.14123435794E+04  0.00000000000E+00 0.  1.
         23    2    1    2    0    0 -0.62217791376E+03 -0.18244155032E+03 -0.14833181576E+03  0.67404251598E+03  0.10927355639E+03 0.  0.
    5000000    2    1    2    0    0  0.62217791376E+03  0.18244155032E+03 -0.80622166865E+03  0.11960911583E+04  0.60020863402E+03 0.  0.
         23    2    4    4    0    0  0.34855987290E+03 -0.11399825082E+02 -0.76618362161E+03  0.84671434627E+03  0.90906001688E+02 0.  0.
         23    2    4    4    0    0  0.27361804085E+03  0.19384137540E+03 -0.40038047041E+02  0.34937681205E+03  0.89553338785E+02 0.  0.
          2    1    3    3  502    0 -0.40342294834E+03 -0.11904201621E+03 -0.14915888965E+03  0.44628404770E+03  0.00000000000E+00 0. -1.
         -2    1    3    3    0  502 -0.21875496541E+03 -0.63399534112E+02  0.82707388966E+00  0.22775846827E+03  0.00000000000E+00 0.  1.
         13    1    5    5    0    0  0.27332552510E+03 -0.33795880130E+02 -0.52161141636E+03  0.58985377329E+03  0.00000000000E+00 0. -1.
        -13    1    5    5    0    0  0.75234347804E+02  0.22396055048E+02 -0.24457220525E+03  0.25686057298E+03  0.00000000000E+00 0.  1.
          3    1    6    6  503    0  0.44258310419E+02  0.26601568703E+02  0.26184452832E+02  0.57897038514E+02  0.00000000000E+00 0. -1.
         -3    1    6    6    0  503  0.22935973043E+03  0.16723980670E+03 -0.66222499873E+02  0.29147977353E+03  0.00000000000E+00 0.  1.
<mgrwt>
<rscale>  0 0.66888796E+03</rscale>
<asrwt>0</asrwt>
<pdfrwt beam="1">  1        2 0.21728362E+00 0.66888796E+03</pdfrwt>
<pdfrwt beam="2">  1       -2 0.70429248E-01 0.66888796E+03</pdfrwt>
<totfact> 0.26952200E+01</totfact>
</mgrwt>
</event>
<event>
12    1  0.1338445E-007  0.3992400E+03  0.7818608E-02  0.1044043E+00
         -2   -1    0    0    0  501 -0.00000000000E+00  0.00000000000E+00  0.17969885591E+03  0.17969885591E+03  0.00000000000E+00 0.  1.
          2   -1    0    0  501    0  0.00000000000E+00 -0.00000000000E+00 -0.17649604422E+04  0.17649604422E+04  0.00000000000E+00 0. -1.
         23    2    1    2    0    0 -0.30281635704E+03  0.23834759686E+03 -0.73410509238E+03  0.83424819168E+03  0.92479379511E+02 0.  0.
    5000000    2    1    2    0    0  0.30281635704E+03 -0.23834759686E+03 -0.85115649390E+03  0.11104111064E+04  0.60003177012E+03 0.  0.
         23    2    4    4    0    0  0.21545691796E+03 -0.17416481407E+03 -0.48659862343E+02  0.29535254650E+03  0.90057085017E+02 0.  0.
         23    2    4    4    0    0  0.87359439085E+02 -0.64182782793E+02 -0.80249663155E+03  0.81505855993E+03  0.92566253348E+02 0.  0.
          1    1    3    3  502    0 -0.37645186997E+02  0.39982191067E+02 -0.50275232909E+02  0.74453574465E+02  0.00000000000E+00 0. -1.
         -1    1    3    3    0  502 -0.26517117005E+03  0.19836540579E+03 -0.68382985947E+03  0.75979461721E+03  0.00000000000E+00 0.  1.
         13    1    5    5    0    0  0.99292394391E+02 -0.34369133384E+02  0.68743894202E+01  0.10529707566E+03  0.00000000000E+00 0. -1.
        -13    1    5    5    0    0  0.11616452357E+03 -0.13979568069E+03 -0.55534251764E+02  0.19005547083E+03  0.00000000000E+00 0.  1.
          2    1    6    6  503    0  0.97563666321E+02 -0.60064186269E+02 -0.52554446602E+03  0.53788787049E+03  0.00000000000E+00 0.  1.
         -2    1    6    6    0  503 -0.10204227235E+02 -0.41185965234E+01 -0.27695216553E+03  0.27717068944E+03  0.00000000000E+00 0. -1.
<mgrwt>
<rscale>  0 0.39923997E+03</rscale>
<asrwt>0</asrwt>
<pdfrwt beam="1">  1        2 0.27153236E+00 0.39923997E+03</pdfrwt>
<pdfrwt beam="2">  1       -2 0.27645979E-01 0.39923997E+03</pdfrwt>
<totfact> 0.11508401E+02</totfact>
</mgrwt>
</event>
<event>
12    1  0.1338445E-007  0.1588510E+04  0.7818608E-02  0.8827638E-01
          2   -1    0    0  501    0  0.00000000000E+00  0.00000000000E+00  0.22435203516E+04  0.22435203516E+04  0.00000000000E+00 0. -1.
         -2   -1    0    0    0  501 -0.00000000000E+00 -0.00000000000E+00 -0.11513269895E+04  0.11513269895E+04  0.00000000000E+00 0.  1.
         23    2    1    2    0    0  0.11859002658E+04  0.98501491502E+03  0.69806024024E+03  0.16942736985E+04  0.81617663933E+02 0.  0.
    5000000    2    1    2    0    0 -0.11859002658E+04 -0.98501491502E+03  0.39413312188E+03  0.17005736427E+04  0.59999664419E+03 0.  0.
         23    2    4    4    0    0  0.19131883950E+02 -0.17950151871E+03  0.63932346782E+02  0.21122299240E+03  0.89112195302E+02 0.  0.
         23    2    4    4    0    0 -0.12050321498E+04 -0.80551339631E+03  0.33020077510E+03  0.14893506503E+04  0.90435025902E+02 0.  0.
          3    1    3    3  502    0  0.48567840248E+03  0.44423672634E+03  0.32567104986E+03  0.73436463176E+03  0.00000000000E+00 0. -1.
         -3    1    3    3    0  502  0.70022186336E+03  0.54077818867E+03  0.37238919038E+03  0.95990906672E+03  0.00000000000E+00 0.  1.
         13    1    5    5    0    0  0.12015820754E+02 -0.16301881049E+02  0.41706269920E+02  0.46363177466E+02  0.00000000000E+00 0.  1.
        -13    1    5    5    0    0  0.71160631967E+01 -0.16319963766E+03  0.22226076862E+02  0.16485981494E+03  0.00000000000E+00 0. -1.
          4    1    6    6  503    0 -0.44217415893E+03 -0.32718125885E+03  0.16135967161E+03  0.57323861226E+03  0.00000000000E+00 0.  1.
         -4    1    6    6    0  503 -0.76285799086E+03 -0.47833213746E+03  0.16884110350E+03  0.91611203800E+03  0.00000000000E+00 0. -1.
<mgrwt>
<rscale>  0 0.15885096E+04</rscale>
<asrwt>0</asrwt>
<pdfrwt beam="1">  1        2 0.34515698E+00 0.15885096E+04</pdfrwt>
<pdfrwt beam="2">  1       -2 0.17712723E+00 0.15885096E+04</pdfrwt>
<totfact> 0.86446356E-01</totfact>
</mgrwt>
</event>
<event>
12    1  0.1338445E-007  0.3778993E+03  0.7818608E-02  0.1051713E+00
         -1   -1    0    0    0  501 -0.00000000000E+00  0.00000000000E+00  0.22428991818E+03  0.22428991818E+03  0.00000000000E+00 0.  1.
          1   -1    0    0  501    0  0.00000000000E+00 -0.00000000000E+00 -0.25440967512E+04  0.25440967512E+04  0.00000000000E+00 0. -1.
         23    2    1    2    0    0 -0.21826193848E+03 -0.79856707620E+02  0.95735881115E+02  0.26862005886E+03  0.94741804648E+02 0.  0.
    5000000    2    1    2    0    0  0.21826193848E+03  0.79856707620E+02 -0.24155427141E+04  0.24997666105E+04  0.59997594601E+03 0.  0.
         23    2    4    4    0    0  0.34700244377E+03  0.54531592835E+02 -0.82207745205E+03  0.89833985957E+03  0.88423840237E+02 0.  0.
         23    2    4    4    0    0 -0.12874050530E+03  0.25325114785E+02 -0.15934652621E+04  0.16014267510E+04  0.90667624241E+02 0.  0.
          4    1    3    3  502    0 -0.55697630017E+02 -0.42574425692E+02  0.71409631902E+02  0.10007069122E+03  0.00000000000E+00 0. -1.
         -4    1    3    3    0  502 -0.16256430846E+03 -0.37282281927E+02  0.24326249213E+02  0.16854936764E+03  0.00000000000E+00 0.  1.
         13    1    5    5    0    0  0.10516329842E+03  0.55670561622E+02 -0.23520317815E+03  0.26358881953E+03  0.00000000000E+00 0.  1.
        -13    1    5    5    0    0  0.24183914535E+03 -0.11389687872E+01 -0.58687427390E+03  0.63475104005E+03  0.00000000000E+00 0. -1.
          3    1    6    6  503    0 -0.11361997928E+03 -0.15378026362E+02 -0.10543918976E+04  0.10606074944E+04  0.00000000000E+00 0. -1.
         -3    1    6    6    0  503 -0.15120526018E+02  0.40703141147E+02 -0.53907336445E+03  0.54081925656E+03  0.00000000000E+00 0.  1.
<mgrwt>
<rscale>  0 0.37789933E+03</rscale>
<asrwt>0</asrwt>
<pdfrwt beam="1">  1        1 0.39139950E+00 0.37789933E+03</pdfrwt>
<pdfrwt beam="2">  1       -1 0.34506141E-01 0.37789933E+03</pdfrwt>
<totfact> 0.11529756E+01</totfact>
</mgrwt>
</event>
<event>
12    1  0.1338445E-007  0.3565209E+03  0.7818608E-02  0.1059970E+00
         -1   -1    0    0    0  501 -0.00000000000E+00  0.00000000000E+00  0.11577833707E+03  0.11577833707E+03  0.00000000000E+00 0.  1.
          1   -1    0    0  501    0  0.00000000000E+00 -0.00000000000E+00 -0.16043722933E+04  0.16043722933E+04  0.00000000000E+00 0. -1.
         23    2    1    2    0    0  0.15026275855E+03 -0.91885017606E+02 -0.60319147069E+03  0.63617902305E+03  0.99307834477E+02 0.  0.
    5000000    2    1    2    0    0 -0.15026275855E+03  0.91885017606E+02 -0.88540248558E+03  0.10839716074E+04  0.60002927512E+03 0.  0.
         23    2    4    4    0    0 -0.31347521583E+03  0.68785418464E+02 -0.23560507423E+03  0.40752433285E+03  0.86995322449E+02 0.  0.
         23    2    4    4    0    0  0.16321245728E+03  0.23099599142E+02 -0.64979741135E+03  0.67644727451E+03  0.90401004947E+02 0.  0.
          1    1    3    3  502    0  0.22388546435E+02 -0.65554642782E+02 -0.16499723306E+03  0.17894900145E+03  0.00000000000E+00 0. -1.
         -1    1    3    3    0  502  0.12787421211E+03 -0.26330374824E+02 -0.43819423763E+03  0.45723002160E+03  0.00000000000E+00 0.  1.
         13    1    5    5    0    0 -0.28761816753E+03  0.86846803217E+02 -0.20614757999E+03  0.36436712565E+03  0.00000000000E+00 0.  1.
        -13    1    5    5    0    0 -0.25857048303E+02 -0.18061384753E+02 -0.29457494235E+02  0.43157207194E+02  0.00000000000E+00 0. -1.
          1    1    6    6  503    0  0.90698467043E+02 -0.25159570160E+02 -0.42649253970E+03  0.43675519723E+03  0.00000000000E+00 0. -1.
         -1    1    6    6    0  503  0.72513990235E+02  0.48259169302E+02 -0.22330487165E+03  0.23969207727E+03  0.00000000000E+00 0.  1.
<mgrwt>
<rscale>  0 0.35652088E+03</rscale>
<asrwt>0</asrwt>
<pdfrwt beam="1">  1        1 0.24682652E+00 0.35652088E+03</pdfrwt>
<pdfrwt beam="2">  1       -1 0.17812051E-01 0.35652088E+03</pdfrwt>
<totfact> 0.14723772E+02</totfact>
</mgrwt>
</event>
<event>
12    1  0.1338445E-007  0.6062199E+03  0.7818608E-02  0.9892585E-01
         -2   -1    0    0    0  501 -0.00000000000E+00  0.00000000000E+00  0.14526298586E+03  0.14526298586E+03  0.00000000000E+00 0.  1.
          2   -1    0    0  501    0  0.00000000000E+00 -0.00000000000E+00 -0.30371291657E+04  0.30371291657E+04  0.00000000000E+00 0. -1.
         23    2    1    2    0    0 -0.38636921525E+03  0.34913362460E+03 -0.12840167473E+04  0.13889795860E+04  0.96901107408E+02 0.  0.
    5000000    2    1    2    0    0  0.38636921525E+03 -0.34913362460E+03 -0.16078494326E+04  0.17934125656E+04  0.59997781153E+03 0.  0.
         23    2    4    4    0    0 -0.31968010034E+02 -0.25361634934E+03 -0.25714474396E+03  0.37341966029E+03  0.89306310123E+02 0.  0.
         23    2    4    4    0    0  0.41833722529E+03 -0.95517275258E+02 -0.13507046886E+04  0.14199929053E+04  0.88583922692E+02 0.  0.
          1    1    3    3  502    0 -0.26968514450E+03  0.26064461250E+03 -0.10245375880E+04  0.10910283958E+04  0.00000000000E+00 0. -1.
         -1    1    3    3    0  502 -0.11668407076E+03  0.88489012103E+02 -0.25947915932E+03  0.29795119022E+03  0.00000000000E+00 0.  1.
         11    1    5    5    0    0 -0.10953298020E+02 -0.21281110678E+03 -0.24735991934E+03  0.32648961944E+03  0.00000000000E+00 0. -1.
        -11    1    5    5    0    0 -0.21014712014E+02 -0.40805242560E+02 -0.97848246191E+01  0.46930040851E+02  0.00000000000E+00 0.  1.
          4    1    6    6  503    0  0.11770402729E+03 -0.50034454541E+02 -0.29869631833E+03  0.32492641516E+03  0.00000000000E+00 0. -1.
         -4    1    6    6    0  503  0.30063319800E+03 -0.45482820717E+02 -0.10520083703E+04  0.10950664901E+04  0.00000000000E+00 0.  1.
<mgrwt>
<rscale>  0 0.60621995E+03</rscale>
<asrwt>0</asrwt>
<pdfrwt beam="1">  1        2 0.46725061E+00 0.60621995E+03</pdfrwt>
<pdfrwt beam="2">  1       -2 0.22348153E-01 0.60621995E+03</pdfrwt>
<totfact> 0.31398070E+01</totfact>
</mgrwt>
</event>
<event>
12    1  0.1338445E-007  0.7813850E+03  0.7818608E-02  0.9587359E-01
         -2   -1    0    0    0  501 -0.00000000000E+00  0.00000000000E+00  0.29636879097E+03  0.29636879097E+03  0.00000000000E+00 0.  1.
          2   -1    0    0  501    0  0.00000000000E+00 -0.00000000000E+00 -0.21396420845E+04  0.21396420845E+04  0.00000000000E+00 0. -1.
         23    2    1    2    0    0 -0.35783975780E+03 -0.56480086886E+03 -0.60599254526E+03  0.90699670186E+03  0.91469877825E+02 0.  0.
    5000000    2    1    2    0    0  0.35783975780E+03  0.56480086886E+03 -0.12372807483E+04  0.15290141736E+04  0.59997614898E+03 0.  0.
         23    2    4    4    0    0 -0.15215667166E+03  0.11956872038E+03 -0.34919295298E+03  0.40828598914E+03  0.85518412592E+02 0.  0.
         23    2    4    4    0    0  0.50999642946E+03  0.44523214848E+03 -0.88808779528E+03  0.11207281845E+04  0.94887866653E+02 0.  0.
          3    1    3    3  502    0 -0.16713633606E+03 -0.20900943697E+03 -0.19672973428E+03  0.33214768993E+03  0.00000000000E+00 0. -1.
         -3    1    3    3    0  502 -0.19070342174E+03 -0.35579143189E+03 -0.40926281098E+03  0.57484901193E+03  0.00000000000E+00 0.  1.
         11    1    5    5    0    0 -0.16087565629E+03  0.10810168152E+03 -0.30116538052E+03  0.35814457522E+03  0.00000000000E+00 0.  1.
        -11    1    5    5    0    0  0.87189846355E+01  0.11467038860E+02 -0.48027572467E+02  0.50141413924E+02  0.00000000000E+00 0. -1.
          1    1    6    6  503    0  0.10228904897E+03  0.14261306890E+03 -0.24444981991E+03  0.30092731916E+03  0.00000000000E+00 0. -1.
         -1    1    6    6    0  503  0.40770738049E+03  0.30261907959E+03 -0.64363797537E+03  0.81980086531E+03  0.00000000000E+00 0.  1.
<mgrwt>
<rscale>  0 0.78138504E+03</rscale>
<asrwt>0</asrwt>
<pdfrwt beam="1">  1        2 0.32917571E+00 0.78138504E+03</pdfrwt>
<pdfrwt beam="2">  1       -2 0.45595199E-01 0.78138504E+03</pdfrwt>
<totfact> 0.26273801E+01</totfact>
</mgrwt>
</event>
<event>
12    1  0.1338445E-007  0.9661922E+03  0.7818608E-02  0.9346422E-01
         -2   -1    0    0    0  501 -0.00000000000E+00  0.00000000000E+00  0.14831911946E+04  0.14831911946E+04  0.00000000000E+00 0.  1.
          2   -1    0    0  501    0  0.00000000000E+00 -0.00000000000E+00 -0.75590547424E+03  0.75590547424E+03  0.00000000000E+00 0. -1.
         23    2    1    2    0    0 -0.72034163870E+03 -0.62741204561E+03  0.52146073745E+03  0.10923219375E+04  0.93316467548E+02 0.  0.
    5000000    2    1    2    0    0  0.72034163870E+03  0.62741204561E+03  0.20582498290E+03  0.11467747313E+04  0.60015865345E+03 0.  0.
         23    2    4    4    0    0  0.16492160645E+03  0.10416697655E+03 -0.18626447552E+03  0.28382858690E+03  0.88398623426E+02 0.  0.
         23    2    4    4    0    0  0.55542003225E+03  0.52324506905E+03  0.39208945842E+03  0.86294614439E+03  0.93086466219E+02 0.  0.
          2    1    3    3  502    0 -0.84831668455E+01 -0.92169108596E+01 -0.37608201236E+01  0.13078965308E+02  0.00000000000E+00 0. -1.
         -2    1    3    3    0  502 -0.71185847186E+03 -0.61819513475E+03  0.52522155758E+03  0.10792429722E+04  0.00000000000E+00 0.  1.
         11    1    5    5    0    0  0.14757078186E+03  0.56431269757E+02 -0.11122774186E+03  0.19321810067E+03  0.00000000000E+00 0. -1.
        -11    1    5    5    0    0  0.17350824585E+02  0.47735706797E+02 -0.75036733658E+02  0.90610486233E+02  0.00000000000E+00 0.  1.
          1    1    6    6  503    0  0.17485024273E+03  0.11052259022E+03  0.11909933877E+03  0.23868913429E+03  0.00000000000E+00 0. -1.
         -1    1    6    6    0  503  0.38056978952E+03  0.41272247883E+03  0.27299011965E+03  0.62425701010E+03  0.00000000000E+00 0.  1.
<mgrwt>
<rscale>  0 0.96619223E+03</rscale>
<asrwt>0</asrwt>
<pdfrwt beam="1">  1        2 0.11629315E+00 0.96619223E+03</pdfrwt>
<pdfrwt beam="2">  1       -2 0.22818326E+00 0.96619223E+03</pdfrwt>
<totfact> 0.32547538E+00</totfact>
</mgrwt>
</event>
<event>
12    1  0.1338445E-007  0.1582306E+04  0.7818608E-02  0.8831492E-01
          2   -1    0    0  501    0  0.00000000000E+00  0.00000000000E+00  0.44571359237E+04  0.44571359237E+04  0.00000000000E+00 0. -1.
         -2   -1    0    0    0  501 -0.00000000000E+00 -0.00000000000E+00 -0.81946968854E+03  0.81946968854E+03  0.00000000000E+00 0.  1.
         23    2    1    2    0    0 -0.14087766393E+04  0.64760174361E+03  0.34928478744E+03  0.15918392193E+04  0.88952793788E+02 0.  0.
    5000000    2    1    2    0    0  0.14087766393E+04 -0.64760174361E+03  0.32883814478E+04  0.36847663930E+04  0.60000932243E+03 0.  0.
         23    2    4    4    0    0  0.13370203286E+04 -0.66410115979E+03  0.32147927444E+04  0.35457230797E+04  0.92768848443E+02 0.  0.
         23    2    4    4    0    0  0.71756310700E+02  0.16499416188E+02  0.73588703399E+02  0.13904331326E+03  0.92176715251E+02 0.  0.
          4    1    3    3  502    0 -0.20283823591E+03  0.12764412067E+03  0.46470095969E+02  0.24412259483E+03  0.00000000000E+00 0. -1.
         -4    1    3    3    0  502 -0.12059384034E+04  0.51995762293E+03  0.30281469147E+03  0.13477166245E+04  0.00000000000E+00 0.  1.
         13    1    5    5    0    0  0.77124513179E+03 -0.41954879222E+03  0.18126063238E+04  0.20140461582E+04  0.00000000000E+00 0. -1.
        -13    1    5    5    0    0  0.56577519684E+03 -0.24455236758E+03  0.14021864205E+04  0.15316769215E+04  0.00000000000E+00 0.  1.
          4    1    6    6  503    0 -0.29989623188E+01 -0.29453237576E+02  0.12569707097E+02  0.32163403352E+02  0.00000000000E+00 0. -1.
         -4    1    6    6    0  503  0.74755273019E+02  0.45952653764E+02  0.61018996303E+02  0.10687990991E+03  0.00000000000E+00 0.  1.
<mgrwt>
<rscale>  0 0.15823061E+04</rscale>
<asrwt>0</asrwt>
<pdfrwt beam="1">  1        2 0.68571321E+00 0.15823061E+04</pdfrwt>
<pdfrwt beam="2">  1       -2 0.12607226E+00 0.15823061E+04</pdfrwt>
<totfact> 0.61195788E-02</totfact>
</mgrwt>
</event>
<event>
12    1  0.1338445E-007  0.6397821E+03  0.7818608E-02  0.9826143E-01
         -2   -1    0    0    0  501 -0.00000000000E+00  0.00000000000E+00  0.24706010994E+03  0.24706010994E+03  0.00000000000E+00 0. -1.
          2   -1    0    0  501    0  0.00000000000E+00 -0.00000000000E+00 -0.22563781201E+04  0.22563781201E+04  0.00000000000E+00 0.  1.
         23    2    1    2    0    0  0.45584656905E+03 -0.24811994458E+03 -0.26934700171E+03  0.59116127196E+03  0.86972643488E+02 0.  0.
    5000000    2    1    2    0    0 -0.45584656905E+03  0.24811994458E+03 -0.17399710084E+04  0.19122769581E+04  0.59995370885E+03 0.  0.
         23    2    4    4    0    0 -0.14738336396E+02  0.29007473920E+03 -0.43020248408E+03  0.52665984367E+03  0.89083335973E+02 0.  0.
         23    2    4    4    0    0 -0.44110823266E+03 -0.41954794613E+02 -0.13097685244E+04  0.13856171144E+04  0.90025122161E+02 0.  0.
          3    1    3    3  502    0  0.76844473848E+02 -0.78715503095E+02 -0.41247162178E+02  0.11748417756E+03  0.00000000000E+00 0. -1.
         -3    1    3    3    0  502  0.37900209521E+03 -0.16940444149E+03 -0.22809983953E+03  0.47367709440E+03  0.00000000000E+00 0.  1.
         11    1    5    5    0    0 -0.47414055695E+02  0.10198118306E+03 -0.14613658758E+03  0.18440215998E+03  0.00000000000E+00 0. -1.
        -11    1    5    5    0    0  0.32675719298E+02  0.18809355614E+03 -0.28406589650E+03  0.34225768369E+03  0.00000000000E+00 0.  1.
          4    1    6    6  503    0 -0.18308690839E+03  0.24194953779E+02 -0.58451690021E+03  0.61299773119E+03  0.00000000000E+00 0. -1.
         -4    1    6    6    0  503 -0.25802132427E+03 -0.66149748392E+02 -0.72525162415E+03  0.77261938322E+03  0.00000000000E+00 0.  1.
<mgrwt>
<rscale>  0 0.63978213E+03</rscale>
<asrwt>0</asrwt>
<pdfrwt beam="1">  1        2 0.34713510E+00 0.63978213E+03</pdfrwt>
<pdfrwt beam="2">  1       -2 0.38009247E-01 0.63978213E+03</pdfrwt>
<totfact> 0.33064532E+01</totfact>
</mgrwt>
</event>
<event>
12    1  0.1346176E-007  0.1434115E+04  0.7818608E-02  0.8929488E-01
         -1   -1    0    0    0  501 -0.00000000000E+00  0.00000000000E+00  0.14575488847E+04  0.14575488847E+04  0.00000000000E+00 0.  1.
          1   -1    0    0  501    0  0.00000000000E+00 -0.00000000000E+00 -0.17531246071E+04  0.17531246071E+04  0.00000000000E+00 0. -1.
         23    2    1    2    0    0  0.11231860120E+04 -0.80882899406E+03  0.53712780379E+03  0.14873879008E+04  0.89807185720E+02 0.  0.
    5000000    2    1    2    0    0 -0.11231860120E+04  0.80882899406E+03 -0.83270352623E+03  0.17232855910E+04  0.60047223610E+03 0.  0.
         23    2    4    4    0    0 -0.10665621183E+04  0.85658729441E+03 -0.83692659604E+03  0.16062292651E+04  0.90718133940E+02 0.  0.
         23    2    4    4    0    0 -0.56623893717E+02 -0.47758300346E+02  0.42230698041E+01  0.11705632589E+03  0.90538547147E+02 0.  0.
          4    1    3    3  502    0  0.54189841133E+03 -0.39114605024E+03  0.21127325287E+03  0.70091761869E+03  0.00000000000E+00 0. -1.
         -4    1    3    3    0  502  0.58128760070E+03 -0.41768294382E+03  0.32585455093E+03  0.78647028211E+03  0.00000000000E+00 0.  1.
         11    1    5    5    0    0 -0.72463236512E+03  0.56324805552E+03 -0.51387617149E+03  0.10518598558E+04  0.00000000000E+00 0. -1.
        -11    1    5    5    0    0 -0.34192975319E+03  0.29333923888E+03 -0.32305042455E+03  0.55436940932E+03  0.00000000000E+00 0.  1.
          1    1    6    6  503    0  0.24419145314E+02 -0.12568226159E+02 -0.60061609182E+01  0.28112789538E+02  0.00000000000E+00 0. -1.
         -1    1    6    6    0  503 -0.81043039031E+02 -0.35190074188E+02  0.10229230722E+02  0.88943536347E+02  0.00000000000E+00 0.  1.
<mgrwt>
<rscale>  0 0.14341153E+04</rscale>
<asrwt>0</asrwt>
<pdfrwt beam="1">  1        1 0.26971148E+00 0.14341153E+04</pdfrwt>
<pdfrwt beam="2">  1       -1 0.22423829E+00 0.14341153E+04</pdfrwt>
<totfact> 0.43038377E-01</totfact>
</mgrwt>
</event>
<event>
12    1  0.1338445E-007  0.2153530E+04  0.7818608E-02  0.8538023E-01
         -2   -1    0    0    0  501 -0.00000000000E+00  0.00000000000E+00  0.15056654783E+04  0.15056654783E+04  0.00000000000E+00 0.  1.
          2   -1    0    0  501    0  0.00000000000E+00 -0.00000000000E+00 -0.32031488977E+04  0.32031488977E+04  0.00000000000E+00 0. -1.
         23    2    1    2    0    0  0.21159756072E+04  0.36807789540E+03 -0.10105868737E+04  0.23754365427E+04  0.92621981123E+02 0.  0.
    5000000    2    1    2    0    0 -0.21159756072E+04 -0.36807789540E+03 -0.68689654572E+03  0.23333778333E+04  0.59999261733E+03 0.  0.
         23    2    4    4    0    0 -0.27558311687E+03 -0.47233424146E+02  0.90389315751E+02  0.30788405667E+03  0.91898385689E+02 0.  0.
         23    2    4    4    0    0 -0.18403924904E+04 -0.32084447126E+03 -0.77728586147E+03  0.20254937766E+04  0.92011060853E+02 0.  0.
          3    1    3    3  502    0  0.11762007702E+04  0.16106280775E+03 -0.57667172649E+03  0.13198256552E+04  0.00000000000E+00 0. -1.
         -3    1    3    3    0  502  0.93977483702E+03  0.20701508766E+03 -0.43391514722E+03  0.10556108875E+04  0.00000000000E+00 0.  1.
         11    1    5    5    0    0 -0.21345849138E+03 -0.64087196534E+02  0.97218795373E+02  0.24315260738E+03  0.00000000000E+00 0. -1.
        -11    1    5    5    0    0 -0.62124625490E+02  0.16853772387E+02 -0.68294796212E+01  0.64731449295E+02  0.00000000000E+00 0.  1.
          3    1    6    6  503    0 -0.75473880531E+03 -0.17677857346E+03 -0.31299571829E+03  0.83597108081E+03  0.00000000000E+00 0. -1.
         -3    1    6    6    0  503 -0.10856536851E+04 -0.14406589780E+03 -0.46429014318E+03  0.11895226958E+04  0.00000000000E+00 0.  1.
<mgrwt>
<rscale>  0 0.21535302E+04</rscale>
<asrwt>0</asrwt>
<pdfrwt beam="1">  1        2 0.49279213E+00 0.21535302E+04</pdfrwt>
<pdfrwt beam="2">  1       -2 0.23164085E+00 0.21535302E+04</pdfrwt>
<totfact> 0.94481103E-02</totfact>
</mgrwt>
</event>
<event>
12    1  0.1338445E-007  0.3433736E+03  0.7818608E-02  0.1065368E+00
          1   -1    0    0  501    0  0.00000000000E+00  0.00000000000E+00  0.39956971037E+03  0.39956971037E+03  0.00000000000E+00 0. -1.
         -1   -1    0    0    0  501 -0.00000000000E+00 -0.00000000000E+00 -0.86633978051E+03  0.86633978051E+03  0.00000000000E+00 0.  1.
         23    2    1    2    0    0  0.10281437883E+03 -0.32279193229E+03  0.11119698113E+03  0.36664786435E+03  0.85442728036E+02 0.  0.
    5000000    2    1    2    0    0 -0.10281437883E+03  0.32279193229E+03 -0.57796705127E+03  0.89926162653E+03  0.59988343247E+03 0.  0.
         23    2    4    4    0    0 -0.72852325724E+02  0.24989795089E+03 -0.68361625736E+03  0.73707425099E+03  0.90503132054E+02 0.  0.
         23    2    4    4    0    0 -0.29962053103E+02  0.72893981397E+02  0.10564920609E+03  0.16218737554E+03  0.94507845636E+02 0.  0.
          4    1    3    3  502    0  0.23438485396E+02 -0.19966829388E+03  0.82831603959E+02  0.21743473686E+03  0.00000000000E+00 0. -1.
         -4    1    3    3    0  502  0.79375893431E+02 -0.12312363841E+03  0.28365377172E+02  0.14921312749E+03  0.00000000000E+00 0.  1.
         13    1    5    5    0    0 -0.55158364816E+02  0.17742465101E+03 -0.36175090875E+03  0.40667637253E+03  0.00000000000E+00 0. -1.
        -13    1    5    5    0    0 -0.17693960907E+02  0.72473299884E+02 -0.32186534861E+03  0.33039787845E+03  0.00000000000E+00 0.  1.
          3    1    6    6  503    0 -0.22413674861E+02  0.53998012825E+02  0.40878845351E+01  0.58607755543E+02  0.00000000000E+00 0. -1.
         -3    1    6    6    0  503 -0.75483782416E+01  0.18895968572E+02  0.10156132156E+03  0.10357962000E+03  0.00000000000E+00 0.  1.
<mgrwt>
<rscale>  0 0.34337359E+03</rscale>
<asrwt>0</asrwt>
<pdfrwt beam="1">  1        1 0.61472263E-01 0.34337359E+03</pdfrwt>
<pdfrwt beam="2">  1       -1 0.13328304E+00 0.34337359E+03</pdfrwt>
<totfact> 0.30943895E+01</totfact>
</mgrwt>
</event>
<event>
12    1  0.1338445E-007  0.6653310E+03  0.7818608E-02  0.9778429E-01
          2   -1    0    0  501    0  0.00000000000E+00  0.00000000000E+00  0.18693227440E+04  0.18693227440E+04  0.00000000000E+00 0. -1.
         -2   -1    0    0    0  501 -0.00000000000E+00 -0.00000000000E+00 -0.28037931746E+03  0.28037931746E+03  0.00000000000E+00 0.  1.
         23    2    1    2    0    0  0.36015273539E+03 -0.47119116137E+03  0.74382517587E+03  0.95558087738E+03  0.90154409667E+02 0.  0.
    5000000    2    1    2    0    0 -0.36015273539E+03  0.47119116137E+03  0.84511825067E+03  0.11941211841E+04  0.59997453389E+03 0.  0.
         23    2    4    4    0    0  0.83486814252E+02  0.13346597453E+03  0.50130690884E+03  0.53273066613E+03  0.87807353183E+02 0.  0.
         23    2    4    4    0    0 -0.44363954964E+03  0.33772518683E+03  0.34381134183E+03  0.66139051796E+03  0.91415680542E+02 0.  0.
          4    1    3    3  502    0  0.17491979493E+03 -0.24257030406E+03  0.44543271124E+03  0.53651429367E+03  0.00000000000E+00 0. -1.
         -4    1    3    3    0  502  0.18523294046E+03 -0.22862085731E+03  0.29839246463E+03  0.41906658370E+03  0.00000000000E+00 0.  1.
         11    1    5    5    0    0  0.41724069503E+02  0.12549215317E+03  0.31501258841E+03  0.34164617566E+03  0.00000000000E+00 0. -1.
        -11    1    5    5    0    0  0.41762744748E+02  0.79738213668E+01  0.18629432043E+03  0.19108449047E+03  0.00000000000E+00 0.  1.
          4    1    6    6  503    0 -0.11058695339E+02  0.29309136328E+02  0.34660853103E+02  0.46719320979E+02  0.00000000000E+00 0. -1.
         -4    1    6    6    0  503 -0.43258085430E+03  0.30841605051E+03  0.30915048873E+03  0.61467119698E+03  0.00000000000E+00 0.  1.
<mgrwt>
<rscale>  0 0.66533104E+03</rscale>
<asrwt>0</asrwt>
<pdfrwt beam="1">  1        2 0.28758811E+00 0.66533104E+03</pdfrwt>
<pdfrwt beam="2">  1       -2 0.43135281E-01 0.66533104E+03</pdfrwt>
<totfact> 0.41840800E+01</totfact>
</mgrwt>
</event>
<event>
12    1  0.1338445E-007  0.8952549E+03  0.7818608E-02  0.9431533E-01
         -1   -1    0    0    0  501 -0.00000000000E+00  0.00000000000E+00  0.15506804460E+04  0.15506804460E+04  0.00000000000E+00 0.  1.
          1   -1    0    0  501    0  0.00000000000E+00 -0.00000000000E+00 -0.58242755836E+03  0.58242755836E+03  0.00000000000E+00 0. -1.
         23    2    1    2    0    0  0.78838849756E+03  0.26628762523E+03  0.22692222459E+03  0.86733879738E+03  0.91199621617E+02 0.  0.
    5000000    2    1    2    0    0 -0.78838849756E+03 -0.26628762523E+03  0.74133066301E+03  0.12657692069E+04  0.60011249853E+03 0.  0.
         23    2    4    4    0    0 -0.49502682372E+03  0.77281366768E+02  0.59242524337E+03  0.78110266307E+03  0.90165045429E+02 0.  0.
         23    2    4    4    0    0 -0.29336167384E+03 -0.34356899200E+03  0.14890541963E+03  0.48466654387E+03  0.92887624625E+02 0.  0.
          3    1    3    3  502    0  0.34282512815E+03  0.12453894434E+03  0.14570007493E+03  0.39276905299E+03  0.00000000000E+00 0. -1.
         -3    1    3    3    0  502  0.44556336940E+03  0.14174868089E+03  0.81222149657E+02  0.47456974438E+03  0.00000000000E+00 0.  1.
         13    1    5    5    0    0 -0.21049208141E+03  0.64797163180E+02  0.21033176295E+03  0.30454070204E+03  0.00000000000E+00 0.  1.
        -13    1    5    5    0    0 -0.28453474231E+03  0.12484203588E+02  0.38209348042E+03  0.47656196103E+03  0.00000000000E+00 0. -1.
          4    1    6    6  503    0 -0.25997336261E+02 -0.48053620803E+02  0.50004813297E+02  0.74064116263E+02  0.00000000000E+00 0. -1.
         -4    1    6    6    0  503 -0.26736433758E+03 -0.29551537120E+03  0.98900606334E+02  0.41060242761E+03  0.00000000000E+00 0.  1.
<mgrwt>
<rscale>  0 0.89525490E+03</rscale>
<asrwt>0</asrwt>
<pdfrwt beam="1">  1        1 0.89604240E-01 0.89525490E+03</pdfrwt>
<pdfrwt beam="2">  1       -1 0.23856622E+00 0.89525490E+03</pdfrwt>
<totfact> 0.30222245E+00</totfact>
</mgrwt>
</event>
<event>
12    1  0.1338445E-007  0.1112971E+04  0.7818608E-02  0.9192641E-01
         -2   -1    0    0    0  501 -0.00000000000E+00  0.00000000000E+00  0.69066970866E+03  0.69066970866E+03  0.00000000000E+00 0.  1.
          2   -1    0    0  501    0  0.00000000000E+00 -0.00000000000E+00 -0.21597775803E+04  0.21597775803E+04  0.00000000000E+00 0. -1.
         23    2    1    2    0    0 -0.31473925125E+03 -0.10590935596E+04 -0.10434918416E+04  0.15230350945E+04  0.10010350363E+03 0.  0.
    5000000    2    1    2    0    0  0.31473925125E+03  0.10590935596E+04 -0.42561603000E+03  0.13274121944E+04  0.60011179336E+03 0.  0.
         23    2    4    4    0    0  0.28791327237E+03  0.71454450406E+03 -0.49622418078E+01  0.77571693259E+03  0.90797769672E+02 0.  0.
         23    2    4    4    0    0  0.26825978873E+02  0.34454905555E+03 -0.42065378820E+03  0.55169526179E+03  0.89355288252E+02 0.  0.
          1    1    3    3  502    0 -0.20688380032E+03 -0.79382662476E+03 -0.72573569382E+03  0.10952871378E+04  0.00000000000E+00 0. -1.
         -1    1    3    3    0  502 -0.10785545093E+03 -0.26526693485E+03 -0.31775614778E+03  0.42774795671E+03  0.00000000000E+00 0.  1.
         13    1    5    5    0    0  0.26071511427E+02  0.86514888292E+02 -0.28902642800E+02  0.94867867927E+02  0.00000000000E+00 0.  1.
        -13    1    5    5    0    0  0.26184176095E+03  0.62802961577E+03  0.23940400992E+02  0.68084906466E+03  0.00000000000E+00 0. -1.
          1    1    6    6  503    0 -0.10160324953E+01  0.24730304443E+03 -0.34898090572E+03  0.42772362650E+03  0.00000000000E+00 0. -1.
         -1    1    6    6    0  503  0.27842011368E+02  0.97246011118E+02 -0.71672882476E+02  0.12397163530E+03  0.00000000000E+00 0.  1.
<mgrwt>
<rscale>  0 0.11129709E+04</rscale>
<asrwt>0</asrwt>
<pdfrwt beam="1">  1        2 0.33227347E+00 0.11129709E+04</pdfrwt>
<pdfrwt beam="2">  1       -2 0.10625688E+00 0.11129709E+04</pdfrwt>
<totfact> 0.38417075E+00</totfact>
</mgrwt>
</event>
<event>
12    1  0.1338445E-007  0.4612499E+03  0.7818608E-02  0.1024419E+00
         -2   -1    0    0    0  501 -0.00000000000E+00  0.00000000000E+00  0.21693457011E+03  0.21693457011E+03  0.00000000000E+00 0.  1.
          2   -1    0    0  501    0  0.00000000000E+00 -0.00000000000E+00 -0.14650874666E+04  0.14650874666E+04  0.00000000000E+00 0. -1.
         23    2    1    2    0    0 -0.33274018706E+03  0.21255777998E+03 -0.38578610590E+03  0.55948492801E+03  0.91080312108E+02 0.  0.
    5000000    2    1    2    0    0  0.33274018706E+03 -0.21255777998E+03 -0.86236679056E+03  0.11225371087E+04  0.60043004333E+03 0.  0.
         23    2    4    4    0    0  0.37764863636E+03 -0.18012168598E+03 -0.91189214646E+03  0.10065061254E+04  0.80280629223E+02 0.  0.
         23    2    4    4    0    0 -0.44908449304E+02 -0.32436094002E+02  0.49525355905E+02  0.11603098323E+03  0.89115426155E+02 0.  0.
          4    1    3    3  502    0 -0.49085433724E+02  0.71388974422E+02 -0.10501975275E+03  0.13614299079E+03  0.00000000000E+00 0. -1.
         -4    1    3    3    0  502 -0.28365475334E+03  0.14116880556E+03 -0.28076635315E+03  0.42334193722E+03  0.00000000000E+00 0.  1.
         13    1    5    5    0    0  0.89984560508E+02 -0.69924227028E+01 -0.19862268486E+03  0.21816756415E+03  0.00000000000E+00 0. -1.
        -13    1    5    5    0    0  0.28766407585E+03 -0.17312926328E+03 -0.71326946161E+03  0.78833856128E+03  0.00000000000E+00 0.  1.
          2    1    6    6  503    0 -0.58501057238E+02 -0.70852776604E+00  0.55914755177E+02  0.80927965229E+02  0.00000000000E+00 0. -1.
         -2    1    6    6    0  503  0.13592607934E+02 -0.31727566236E+02 -0.63893992719E+01  0.35103018001E+02  0.00000000000E+00 0.  1.
<mgrwt>
<rscale>  0 0.46124990E+03</rscale>
<asrwt>0</asrwt>
<pdfrwt beam="1">  1        2 0.22539806E+00 0.46124990E+03</pdfrwt>
<pdfrwt beam="2">  1       -2 0.33374551E-01 0.46124990E+03</pdfrwt>
<totfact> 0.11697017E+02</totfact>
</mgrwt>
</event>
<event>
12    1  0.1338445E-007  0.1134942E+04  0.7818608E-02  0.9171788E-01
          1   -1    0    0  501    0  0.00000000000E+00  0.00000000000E+00  0.22837890386E+04  0.22837890386E+04  0.00000000000E+00 0. -1.
         -1   -1    0    0    0  501 -0.00000000000E+00 -0.00000000000E+00 -0.85895036176E+03  0.85895036176E+03  0.00000000000E+00 0.  1.
         23    2    1    2    0    0  0.82967966973E+03 -0.70051177590E+03 -0.19019766334E+03  0.11061832751E+04  0.91548809264E+02 0.  0.
    5000000    2    1    2    0    0 -0.82967966973E+03  0.70051177590E+03  0.16150363402E+04  0.20365561253E+04  0.60011113024E+03 0.  0.
         23    2    4    4    0    0 -0.26166445935E+03  0.51377896390E+03  0.10844234390E+04  0.12312519840E+04  0.87006551642E+02 0.  0.
         23    2    4    4    0    0 -0.56801521038E+03  0.18673281201E+03  0.53061290118E+03  0.80530414125E+03  0.97233156389E+02 0.  0.
          1    1    3    3  502    0  0.44550165370E+03 -0.32142749582E+03 -0.11485495409E+03  0.56122991634E+03  0.00000000000E+00 0. -1.
         -1    1    3    3    0  502  0.38417801603E+03 -0.37908428009E+03 -0.75342709244E+02  0.54495335878E+03  0.00000000000E+00 0.  1.
         11    1    5    5    0    0 -0.24215905471E+03  0.40756485381E+03  0.91053410098E+03  0.10265585550E+04  0.00000000000E+00 0.  1.
        -11    1    5    5    0    0 -0.19505404641E+02  0.10621411008E+03  0.17388933802E+03  0.20469342898E+03  0.00000000000E+00 0. -1.
          4    1    6    6  503    0 -0.90711780164E+02  0.42126627648E+02  0.13876776469E+03  0.17105488106E+03  0.00000000000E+00 0.  1.
         -4    1    6    6    0  503 -0.47730343022E+03  0.14460618436E+03  0.39184513649E+03  0.63424926018E+03  0.00000000000E+00 0. -1.
<mgrwt>
<rscale>  0 0.11349422E+04</rscale>
<asrwt>0</asrwt>
<pdfrwt beam="1">  1        1 0.35135216E+00 0.11349422E+04</pdfrwt>
<pdfrwt beam="2">  1       -1 0.13214621E+00 0.11349422E+04</pdfrwt>
<totfact> 0.92394190E-01</totfact>
</mgrwt>
</event>
<event>
12    1  0.1338445E-007  0.8763142E+03  0.7818608E-02  0.9455684E-01
          2   -1    0    0  501    0  0.00000000000E+00  0.00000000000E+00  0.23290682007E+04  0.23290682007E+04  0.00000000000E+00 0. -1.
         -2   -1    0    0    0  501 -0.00000000000E+00 -0.00000000000E+00 -0.39462208220E+03  0.39462208220E+03  0.00000000000E+00 0.  1.
         23    2    1    2    0    0 -0.37824251775E+03  0.74937404077E+03  0.59566269484E+03  0.10334132682E+04  0.92195887147E+02 0.  0.
    5000000    2    1    2    0    0  0.37824251775E+03 -0.74937404077E+03  0.13387834237E+04  0.16902770147E+04  0.60005539396E+03 0.  0.
         23    2    4    4    0    0  0.43523754785E+03 -0.69745568070E+03  0.84304111988E+03  0.11809648317E+04  0.89908032764E+02 0.  0.
         23    2    4    4    0    0 -0.56995030095E+02 -0.51918360072E+02  0.49574230378E+03  0.50931218300E+03  0.87718404170E+02 0.  0.
          3    1    3    3  502    0 -0.29984706560E+02  0.56103684112E+02  0.78394996744E+02  0.10095782046E+03  0.00000000000E+00 0. -1.
         -3    1    3    3    0  502 -0.34825781119E+03  0.69327035666E+03  0.51726769810E+03  0.93245544772E+03  0.00000000000E+00 0.  1.
         13    1    5    5    0    0  0.32780675610E+03 -0.59071813097E+03  0.68838287699E+03  0.96450825031E+03  0.00000000000E+00 0. -1.
        -13    1    5    5    0    0  0.10743079175E+03 -0.10673754973E+03  0.15465824290E+03  0.21645658141E+03  0.00000000000E+00 0.  1.
          3    1    6    6  503    0 -0.13546387784E+02 -0.38317868915E+02  0.41195208198E+03  0.41395202808E+03  0.00000000000E+00 0. -1.
         -3    1    6    6    0  503 -0.43448642311E+02 -0.13600491157E+02  0.83790221795E+02  0.95360154922E+02  0.00000000000E+00 0.  1.
<mgrwt>
<rscale>  0 0.87631418E+03</rscale>
<asrwt>0</asrwt>
<pdfrwt beam="1">  1        2 0.35831818E+00 0.87631418E+03</pdfrwt>
<pdfrwt beam="2">  1       -2 0.60711091E-01 0.87631418E+03</pdfrwt>
<totfact> 0.11293284E+01</totfact>
</mgrwt>
</event>
<event>
12    1  0.1338445E-007  0.1042920E+04  0.7818608E-02  0.9262684E-01
          1   -1    0    0  501    0  0.00000000000E+00  0.00000000000E+00  0.17890793940E+04  0.17890793940E+04  0.00000000000E+00 0. -1.
         -1   -1    0    0    0  501 -0.00000000000E+00 -0.00000000000E+00 -0.83797612712E+03  0.83797612712E+03  0.00000000000E+00 0.  1.
         23    2    1    2    0    0 -0.10606263406E+03 -0.10277521292E+04 -0.91204549870E+02  0.10415201091E+04  0.94457113539E+02 0.  0.
    5000000    2    1    2    0    0  0.10606263406E+03  0.10277521292E+04  0.10423078167E+04  0.15855354120E+04  0.59999436368E+03 0.  0.
         23    2    4    4    0    0  0.12901426663E+03  0.81804154236E+03  0.10721430851E+04  0.13578470035E+04  0.91766246148E+02 0.  0.
         23    2    4    4    0    0 -0.22951632568E+02  0.20971058685E+03 -0.29835268321E+02  0.22768840855E+03  0.80290475630E+02 0.  0.
          2    1    3    3  502    0 -0.48521323609E+02 -0.69605492153E+03 -0.23569809697E+02  0.69814204039E+03  0.00000000000E+00 0. -1.
         -2    1    3    3    0  502 -0.57541310451E+02 -0.33169720769E+03 -0.67634740173E+02  0.34337806871E+03  0.00000000000E+00 0.  1.
         11    1    5    5    0    0  0.70831316104E+02  0.33702327866E+03  0.51436688300E+03  0.61901135372E+03  0.00000000000E+00 0. -1.
        -11    1    5    5    0    0  0.58182950524E+02  0.48101826370E+03  0.55777620206E+03  0.73883564974E+03  0.00000000000E+00 0.  1.
          4    1    6    6  503    0 -0.41133226834E+02  0.66635475182E+02  0.76202168701E+01  0.78678438010E+02  0.00000000000E+00 0. -1.
         -4    1    6    6    0  503  0.18181594266E+02  0.14307511167E+03 -0.37455485192E+02  0.14900997054E+03  0.00000000000E+00 0.  1.
<mgrwt>
<rscale>  0 0.10429200E+04</rscale>
<asrwt>0</asrwt>
<pdfrwt beam="1">  1        1 0.27524298E+00 0.10429200E+04</pdfrwt>
<pdfrwt beam="2">  1       -1 0.12891940E+00 0.10429200E+04</pdfrwt>
<totfact> 0.21515894E+00</totfact>
</mgrwt>
</event>
<event>
12    1  0.1338445E-007  0.7755706E+03  0.7818608E-02  0.9596067E-01
          1   -1    0    0  501    0  0.00000000000E+00  0.00000000000E+00  0.13421232919E+04  0.13421232919E+04  0.00000000000E+00 0. -1.
         -1   -1    0    0    0  501 -0.00000000000E+00 -0.00000000000E+00 -0.62654354522E+03  0.62654354522E+03  0.00000000000E+00 0.  1.
         23    2    1    2    0    0 -0.55224587040E+03  0.37422666136E+03 -0.18425211182E+03  0.69798280602E+03  0.90609388794E+02 0.  0.
    5000000    2    1    2    0    0  0.55224587040E+03 -0.37422666136E+03  0.89983185851E+03  0.12706840311E+04  0.59993286114E+03 0.  0.
         23    2    4    4    0    0  0.37716415907E+03  0.81847366472E+02  0.45641168261E+03  0.60456120106E+03  0.90723908208E+02 0.  0.
         23    2    4    4    0    0  0.17508171134E+03 -0.45607402784E+03  0.44342017590E+03  0.66612283005E+03  0.91875175137E+02 0.  0.
          4    1    3    3  502    0 -0.29307070303E+03  0.22454267714E+03 -0.60558011638E+02  0.37413516756E+03  0.00000000000E+00 0.  1.
         -4    1    3    3    0  502 -0.25917516738E+03  0.14968398422E+03 -0.12369410019E+03  0.32384763846E+03  0.00000000000E+00 0. -1.
         13    1    5    5    0    0  0.19288542552E+03  0.10995722144E+02  0.27746918510E+03  0.33810477956E+03  0.00000000000E+00 0.  1.
        -13    1    5    5    0    0  0.18427873355E+03  0.70851644328E+02  0.17894249751E+03  0.26645642150E+03  0.00000000000E+00 0. -1.
          3    1    6    6  503    0  0.10269476035E+02 -0.43264906158E+01 -0.11876958041E+01  0.11206751555E+02  0.00000000000E+00 0. -1.
         -3    1    6    6    0  503  0.16481223530E+03 -0.45174753722E+03  0.44460787171E+03  0.65491607850E+03  0.00000000000E+00 0.  1.
<mgrwt>
<rscale>  0 0.77557061E+03</rscale>
<asrwt>0</asrwt>
<pdfrwt beam="1">  1        1 0.20648051E+00 0.77557061E+03</pdfrwt>
<pdfrwt beam="2">  1       -1 0.96391315E-01 0.77557061E+03</pdfrwt>
<totfact> 0.90357341E+00</totfact>
</mgrwt>
</event>
<event>
12    1  0.1338445E-007  0.4162575E+03  0.7818608E-02  0.1038291E+00
          1   -1    0    0  501    0  0.00000000000E+00  0.00000000000E+00  0.10339484407E+04  0.10339484407E+04  0.00000000000E+00 0. -1.
         -1   -1    0    0    0  501 -0.00000000000E+00 -0.00000000000E+00 -0.18441880802E+03  0.18441880802E+03  0.00000000000E+00 0.  1.
         23    2    1    2    0    0  0.21478292911E+02 -0.21389297968E+03  0.28033051931E+03  0.36379219297E+03  0.86879432474E+02 0.  0.
    5000000    2    1    2    0    0 -0.21478292911E+02  0.21389297968E+03  0.56919911342E+03  0.85457505579E+03  0.60008280382E+03 0.  0.
         23    2    4    4    0    0 -0.30920055572E+02 -0.18401051627E+03  0.30361546399E+03  0.36765463619E+03  0.90397243351E+02 0.  0.
         23    2    4    4    0    0  0.94417626611E+01  0.39790349595E+03  0.26558364943E+03  0.48692041960E+03  0.90224615315E+02 0.  0.
          3    1    3    3  502    0  0.33024672464E+02 -0.44058629223E+02  0.10984315200E+03  0.12287111069E+03  0.00000000000E+00 0. -1.
         -3    1    3    3    0  502 -0.11546379554E+02 -0.16983435046E+03  0.17048736731E+03  0.24092108229E+03  0.00000000000E+00 0.  1.
         13    1    5    5    0    0 -0.36421168649E+02 -0.18865048259E+02  0.46323228439E+02  0.61872716641E+02  0.00000000000E+00 0. -1.
        -13    1    5    5    0    0  0.55011130772E+01 -0.16514546801E+03  0.25729223555E+03  0.30578191955E+03  0.00000000000E+00 0.  1.
          1    1    6    6  503    0 -0.19545011141E+02  0.20087508101E+03  0.88304088117E+02  0.22029620425E+03  0.00000000000E+00 0. -1.
         -1    1    6    6    0  503  0.28986773802E+02  0.19702841494E+03  0.17727956132E+03  0.26662421535E+03  0.00000000000E+00 0.  1.
<mgrwt>
<rscale>  0 0.41625755E+03</rscale>
<asrwt>0</asrwt>
<pdfrwt beam="1">  1        1 0.15906899E+00 0.41625755E+03</pdfrwt>
<pdfrwt beam="2">  1       -1 0.28372125E-01 0.41625755E+03</pdfrwt>
<totfact> 0.16765097E+02</totfact>
</mgrwt>
</event>
<event>
12    1  0.1338445E-007  0.4310703E+03  0.7818608E-02  0.1033522E+00
         -2   -1    0    0    0  501 -0.00000000000E+00  0.00000000000E+00  0.92368233099E+03  0.92368233099E+03  0.00000000000E+00 0.  1.
          2   -1    0    0  501    0  0.00000000000E+00 -0.00000000000E+00 -0.40187866692E+03  0.40187866692E+03  0.00000000000E+00 0. -1.
         23    2    1    2    0    0  0.20871169129E+03  0.34129630086E+03 -0.35889023029E+02  0.41390251606E+03  0.99917644935E+02 0.  0.
    5000000    2    1    2    0    0 -0.20871169129E+03 -0.34129630086E+03  0.55769268710E+03  0.91165848184E+03  0.60004693085E+03 0.  0.
         23    2    4    4    0    0 -0.41379429142E+02 -0.30977896075E+02  0.53726000775E+03  0.54733894130E+03  0.90882966171E+02 0.  0.
         23    2    4    4    0    0 -0.16733226215E+03 -0.31031840478E+03  0.20432679349E+02  0.36431954054E+03  0.89518908249E+02 0.  0.
          2    1    3    3  502    0  0.13883056843E+03  0.24353390992E+03  0.20671230406E+02  0.28108716047E+03  0.00000000000E+00 0. -1.
         -2    1    3    3    0  502  0.69881122861E+02  0.97762390932E+02 -0.56560253435E+02  0.13281535559E+03  0.00000000000E+00 0.  1.
         11    1    5    5    0    0 -0.68489185082E+02 -0.34017782251E+02  0.42391283261E+03  0.43075522938E+03  0.00000000000E+00 0. -1.
        -11    1    5    5    0    0  0.27109755940E+02  0.30398861769E+01  0.11334717513E+03  0.11658371192E+03  0.00000000000E+00 0.  1.
          1    1    6    6  503    0 -0.97303078175E+02 -0.11637711615E+03 -0.23469790267E+02  0.15350033629E+03  0.00000000000E+00 0. -1.
         -1    1    6    6    0  503 -0.70029183974E+02 -0.19394128863E+03  0.43902469616E+02  0.21081920425E+03  0.00000000000E+00 0.  1.
<mgrwt>
<rscale>  0 0.43107032E+03</rscale>
<asrwt>0</asrwt>
<pdfrwt beam="1">  1        2 0.61827487E-01 0.43107032E+03</pdfrwt>
<pdfrwt beam="2">  1       -2 0.14210497E+00 0.43107032E+03</pdfrwt>
<totfact> 0.28539953E+01</totfact>
</mgrwt>
</event>
<event>
12    1  0.1338445E-007  0.6727119E+03  0.7818608E-02  0.9765071E-01
         -1   -1    0    0    0  501 -0.00000000000E+00  0.00000000000E+00  0.55073228621E+03  0.55073228621E+03  0.00000000000E+00 0.  1.
          1   -1    0    0  501    0  0.00000000000E+00 -0.00000000000E+00 -0.10891448385E+04  0.10891448385E+04  0.00000000000E+00 0. -1.
         23    2    1    2    0    0  0.37774848833E+03  0.46933051735E+03  0.41636009143E+02  0.61059482445E+03  0.90152245903E+02 0.  0.
    5000000    2    1    2    0    0 -0.37774848833E+03 -0.46933051735E+03 -0.58004856142E+03  0.10292823002E+04  0.60000055421E+03 0.  0.
         23    2    4    4    0    0 -0.27496856179E+03 -0.52080965478E+03 -0.63695061993E+03  0.87219111299E+03  0.90337361393E+02 0.  0.
         23    2    4    4    0    0 -0.10277992653E+03  0.51479137429E+02  0.56902058507E+02  0.15709118726E+03  0.90697199318E+02 0.  0.
          1    1    3    3  502    0  0.21928812129E+03  0.34004782210E+03  0.24265157335E+02  0.40534997140E+03  0.00000000000E+00 0. -1.
         -1    1    3    3    0  502  0.15846036703E+03  0.12928269525E+03  0.17370851808E+02  0.20524485305E+03  0.00000000000E+00 0.  1.
         13    1    5    5    0    0 -0.20684931117E+03 -0.30167149866E+03 -0.37268544508E+03  0.52219418956E+03  0.00000000000E+00 0. -1.
        -13    1    5    5    0    0 -0.68119250627E+02 -0.21913815612E+03 -0.26426517485E+03  0.34999692343E+03  0.00000000000E+00 0.  1.
          4    1    6    6  503    0 -0.11343512960E+03  0.59125793499E+02  0.36832857073E+02  0.13311666854E+03  0.00000000000E+00 0. -1.
         -4    1    6    6    0  503  0.10655203067E+02 -0.76466560702E+01  0.20069201435E+02  0.23974518716E+02  0.00000000000E+00 0.  1.
<mgrwt>
<rscale>  0 0.67271192E+03</rscale>
<asrwt>0</asrwt>
<pdfrwt beam="1">  1        1 0.16756074E+00 0.67271192E+03</pdfrwt>
<pdfrwt beam="2">  1       -1 0.84728045E-01 0.67271192E+03</pdfrwt>
<totfact> 0.18543517E+01</totfact>
</mgrwt>
</event>
<event>
12    1  0.1338445E-007  0.5159847E+03  0.7818608E-02  0.1009689E+00
          2   -1    0    0  501    0  0.00000000000E+00  0.00000000000E+00  0.16237350518E+04  0.16237350518E+04  0.00000000000E+00 0. -1.
         -2   -1    0    0    0  501 -0.00000000000E+00 -0.00000000000E+00 -0.22124837480E+03  0.22124837480E+03  0.00000000000E+00 0.  1.
         23    2    1    2    0    0  0.99562968843E+02  0.38813953047E+03  0.82217790074E+03  0.91903586719E+03  0.89918545569E+02 0.  0.
    5000000    2    1    2    0    0 -0.99562968843E+02 -0.38813953047E+03  0.58030877631E+03  0.92594755946E+03  0.60004627083E+03 0.  0.
         23    2    4    4    0    0  0.18047290412E+03 -0.20472032609E+03  0.51275007565E+02  0.29295429216E+03  0.93339219289E+02 0.  0.
         23    2    4    4    0    0 -0.28003587297E+03 -0.18341920439E+03  0.52903376874E+03  0.63299326730E+03  0.93493600293E+02 0.  0.
          2    1    3    3  502    0  0.16376173983E+02  0.22547097967E+03  0.41037785289E+03  0.46852462464E+03  0.00000000000E+00 0. -1.
         -2    1    3    3    0  502  0.83186794860E+02  0.16266855081E+03  0.41180004785E+03  0.45051124255E+03  0.00000000000E+00 0.  1.
         13    1    5    5    0    0  0.50291213767E+02 -0.12751914392E+03  0.25002914540E+02  0.13933945595E+03  0.00000000000E+00 0. -1.
        -13    1    5    5    0    0  0.13018169036E+03 -0.77201182164E+02  0.26272093025E+02  0.15361483621E+03  0.00000000000E+00 0.  1.
          3    1    6    6  503    0 -0.50424631117E+02 -0.34364142348E+02  0.41286561526E+02  0.73675761721E+02  0.00000000000E+00 0. -1.
         -3    1    6    6    0  503 -0.22961124185E+03 -0.14905506204E+03  0.48774720722E+03  0.55931750558E+03  0.00000000000E+00 0.  1.
<mgrwt>
<rscale>  0 0.51598474E+03</rscale>
<asrwt>0</asrwt>
<pdfrwt beam="1">  1        2 0.24980539E+00 0.51598474E+03</pdfrwt>
<pdfrwt beam="2">  1       -2 0.34038212E-01 0.51598474E+03</pdfrwt>
<totfact> 0.91630870E+01</totfact>
</mgrwt>
</event>
<event>
12    1  0.1338445E-007  0.9139008E+03  0.7818608E-02  0.9408370E-01
          2   -1    0    0  501    0  0.00000000000E+00  0.00000000000E+00  0.15051563416E+04  0.15051563416E+04  0.00000000000E+00 0. -1.
         -2   -1    0    0    0  501 -0.00000000000E+00 -0.00000000000E+00 -0.61677302550E+03  0.61677302550E+03  0.00000000000E+00 0.  1.
         23    2    1    2    0    0  0.53987025518E+03 -0.63161845350E+03  0.12570407487E+03  0.84447787023E+03  0.83304235445E+02 0.  0.
    5000000    2    1    2    0    0 -0.53987025518E+03  0.63161845350E+03  0.76267924124E+03  0.12774514969E+04  0.59983409259E+03 0.  0.
         23    2    4    4    0    0 -0.23987308712E+03  0.63612132171E+03  0.38578073324E+03  0.78700169163E+03  0.91408175959E+02 0.  0.
         23    2    4    4    0    0 -0.29999716805E+03 -0.45028682117E+01  0.37689850800E+03  0.49044980525E+03  0.92032328419E+02 0.  0.
          1    1    3    3  502    0  0.12634423765E+03 -0.14449247618E+03  0.64882602473E+02  0.20260970896E+03  0.00000000000E+00 0. -1.
         -1    1    3    3    0  502  0.41352601753E+03 -0.48712597732E+03  0.60821472397E+02  0.64186816127E+03  0.00000000000E+00 0.  1.
         11    1    5    5    0    0 -0.91968922669E+02  0.15407954306E+03  0.13023093943E+03  0.22171803245E+03  0.00000000000E+00 0.  1.
        -11    1    5    5    0    0 -0.14790416446E+03  0.48204177865E+03  0.25554979381E+03  0.56528365918E+03  0.00000000000E+00 0. -1.
          4    1    6    6  503    0 -0.79296253170E+01 -0.19209522240E+02  0.17992850929E+02  0.27488677432E+02  0.00000000000E+00 0. -1.
         -4    1    6    6    0  503 -0.29206754274E+03  0.14706654029E+02  0.35890565707E+03  0.46296112782E+03  0.00000000000E+00 0.  1.
<mgrwt>
<rscale>  0 0.91390084E+03</rscale>
<asrwt>0</asrwt>
<pdfrwt beam="1">  1        2 0.23156251E+00 0.91390084E+03</pdfrwt>
<pdfrwt beam="2">  1       -2 0.94888158E-01 0.91390084E+03</pdfrwt>
<totfact> 0.11840357E+01</totfact>
</mgrwt>
</event>
<event>
12    1  0.1338445E-007  0.5324037E+03  0.7818608E-02  0.1005651E+00
          3   -1    0    0  501    0  0.00000000000E+00  0.00000000000E+00  0.15026717158E+04  0.15026717158E+04  0.00000000000E+00 0. -1.
         -3   -1    0    0    0  501 -0.00000000000E+00 -0.00000000000E+00 -0.29572508544E+03  0.29572508544E+03  0.00000000000E+00 0.  1.
         23    2    1    2    0    0 -0.41510680764E+03  0.21941203765E+03  0.17209330436E+03  0.51333586320E+03  0.11594092902E+03 0.  0.
    5000000    2    1    2    0    0  0.41510680764E+03 -0.21941203765E+03  0.10348533260E+04  0.12850609380E+04  0.60000408674E+03 0.  0.
         23    2    4    4    0    0  0.42631099707E+03 -0.88371751336E+02  0.31404896628E+03  0.54637764969E+03  0.10174060252E+03 0.  0.
         23    2    4    4    0    0 -0.11204189424E+02 -0.13104028632E+03  0.72080435971E+03  0.73868328833E+03  0.93792243790E+02 0.  0.
          2    1    3    3  502    0 -0.22213183070E+03  0.18175195946E+03  0.10151617849E+03  0.30443695484E+03  0.00000000000E+00 0. -1.
         -2    1    3    3    0  502 -0.19297497694E+03  0.37660078187E+02  0.70577125872E+02  0.20889890836E+03  0.00000000000E+00 0.  1.
         11    1    5    5    0    0  0.25676847545E+03 -0.30324823328E+02  0.12962413320E+03  0.28922665991E+03  0.00000000000E+00 0.  1.
        -11    1    5    5    0    0  0.16954252162E+03 -0.58046928008E+02  0.18442483308E+03  0.25715098978E+03  0.00000000000E+00 0. -1.
          3    1    6    6  503    0  0.89169035702E+00 -0.13132004565E+03  0.71123527134E+03  0.72325746501E+03  0.00000000000E+00 0. -1.
         -3    1    6    6    0  503 -0.12095879781E+02  0.27975933704E+00  0.95690883701E+01  0.15425823324E+02  0.00000000000E+00 0.  1.
<mgrwt>
<rscale>  0 0.53240373E+03</rscale>
<asrwt>0</asrwt>
<pdfrwt beam="1">  1        3 0.23118026E+00 0.53240373E+03</pdfrwt>
<pdfrwt beam="2">  1       -3 0.45496168E-01 0.53240373E+03</pdfrwt>
<totfact> 0.12188501E+00</totfact>
</mgrwt>
</event>
<event>
12    1  0.1338445E-007  0.4673139E+03  0.7818608E-02  0.1022681E+00
          2   -1    0    0  501    0  0.00000000000E+00  0.00000000000E+00  0.30213755570E+03  0.30213755570E+03  0.00000000000E+00 0. -1.
         -2   -1    0    0    0  501 -0.00000000000E+00 -0.00000000000E+00 -0.92839664793E+03  0.92839664793E+03  0.00000000000E+00 0.  1.
         23    2    1    2    0    0 -0.17468227485E+03  0.30427384183E+03 -0.23555106808E+03  0.43214704994E+03  0.90389706987E+02 0.  0.
    5000000    2    1    2    0    0  0.17468227485E+03 -0.30427384183E+03 -0.39070802415E+03  0.79838715370E+03  0.60139240026E+03 0.  0.
         23    2    4    4    0    0  0.32763872710E+03 -0.17725585533E+03 -0.43107144437E+03  0.57749452197E+03  0.94395757422E+02 0.  0.
         23    2    4    4    0    0 -0.15295645225E+03 -0.12701798650E+03  0.40363420219E+02  0.22089263172E+03  0.87379081458E+02 0.  0.
          1    1    3    3  502    0 -0.65405056974E+02  0.20143638796E+03 -0.14856672701E+03  0.25870158919E+03  0.00000000000E+00 0. -1.
         -1    1    3    3    0  502 -0.10927721787E+03  0.10283745387E+03 -0.86984341069E+02  0.17344546075E+03  0.00000000000E+00 0.  1.
         13    1    5    5    0    0  0.26349992844E+03 -0.14064344307E+03 -0.28031792706E+03  0.40962291268E+03  0.00000000000E+00 0.  1.
        -13    1    5    5    0    0  0.64138798664E+02 -0.36612412254E+02 -0.15075351731E+03  0.16787160929E+03  0.00000000000E+00 0. -1.
          1    1    6    6  503    0 -0.22957597389E+02 -0.31259082237E+02  0.44947481816E+02  0.59367142611E+02  0.00000000000E+00 0.  1.
         -1    1    6    6    0  503 -0.12999885486E+03 -0.95758904268E+02 -0.45840615966E+01  0.16152548911E+03  0.00000000000E+00 0. -1.
<mgrwt>
<rscale>  0 0.46731387E+03</rscale>
<asrwt>0</asrwt>
<pdfrwt beam="1">  1        2 0.46482702E-01 0.46731387E+03</pdfrwt>
<pdfrwt beam="2">  1       -2 0.14283025E+00 0.46731387E+03</pdfrwt>
<totfact> 0.38419386E+01</totfact>
</mgrwt>
</event>
<event>
12    1  0.1338445E-007  0.1849010E+04  0.7818608E-02  0.8680662E-01
          2   -1    0    0  501    0  0.00000000000E+00  0.00000000000E+00  0.10388034589E+04  0.10388034589E+04  0.00000000000E+00 0. -1.
         -2   -1    0    0    0  501 -0.00000000000E+00 -0.00000000000E+00 -0.34099226420E+04  0.34099226420E+04  0.00000000000E+00 0.  1.
         23    2    1    2    0    0 -0.70107059403E+03  0.16935707765E+04 -0.11868644231E+04  0.21854861037E+04  0.89556675436E+02 0.  0.
    5000000    2    1    2    0    0  0.70107059403E+03 -0.16935707765E+04 -0.11842547600E+04  0.22632399971E+04  0.60009498836E+03 0.  0.
         23    2    4    4    0    0  0.68170614456E+03 -0.13049258654E+04 -0.11333977767E+04  0.18601217798E+04  0.88925438634E+02 0.  0.
         23    2    4    4    0    0  0.19364449471E+02 -0.38864491104E+03 -0.50856983367E+02  0.40311821732E+03  0.92184682010E+02 0.  0.
          3    1    3    3  502    0 -0.53096037824E+03  0.12258511298E+04 -0.90402113979E+03  0.16130356899E+04  0.00000000000E+00 0. -1.
         -3    1    3    3    0  502 -0.17011021578E+03  0.46771964670E+03 -0.28284328328E+03  0.57245041385E+03  0.00000000000E+00 0.  1.
         13    1    5    5    0    0  0.27277027815E+03 -0.52314655753E+03 -0.39964313531E+03  0.71260127764E+03  0.00000000000E+00 0.  1.
        -13    1    5    5    0    0  0.40893586640E+03 -0.78177930790E+03 -0.73375464137E+03  0.11475205021E+04  0.00000000000E+00 0. -1.
          4    1    6    6  503    0  0.35886306108E+02 -0.26352017531E+03  0.28195890983E+01  0.26596740372E+03  0.00000000000E+00 0. -1.
         -4    1    6    6    0  503 -0.16521856637E+02 -0.12512473574E+03 -0.53676572465E+02  0.13715081360E+03  0.00000000000E+00 0.  1.
<mgrwt>
<rscale>  0 0.18490098E+04</rscale>
<asrwt>0</asrwt>
<pdfrwt beam="1">  1        2 0.15981592E+00 0.18490098E+04</pdfrwt>
<pdfrwt beam="2">  1       -2 0.52460347E+00 0.18490098E+04</pdfrwt>
<totfact> 0.25203590E-02</totfact>
</mgrwt>
</event>
<event>
12    1  0.1338445E-007  0.1228333E+04  0.7818608E-02  0.9088412E-01
         -2   -1    0    0    0  501 -0.00000000000E+00  0.00000000000E+00  0.80183691505E+03  0.80183691505E+03  0.00000000000E+00 0.  1.
          2   -1    0    0  501    0  0.00000000000E+00 -0.00000000000E+00 -0.22925340328E+04  0.22925340328E+04  0.00000000000E+00 0. -1.
         23    2    1    2    0    0  0.62008224703E+03  0.10539407684E+04 -0.11703801682E+04  0.16950928804E+04  0.90868029516E+02 0.  0.
    5000000    2    1    2    0    0 -0.62008224703E+03 -0.10539407684E+04 -0.32031694954E+03  0.13992780674E+04  0.60006918390E+03 0.  0.
         23    2    4    4    0    0 -0.23471079058E+03 -0.31765890015E+03 -0.38677953571E+03  0.56007793121E+03  0.89958588926E+02 0.  0.
         23    2    4    4    0    0 -0.38537145645E+03 -0.73628186822E+03  0.66462586169E+02  0.83920013621E+03  0.96007522278E+02 0.  0.
          2    1    3    3  502    0  0.41030067622E+03  0.67787613018E+03 -0.81581974017E+03  0.11372882402E+04  0.00000000000E+00 0. -1.
         -2    1    3    3    0  502  0.20978157081E+03  0.37606463820E+03 -0.35456042800E+03  0.55780464023E+03  0.00000000000E+00 0.  1.
         13    1    5    5    0    0 -0.77906962706E+02 -0.17066779513E+03 -0.21168598790E+03  0.28285676341E+03  0.00000000000E+00 0.  1.
        -13    1    5    5    0    0 -0.15680382788E+03 -0.14699110502E+03 -0.17509354782E+03  0.27722116780E+03  0.00000000000E+00 0. -1.
          2    1    6    6  503    0 -0.32979966396E+03 -0.62020793018E+03  0.21137561189E+02  0.70276062176E+03  0.00000000000E+00 0. -1.
         -2    1    6    6    0  503 -0.55571792491E+02 -0.11607393804E+03  0.45325024980E+02  0.13643951445E+03  0.00000000000E+00 0.  1.
<mgrwt>
<rscale>  0 0.12283335E+04</rscale>
<asrwt>0</asrwt>
<pdfrwt beam="1">  1        2 0.35269754E+00 0.12283335E+04</pdfrwt>
<pdfrwt beam="2">  1       -2 0.12335953E+00 0.12283335E+04</pdfrwt>
<totfact> 0.22123218E+00</totfact>
</mgrwt>
</event>
<event>
12    1  0.1338445E-007  0.4127685E+03  0.7818608E-02  0.1039446E+00
          2   -1    0    0  501    0  0.00000000000E+00  0.00000000000E+00  0.11630306841E+04  0.11630306841E+04  0.00000000000E+00 0. -1.
         -2   -1    0    0    0  501 -0.00000000000E+00 -0.00000000000E+00 -0.28817710351E+03  0.28817710351E+03  0.00000000000E+00 0.  1.
         23    2    1    2    0    0 -0.30574782637E+03  0.15856396945E+03  0.27406021231E+02  0.35725070585E+03  0.90844433480E+02 0.  0.
    5000000    2    1    2    0    0  0.30574782637E+03 -0.15856396945E+03  0.84744755934E+03  0.10939570817E+04  0.59995871952E+03 0.  0.
         23    2    4    4    0    0 -0.52193036787E+02 -0.57765437805E+02  0.65453322202E+03  0.66528369780E+03  0.90153762703E+02 0.  0.
         23    2    4    4    0    0  0.35794086316E+03 -0.10079853165E+03  0.19291433732E+03  0.42867338395E+03  0.90900621898E+02 0.  0.
          3    1    3    3  502    0 -0.12342154213E+03  0.68487710291E+02 -0.33289954312E+02  0.14502297949E+03  0.00000000000E+00 0. -1.
         -3    1    3    3    0  502 -0.18232628424E+03  0.90076259159E+02  0.60695975542E+02  0.21222772636E+03  0.00000000000E+00 0.  1.
         13    1    5    5    0    0 -0.54718389717E+02 -0.15769032924E+02  0.17777589056E+03  0.18667359706E+03  0.00000000000E+00 0.  1.
        -13    1    5    5    0    0  0.25253529306E+01 -0.41996404882E+02  0.47675733146E+03  0.47861010074E+03  0.00000000000E+00 0. -1.
          1    1    6    6  503    0  0.36262692860E+03 -0.95620375503E+02  0.18517174292E+03  0.41824648227E+03  0.00000000000E+00 0. -1.
         -1    1    6    6    0  503 -0.46860654468E+01 -0.51781561418E+01  0.77425944021E+01  0.10426901672E+02  0.00000000000E+00 0.  1.
<mgrwt>
<rscale>  0 0.41276850E+03</rscale>
<asrwt>0</asrwt>
<pdfrwt beam="1">  1        2 0.17892780E+00 0.41276850E+03</pdfrwt>
<pdfrwt beam="2">  1       -2 0.44334939E-01 0.41276850E+03</pdfrwt>
<totfact> 0.10115127E+02</totfact>
</mgrwt>
</event>
<event>
12    1  0.1338445E-007  0.5184385E+03  0.7818608E-02  0.1009075E+00
         -1   -1    0    0    0  501 -0.00000000000E+00  0.00000000000E+00  0.41455655025E+03  0.41455655025E+03  0.00000000000E+00 0.  1.
          1   -1    0    0  501    0  0.00000000000E+00 -0.00000000000E+00 -0.99299347806E+03  0.99299347806E+03  0.00000000000E+00 0. -1.
         23    2    1    2    0    0 -0.45790561832E+03  0.15160889384E+03 -0.10020308749E+03  0.50113262526E+03  0.91817413269E+02 0.  0.
    5000000    2    1    2    0    0  0.45790561832E+03 -0.15160889384E+03 -0.47823384032E+03  0.90641740306E+03  0.60018504694E+03 0.  0.
         23    2    4    4    0    0  0.42732780649E+03 -0.19266100583E+03 -0.58660593183E+03  0.75650065298E+03  0.91975003871E+02 0.  0.
         23    2    4    4    0    0  0.30577811826E+02  0.41052111991E+02  0.10837209151E+03  0.14991675008E+03  0.90056889014E+02 0.  0.
          2    1    3    3  502    0 -0.22245525331E+03  0.38481782539E+02 -0.14537137057E+02  0.22622669088E+03  0.00000000000E+00 0. -1.
         -2    1    3    3    0  502 -0.23545036500E+03  0.11312711130E+03 -0.85665950436E+02  0.27490593438E+03  0.00000000000E+00 0.  1.
         11    1    5    5    0    0  0.23523782921E+03 -0.14221763893E+03 -0.29032730750E+03  0.39981575581E+03  0.00000000000E+00 0.  1.
        -11    1    5    5    0    0  0.19208997728E+03 -0.50443366904E+02 -0.29627862433E+03  0.35668489717E+03  0.00000000000E+00 0. -1.
          4    1    6    6  503    0 -0.16918328570E+02  0.11850075772E+02  0.88260322873E+02  0.90645125247E+02  0.00000000000E+00 0. -1.
         -4    1    6    6    0  503  0.47496140396E+02  0.29202036219E+02  0.20111768641E+02  0.59271624828E+02  0.00000000000E+00 0.  1.
<mgrwt>
<rscale>  0 0.51843853E+03</rscale>
<asrwt>0</asrwt>
<pdfrwt beam="1">  1        1 0.15276823E+00 0.51843853E+03</pdfrwt>
<pdfrwt beam="2">  1       -1 0.63777931E-01 0.51843853E+03</pdfrwt>
<totfact> 0.40328740E+01</totfact>
</mgrwt>
</event>
<event>
12    1  0.1338445E-007  0.3999863E+03  0.7818608E-02  0.1043784E+00
          4   -1    0    0  501    0  0.00000000000E+00  0.00000000000E+00  0.35135274161E+03  0.35135274161E+03  0.00000000000E+00 0.  1.
         -4   -1    0    0    0  501 -0.00000000000E+00 -0.00000000000E+00 -0.62629985497E+03  0.62629985497E+03  0.00000000000E+00 0. -1.
         23    2    1    2    0    0 -0.32408742308E+02  0.25666668142E+03 -0.14351466775E+02  0.27484099702E+03  0.91670590246E+02 0.  0.
    5000000    2    1    2    0    0  0.32408742308E+02 -0.25666668142E+03 -0.26059564658E+03  0.70281159957E+03  0.59925448812E+03 0.  0.
         23    2    4    4    0    0 -0.10956876070E+03  0.88267958920E+02  0.83572436562E+02  0.18715902971E+03  0.90816322075E+02 0.  0.
         23    2    4    4    0    0  0.14197750301E+03 -0.34493464034E+03 -0.34416808315E+03  0.51565256986E+03  0.91150347663E+02 0.  0.
          3    1    3    3  502    0  0.63782488050E+01  0.16052322793E+03 -0.44818171624E+02  0.16678446352E+03  0.00000000000E+00 0. -1.
         -3    1    3    3    0  502 -0.38786991113E+02  0.96143453488E+02  0.30466704849E+02  0.10805653350E+03  0.00000000000E+00 0.  1.
         11    1    5    5    0    0 -0.42755614649E+02 -0.30722441354E+01  0.56281635579E+02  0.70746758028E+02  0.00000000000E+00 0. -1.
        -11    1    5    5    0    0 -0.66813146049E+02  0.91340203056E+02  0.27290800984E+02  0.11641227168E+03  0.00000000000E+00 0.  1.
          3    1    6    6  503    0  0.33665867518E+02 -0.17420448814E+03 -0.12240480792E+03  0.21555401023E+03  0.00000000000E+00 0. -1.
         -3    1    6    6    0  503  0.10831163549E+03 -0.17073015220E+03 -0.22176327523E+03  0.30009855963E+03  0.00000000000E+00 0.  1.
<mgrwt>
<rscale>  0 0.39998633E+03</rscale>
<asrwt>0</asrwt>
<pdfrwt beam="1">  1        4 0.54054269E-01 0.39998633E+03</pdfrwt>
<pdfrwt beam="2">  1       -4 0.96353822E-01 0.39998633E+03</pdfrwt>
<totfact> 0.56945763E+00</totfact>
</mgrwt>
</event>
<event>
12    1  0.1338445E-007  0.5052611E+03  0.7818608E-02  0.1012415E+00
         -2   -1    0    0    0  501 -0.00000000000E+00  0.00000000000E+00  0.28911853624E+03  0.28911853624E+03  0.00000000000E+00 0. -1.
          2   -1    0    0  501    0  0.00000000000E+00 -0.00000000000E+00 -0.10538026295E+04  0.10538026295E+04  0.00000000000E+00 0.  1.
         23    2    1    2    0    0 -0.34140655624E+03 -0.13840726712E+03 -0.15539054172E+03  0.41183719878E+03  0.98735250089E+02 0.  0.
    5000000    2    1    2    0    0  0.34140655624E+03  0.13840726712E+03 -0.60929355150E+03  0.93108396691E+03  0.59996976032E+03 0.  0.
         23    2    4    4    0    0 -0.11645650337E+03  0.10472190406E+03 -0.24401078489E+02  0.18227288323E+03  0.89995538557E+02 0.  0.
         23    2    4    4    0    0  0.45786305961E+03  0.33685363052E+02 -0.58489247301E+03  0.74881108369E+03  0.88575103847E+02 0.  0.
          1    1    3    3  502    0 -0.27479911307E+03 -0.76811275036E+02 -0.14632059960E+03  0.32066219357E+03  0.00000000000E+00 0. -1.
         -1    1    3    3    0  502 -0.66607443174E+02 -0.61595992080E+02 -0.90699421243E+01  0.91175005218E+02  0.00000000000E+00 0.  1.
         11    1    5    5    0    0 -0.83344730043E+02  0.10720253780E+03  0.78073638476E+01  0.13601354001E+03  0.00000000000E+00 0. -1.
        -11    1    5    5    0    0 -0.33111773328E+02 -0.24806337377E+01 -0.32208442337E+02  0.46259343212E+02  0.00000000000E+00 0.  1.
          1    1    6    6  503    0  0.27146482196E+03  0.57715707670E+02 -0.31349575068E+03  0.41869301185E+03  0.00000000000E+00 0. -1.
         -1    1    6    6    0  503  0.18639823765E+03 -0.24030344618E+02 -0.27139672233E+03  0.33011807184E+03  0.00000000000E+00 0.  1.
<mgrwt>
<rscale>  0 0.50526109E+03</rscale>
<asrwt>0</asrwt>
<pdfrwt beam="1">  1        2 0.16212348E+00 0.50526109E+03</pdfrwt>
<pdfrwt beam="2">  1       -2 0.44479774E-01 0.50526109E+03</pdfrwt>
<totfact> 0.11553579E+02</totfact>
</mgrwt>
</event>
<event>
12    1  0.1338445E-007  0.1092876E+04  0.7818608E-02  0.9212164E-01
          2   -1    0    0  501    0  0.00000000000E+00  0.00000000000E+00  0.27258651704E+04  0.27258651704E+04  0.00000000000E+00 0. -1.
         -2   -1    0    0    0  501 -0.00000000000E+00 -0.00000000000E+00 -0.51654823741E+03  0.51654823741E+03  0.00000000000E+00 0.  1.
         23    2    1    2    0    0  0.10044875957E+03 -0.10078479996E+04  0.16533223049E+04  0.19409995052E+04  0.90315511632E+02 0.  0.
    5000000    2    1    2    0    0 -0.10044875957E+03  0.10078479996E+04  0.55599462807E+03  0.13014139026E+04  0.59891616773E+03 0.  0.
         23    2    4    4    0    0 -0.13643911742E+03  0.19803137666E+01  0.10046191951E+03  0.19290992773E+03  0.92206770593E+02 0.  0.
         23    2    4    4    0    0  0.35990357853E+02  0.10058676858E+04  0.45553270857E+03  0.11085039749E+04  0.90586459119E+02 0.  0.
          4    1    3    3  502    0  0.51008875766E+02 -0.19019729116E+03  0.29082242212E+03  0.35121872982E+03  0.00000000000E+00 0. -1.
         -4    1    3    3    0  502  0.49439883800E+02 -0.81765070841E+03  0.13624998828E+04  0.15897807753E+04  0.00000000000E+00 0.  1.
         13    1    5    5    0    0 -0.82739629825E+02  0.45133546263E+02  0.70927125697E+02  0.11795567176E+03  0.00000000000E+00 0.  1.
        -13    1    5    5    0    0 -0.53699487594E+02 -0.43153232496E+02  0.29534793809E+02  0.74954255970E+02  0.00000000000E+00 0. -1.
          2    1    6    6  503    0  0.22620025294E+02  0.50940280584E+03  0.28018681529E+03  0.58181400431E+03  0.00000000000E+00 0.  1.
         -2    1    6    6    0  503  0.13370332559E+02  0.49646487995E+03  0.17534589328E+03  0.52668997058E+03  0.00000000000E+00 0. -1.
<mgrwt>
<rscale>  0 0.10928757E+04</rscale>
<asrwt>0</asrwt>
<pdfrwt beam="1">  1        2 0.41936386E+00 0.10928757E+04</pdfrwt>
<pdfrwt beam="2">  1       -2 0.79468961E-01 0.10928757E+04</pdfrwt>
<totfact> 0.36042157E+00</totfact>
</mgrwt>
</event>
<event>
12    1  0.1338445E-007  0.5808798E+03  0.7818608E-02  0.9945888E-01
         -2   -1    0    0    0  501 -0.00000000000E+00  0.00000000000E+00  0.17262894481E+03  0.17262894481E+03  0.00000000000E+00 0.  1.
          2   -1    0    0  501    0  0.00000000000E+00 -0.00000000000E+00 -0.20839958474E+04  0.20839958474E+04  0.00000000000E+00 0. -1.
         23    2    1    2    0    0  0.19864114029E+03  0.39265658033E+03 -0.60737753883E+03  0.75563219165E+03  0.91842483030E+02 0.  0.
    5000000    2    1    2    0    0 -0.19864114029E+03 -0.39265658033E+03 -0.13039893638E+04  0.15009926006E+04  0.59912689261E+03 0.  0.
         23    2    4    4    0    0  0.18126873521E+03 -0.22452784235E+03 -0.39759909056E+03  0.49971884297E+03  0.91448230413E+02 0.  0.
         23    2    4    4    0    0 -0.37990987550E+03 -0.16812873798E+03 -0.90639027320E+03  0.10012737576E+04  0.91689826381E+02 0.  0.
          1    1    3    3  502    0  0.79679274165E+02  0.20558498935E+03 -0.37091136731E+03  0.43149648548E+03  0.00000000000E+00 0. -1.
         -1    1    3    3    0  502  0.11896186613E+03  0.18707159098E+03 -0.23646617152E+03  0.32413570618E+03  0.00000000000E+00 0.  1.
         13    1    5    5    0    0  0.10316014809E+03 -0.57574779267E+02 -0.14545362468E+03  0.18738630765E+03  0.00000000000E+00 0. -1.
        -13    1    5    5    0    0  0.78108587126E+02 -0.16695306308E+03 -0.25214546588E+03  0.31233253532E+03  0.00000000000E+00 0.  1.
          4    1    6    6  503    0 -0.16389573422E+03 -0.92826472706E+02 -0.31287622320E+03  0.36519870861E+03  0.00000000000E+00 0. -1.
         -4    1    6    6    0  503 -0.21601414128E+03 -0.75302265278E+02 -0.59351405000E+03  0.63607504898E+03  0.00000000000E+00 0.  1.
<mgrwt>
<rscale>  0 0.58087976E+03</rscale>
<asrwt>0</asrwt>
<pdfrwt beam="1">  1        2 0.32061477E+00 0.58087976E+03</pdfrwt>
<pdfrwt beam="2">  1       -2 0.26558297E-01 0.58087976E+03</pdfrwt>
<totfact> 0.80978490E+01</totfact>
</mgrwt>
</event>
<event>
12    1  0.1338445E-007  0.4532651E+03  0.7818608E-02  0.1026753E+00
          1   -1    0    0  501    0  0.00000000000E+00  0.00000000000E+00  0.71003074159E+03  0.71003074159E+03  0.00000000000E+00 0. -1.
         -1   -1    0    0    0  501 -0.00000000000E+00 -0.00000000000E+00 -0.41756224508E+03  0.41756224508E+03  0.00000000000E+00 0.  1.
         23    2    1    2    0    0 -0.72724788365E+02  0.24833627846E+03  0.37819844020E+03  0.46857672998E+03  0.97827857300E+02 0.  0.
    5000000    2    1    2    0    0  0.72724788365E+02 -0.24833627846E+03 -0.85729943691E+02  0.65901625670E+03  0.59999416773E+03 0.  0.
         23    2    4    4    0    0  0.45878203852E+02  0.18425979549E+03 -0.27458842276E+02  0.21194879399E+03  0.90065650661E+02 0.  0.
         23    2    4    4    0    0  0.26846584514E+02 -0.43259607395E+03 -0.58271101415E+02  0.44706746271E+03  0.92809981458E+02 0.  0.
          1    1    3    3  502    0 -0.55250648740E+02  0.21445161793E+03  0.24602328190E+03  0.33101296931E+03  0.00000000000E+00 0. -1.
         -1    1    3    3    0  502 -0.17474139626E+02  0.33884660527E+02  0.13217515830E+03  0.13756376066E+03  0.00000000000E+00 0.  1.
         13    1    5    5    0    0  0.54273039040E+02  0.48743191842E+02  0.21561128447E+01  0.72980205126E+02  0.00000000000E+00 0.  1.
        -13    1    5    5    0    0 -0.83948351878E+01  0.13551660365E+03 -0.29614955121E+02  0.13896858886E+03  0.00000000000E+00 0. -1.
          1    1    6    6  503    0 -0.13245259186E+02 -0.28422806620E+03 -0.69715144063E+02  0.29295261019E+03  0.00000000000E+00 0. -1.
         -1    1    6    6    0  503  0.40091843700E+02 -0.14836800775E+03  0.11444042648E+02  0.15411485252E+03  0.00000000000E+00 0.  1.
<mgrwt>
<rscale>  0 0.45326509E+03</rscale>
<asrwt>0</asrwt>
<pdfrwt beam="1">  1        1 0.10923550E+00 0.45326509E+03</pdfrwt>
<pdfrwt beam="2">  1       -1 0.64240345E-01 0.45326509E+03</pdfrwt>
<totfact> 0.68995494E+01</totfact>
</mgrwt>
</event>
<event>
12    1  0.1338445E-007  0.1179596E+04  0.7818608E-02  0.9130906E-01
         -1   -1    0    0    0  501 -0.00000000000E+00  0.00000000000E+00  0.11373083187E+04  0.11373083187E+04  0.00000000000E+00 0.  1.
          1   -1    0    0  501    0  0.00000000000E+00 -0.00000000000E+00 -0.16803438376E+04  0.16803438376E+04  0.00000000000E+00 0. -1.
         23    2    1    2    0    0  0.11444548673E+04  0.24059841618E+03  0.35570185546E+03  0.12252928790E+04  0.84583025447E+02 0.  0.
    5000000    2    1    2    0    0 -0.11444548673E+04 -0.24059841618E+03 -0.89873737433E+03  0.15923592773E+04  0.60017885561E+03 0.  0.
         23    2    4    4    0    0 -0.89752182428E+03 -0.23039691762E+03 -0.94351206785E+03  0.13258556345E+04  0.95131365837E+02 0.  0.
         23    2    4    4    0    0 -0.24693304306E+03 -0.10201498552E+02  0.44774693521E+02  0.26650364275E+03  0.89103423563E+02 0.  0.
          4    1    3    3  502    0  0.83714088868E+03  0.16124279560E+03  0.22252920437E+03  0.88109213675E+03  0.00000000000E+00 0. -1.
         -4    1    3    3    0  502  0.30731397865E+03  0.79355620578E+02  0.13317265108E+03  0.34420074228E+03  0.00000000000E+00 0.  1.
         13    1    5    5    0    0 -0.59309137555E+03 -0.18713523842E+03 -0.58886658232E+03  0.85646998136E+03  0.00000000000E+00 0. -1.
        -13    1    5    5    0    0 -0.30443044873E+03 -0.43261679201E+02 -0.35464548553E+03  0.46938565318E+03  0.00000000000E+00 0.  1.
          2    1    6    6  503    0 -0.18259418598E+03 -0.43090055072E+02  0.49691861649E+02  0.19407903213E+03  0.00000000000E+00 0. -1.
         -2    1    6    6    0  503 -0.64338857084E+02  0.32888556520E+02 -0.49171681273E+01  0.72424610618E+02  0.00000000000E+00 0.  1.
<mgrwt>
<rscale>  0 0.11795963E+04</rscale>
<asrwt>0</asrwt>
<pdfrwt beam="1">  1        1 0.25851444E+00 0.11795963E+04</pdfrwt>
<pdfrwt beam="2">  1       -1 0.17497051E+00 0.11795963E+04</pdfrwt>
<totfact> 0.10935786E+00</totfact>
</mgrwt>
</event>
<event>
12    1  0.1338445E-007  0.4725283E+03  0.7818608E-02  0.1021209E+00
          2   -1    0    0  501    0  0.00000000000E+00  0.00000000000E+00  0.87796652016E+03  0.87796652016E+03  0.00000000000E+00 0. -1.
         -2   -1    0    0    0  501 -0.00000000000E+00 -0.00000000000E+00 -0.48977349916E+03  0.48977349916E+03  0.00000000000E+00 0.  1.
         23    2    1    2    0    0  0.26426228570E+03 -0.37671333825E+03  0.39249846164E+03  0.61150819671E+03  0.90220493199E+02 0.  0.
    5000000    2    1    2    0    0 -0.26426228570E+03  0.37671333825E+03 -0.43054406370E+01  0.75623182262E+03  0.60010043981E+03 0.  0.
         23    2    4    4    0    0 -0.25741577958E+02  0.56154467091E+02  0.25087676045E+03  0.27401962101E+03  0.91277876577E+02 0.  0.
         23    2    4    4    0    0 -0.23852070774E+03  0.32055887116E+03 -0.25518220109E+03  0.48221220161E+03  0.88093891536E+02 0.  0.
          1    1    3    3  502    0  0.12012382165E+03 -0.13721561009E+03  0.20778759222E+03  0.27646616368E+03  0.00000000000E+00 0. -1.
         -1    1    3    3    0  502  0.14413846405E+03 -0.23949772816E+03  0.18471086941E+03  0.33504203303E+03  0.00000000000E+00 0.  1.
         13    1    5    5    0    0  0.19577617259E+01 -0.76147796734E+01  0.15702120981E+03  0.15721793164E+03  0.00000000000E+00 0.  1.
        -13    1    5    5    0    0 -0.27699339684E+02  0.63769246765E+02  0.93855550644E+02  0.11680168936E+03  0.00000000000E+00 0. -1.
          3    1    6    6  503    0 -0.10538768511E+03  0.85818936432E+02 -0.56926494628E+02  0.14735019449E+03  0.00000000000E+00 0. -1.
         -3    1    6    6    0  503 -0.13313302263E+03  0.23473993473E+03 -0.19825570646E+03  0.33486200712E+03  0.00000000000E+00 0.  1.
<mgrwt>
<rscale>  0 0.47252828E+03</rscale>
<asrwt>0</asrwt>
<pdfrwt beam="1">  1        2 0.13507177E+00 0.47252828E+03</pdfrwt>
<pdfrwt beam="2">  1       -2 0.75349770E-01 0.47252828E+03</pdfrwt>
<totfact> 0.50070974E+01</totfact>
</mgrwt>
</event>
<event>
12    1  0.1338445E-007  0.2871191E+03  0.7818608E-02  0.1091863E+00
         -1   -1    0    0    0  501 -0.00000000000E+00  0.00000000000E+00  0.29334612680E+03  0.29334612680E+03  0.00000000000E+00 0.  1.
          1   -1    0    0  501    0  0.00000000000E+00 -0.00000000000E+00 -0.65209028625E+03  0.65209028625E+03  0.00000000000E+00 0. -1.
         23    2    1    2    0    0 -0.36612435463E+02 -0.18850648284E+03 -0.21003955421E+03  0.29865863859E+03  0.90582578714E+02 0.  0.
    5000000    2    1    2    0    0  0.36612435463E+02  0.18850648284E+03 -0.14870460524E+03  0.64677777447E+03  0.59944413036E+03 0.  0.
         23    2    4    4    0    0  0.15355485763E+03  0.12130683686E+03 -0.33423614131E+03  0.39795014486E+03  0.91411578416E+02 0.  0.
         23    2    4    4    0    0 -0.11694242216E+03  0.67199645972E+02  0.18553153606E+03  0.24882762961E+03  0.96446440379E+02 0.  0.
          3    1    3    3  502    0  0.25376042798E+01 -0.11114450383E+03 -0.62523920405E+02  0.12754913089E+03  0.00000000000E+00 0. -1.
         -3    1    3    3    0  502 -0.39150039743E+02 -0.77361979006E+02 -0.14751563381E+03  0.17110950770E+03  0.00000000000E+00 0.  1.
         13    1    5    5    0    0  0.88341674958E+01  0.47985690360E+02 -0.11743916686E+03  0.12717164349E+03  0.00000000000E+00 0. -1.
        -13    1    5    5    0    0  0.14472069013E+03  0.73321146503E+02 -0.21679697445E+03  0.27077850137E+03  0.00000000000E+00 0.  1.
          2    1    6    6  503    0 -0.10580246931E+02 -0.23358210579E+02  0.22298091766E+02  0.33981649797E+02  0.00000000000E+00 0. -1.
         -2    1    6    6    0  503 -0.10636217523E+03  0.90557856551E+02  0.16323344430E+03  0.21484597981E+03  0.00000000000E+00 0.  1.
<mgrwt>
<rscale>  0 0.28711910E+03</rscale>
<asrwt>0</asrwt>
<pdfrwt beam="1">  1        1 0.10032158E+00 0.28711910E+03</pdfrwt>
<pdfrwt beam="2">  1       -1 0.45130174E-01 0.28711910E+03</pdfrwt>
<totfact> 0.15648938E+02</totfact>
</mgrwt>
</event>
<event>
12    1  0.1338445E-007  0.1220956E+04  0.7818608E-02  0.9094709E-01
         -2   -1    0    0    0  501 -0.00000000000E+00  0.00000000000E+00  0.50079413879E+03  0.50079413879E+03  0.00000000000E+00 0.  1.
          2   -1    0    0  501    0  0.00000000000E+00 -0.00000000000E+00 -0.46613614097E+04  0.46613614097E+04  0.00000000000E+00 0. -1.
         23    2    1    2    0    0 -0.97420757384E+03 -0.71589966387E+03 -0.34052819231E+04  0.36155185724E+04  0.12015342546E+03 0.  0.
    5000000    2    1    2    0    0  0.97420757384E+03  0.71589966387E+03 -0.75528534781E+03  0.15466369761E+04  0.60003104393E+03 0.  0.
         23    2    4    4    0    0  0.55948513029E+03  0.49139817113E+03 -0.75752592447E+03  0.10660732416E+04  0.90392790671E+02 0.  0.
         23    2    4    4    0    0  0.41472244355E+03  0.22450149273E+03  0.22405766616E+01  0.48056373453E+03  0.92416758991E+02 0.  0.
          3    1    3    3  502    0 -0.58683906234E+03 -0.37492165431E+03 -0.18407473694E+04  0.19680694118E+04  0.00000000000E+00 0. -1.
         -3    1    3    3    0  502 -0.38736851149E+03 -0.34097800955E+03 -0.15645345538E+04  0.16474491606E+04  0.00000000000E+00 0.  1.
         13    1    5    5    0    0  0.29004042313E+03  0.31312157086E+03 -0.44377560453E+03  0.61571531763E+03  0.00000000000E+00 0. -1.
        -13    1    5    5    0    0  0.26944470716E+03  0.17827660027E+03 -0.31375031994E+03  0.45035792397E+03  0.00000000000E+00 0.  1.
          1    1    6    6  503    0  0.15387488290E+03  0.13223631942E+03 -0.14246062431E+02  0.20338848064E+03  0.00000000000E+00 0. -1.
         -1    1    6    6    0  503  0.26084756065E+03  0.92265173309E+02  0.16486639093E+02  0.27717525390E+03  0.00000000000E+00 0.  1.
<mgrwt>
<rscale>  0 0.12209562E+04</rscale>
<asrwt>0</asrwt>
<pdfrwt beam="1">  1        2 0.71713252E+00 0.12209562E+04</pdfrwt>
<pdfrwt beam="2">  1       -2 0.77045252E-01 0.12209562E+04</pdfrwt>
<totfact> 0.13142123E-01</totfact>
</mgrwt>
</event>
<event>
12    1  0.1338445E-007  0.6016667E+03  0.7818608E-02  0.9901954E-01
          1   -1    0    0  501    0  0.00000000000E+00  0.00000000000E+00  0.34265357563E+03  0.34265357563E+03  0.00000000000E+00 0. -1.
         -1   -1    0    0    0  501 -0.00000000000E+00 -0.00000000000E+00 -0.14505101341E+04  0.14505101341E+04  0.00000000000E+00 0.  1.
         23    2    1    2    0    0 -0.48172516244E+03 -0.54373910785E+02 -0.84451511627E+03  0.97810641250E+03  0.92036505089E+02 0.  0.
    5000000    2    1    2    0    0  0.48172516244E+03  0.54373910785E+02 -0.26334144221E+03  0.81505729723E+03  0.59996168902E+03 0.  0.
         23    2    4    4    0    0  0.55105501708E+03  0.16841961067E+03 -0.28924401317E+03  0.65130415943E+03  0.92239968733E+02 0.  0.
         23    2    4    4    0    0 -0.69329854645E+02 -0.11404569989E+03  0.25902570959E+02  0.16375313780E+03  0.91274840725E+02 0.  0.
          3    1    3    3  502    0 -0.26353748513E+03 -0.36097532315E+02 -0.37188797722E+03  0.45722609890E+03  0.00000000000E+00 0. -1.
         -3    1    3    3    0  502 -0.21818767730E+03 -0.18276378470E+02 -0.47262713904E+03  0.52088031360E+03  0.00000000000E+00 0.  1.
         13    1    5    5    0    0  0.29033701533E+03  0.13328302248E+03 -0.17764069622E+03  0.36553544768E+03  0.00000000000E+00 0.  1.
        -13    1    5    5    0    0  0.26071800175E+03  0.35136588187E+02 -0.11160331695E+03  0.28576871176E+03  0.00000000000E+00 0. -1.
          4    1    6    6  503    0 -0.17202415425E+02 -0.52173538852E+02 -0.32629642352E+02  0.63895968674E+02  0.00000000000E+00 0. -1.
         -4    1    6    6    0  503 -0.52127439220E+02 -0.61872161033E+02  0.58532213311E+02  0.99857169125E+02  0.00000000000E+00 0.  1.
<mgrwt>
<rscale>  0 0.60166670E+03</rscale>
<asrwt>0</asrwt>
<pdfrwt beam="1">  1        1 0.52715935E-01 0.60166670E+03</pdfrwt>
<pdfrwt beam="2">  1       -1 0.22315540E+00 0.60166670E+03</pdfrwt>
<totfact> 0.81545278E+00</totfact>
</mgrwt>
</event>
<event>
12    1  0.1338445E-007  0.2827128E+03  0.7818608E-02  0.1094216E+00
         -1   -1    0    0    0  501 -0.00000000000E+00  0.00000000000E+00  0.29679007994E+03  0.29679007994E+03  0.00000000000E+00 0.  1.
          1   -1    0    0  501    0  0.00000000000E+00 -0.00000000000E+00 -0.69102874117E+03  0.69102874117E+03  0.00000000000E+00 0. -1.
         23    2    1    2    0    0 -0.20413146350E+03  0.12390287882E+02  0.28242115331E+02  0.22605606496E+03  0.92089922375E+02 0.  0.
    5000000    2    1    2    0    0  0.20413146350E+03 -0.12390287882E+02 -0.42248077656E+03  0.76176275616E+03  0.59997442986E+03 0.  0.
         23    2    4    4    0    0 -0.32381924712E+02 -0.76734750793E+02  0.11276052467E+03  0.16602642229E+03  0.88955190668E+02 0.  0.
         23    2    4    4    0    0  0.23651338821E+03  0.64344462911E+02 -0.53524130123E+03  0.59573633387E+03  0.91322156379E+02 0.  0.
          3    1    3    3  502    0 -0.58975223660E+02 -0.35906753215E+02 -0.59477085348E+01  0.69301855451E+02  0.00000000000E+00 0. -1.
         -3    1    3    3    0  502 -0.14515623984E+03  0.48297041096E+02  0.34189823866E+02  0.15675420951E+03  0.00000000000E+00 0.  1.
         13    1    5    5    0    0 -0.15890465009E+02 -0.47735534969E+02  0.12153027603E+03  0.13153249093E+03  0.00000000000E+00 0.  1.
        -13    1    5    5    0    0 -0.16491459703E+02 -0.28999215824E+02 -0.87697513665E+01  0.34493931358E+02  0.00000000000E+00 0. -1.
          4    1    6    6  503    0  0.57101219501E+02  0.56218831389E+02 -0.19920405395E+03  0.21471693315E+03  0.00000000000E+00 0. -1.
         -4    1    6    6    0  503  0.17941216871E+03  0.81256315218E+01 -0.33603724727E+03  0.38101940072E+03  0.00000000000E+00 0.  1.
<mgrwt>
<rscale>  0 0.28271282E+03</rscale>
<asrwt>0</asrwt>
<pdfrwt beam="1">  1        1 0.10631211E+00 0.28271282E+03</pdfrwt>
<pdfrwt beam="2">  1       -1 0.45660012E-01 0.28271282E+03</pdfrwt>
<totfact> 0.14096034E+02</totfact>
</mgrwt>
</event>
<event>
12    1  0.1338445E-007  0.9577348E+03  0.7818608E-02  0.9356155E-01
         -2   -1    0    0    0  501 -0.00000000000E+00  0.00000000000E+00  0.60599243137E+03  0.60599243137E+03  0.00000000000E+00 0.  1.
          2   -1    0    0  501    0  0.00000000000E+00 -0.00000000000E+00 -0.15718572345E+04  0.15718572345E+04  0.00000000000E+00 0. -1.
         23    2    1    2    0    0 -0.86782062791E+03  0.11200426947E+03 -0.32209335299E+03  0.93685118992E+03  0.91040789843E+02 0.  0.
    5000000    2    1    2    0    0  0.86782062791E+03 -0.11200426947E+03 -0.64377145013E+03  0.12409984759E+04  0.59998161528E+03 0.  0.
         23    2    4    4    0    0  0.64184477117E+03 -0.32650938830E+03 -0.36503783667E+03  0.81263587966E+03  0.92473562674E+02 0.  0.
         23    2    4    4    0    0  0.22597585674E+03  0.21450511883E+03 -0.27873361347E+03  0.42836259628E+03  0.93405314508E+02 0.  0.
          1    1    3    3  502    0 -0.76645254184E+03  0.69931203189E+02 -0.27301942767E+03  0.81662689153E+03  0.00000000000E+00 0. -1.
         -1    1    3    3    0  502 -0.10136808606E+03  0.42073066277E+02 -0.49073925322E+02  0.12022429840E+03  0.00000000000E+00 0.  1.
         11    1    5    5    0    0  0.46104664527E+03 -0.23222229591E+03 -0.30705758574E+03  0.60064595628E+03  0.00000000000E+00 0.  1.
        -11    1    5    5    0    0  0.18079812590E+03 -0.94287092388E+02 -0.57980250929E+02  0.21198992339E+03  0.00000000000E+00 0. -1.
          1    1    6    6  503    0  0.46720800280E+02  0.18277578291E+02 -0.87761726577E+02  0.10108918685E+03  0.00000000000E+00 0. -1.
         -1    1    6    6    0  503  0.17925505646E+03  0.19622754054E+03 -0.19097188689E+03  0.32727340942E+03  0.00000000000E+00 0.  1.
<mgrwt>
<rscale>  0 0.95773484E+03</rscale>
<asrwt>0</asrwt>
<pdfrwt beam="1">  1        2 0.24182419E+00 0.95773484E+03</pdfrwt>
<pdfrwt beam="2">  1       -2 0.93229606E-01 0.95773484E+03</pdfrwt>
<totfact> 0.11271919E+01</totfact>
</mgrwt>
</event>
<event>
12    1  0.1338445E-007  0.7542868E+03  0.7818608E-02  0.9628649E-01
         -2   -1    0    0    0  501 -0.00000000000E+00  0.00000000000E+00  0.11447030113E+04  0.11447030113E+04  0.00000000000E+00 0.  1.
          2   -1    0    0  501    0  0.00000000000E+00 -0.00000000000E+00 -0.83056027047E+03  0.83056027047E+03  0.00000000000E+00 0. -1.
         23    2    1    2    0    0  0.66562424612E+03 -0.21514640668E+03 -0.39820770833E+03  0.81004873477E+03  0.90917327275E+02 0.  0.
    5000000    2    1    2    0    0 -0.66562424612E+03  0.21514640668E+03  0.71235044913E+03  0.11652145470E+04  0.60078129529E+03 0.  0.
         23    2    4    4    0    0 -0.25920727602E+02 -0.71634988517E+02  0.35220714956E+03  0.37195717858E+03  0.92188994993E+02 0.  0.
         23    2    4    4    0    0 -0.63970351852E+03  0.28678139520E+03  0.36014329957E+03  0.79325736839E+03  0.89943849393E+02 0.  0.
          3    1    3    3  502    0  0.22522987765E+03 -0.91046472810E+02 -0.93405966027E+02  0.26027414871E+03  0.00000000000E+00 0. -1.
         -3    1    3    3    0  502  0.44039436847E+03 -0.12409993387E+03 -0.30480174230E+03  0.54977458606E+03  0.00000000000E+00 0.  1.
         13    1    5    5    0    0  0.26083808614E+02 -0.15157783282E+02  0.38067645146E+02  0.48572307674E+02  0.00000000000E+00 0. -1.
        -13    1    5    5    0    0 -0.52004536216E+02 -0.56477205235E+02  0.31413950441E+03  0.32338487091E+03  0.00000000000E+00 0.  1.
          2    1    6    6  503    0 -0.54815334737E+03  0.24104004632E+03  0.34114485212E+03  0.68916776353E+03  0.00000000000E+00 0.  1.
         -2    1    6    6    0  503 -0.91550171143E+02  0.45741348875E+02  0.18998447453E+02  0.10408960485E+03  0.00000000000E+00 0. -1.
<mgrwt>
<rscale>  0 0.75428680E+03</rscale>
<asrwt>0</asrwt>
<pdfrwt beam="1">  1        2 0.12777850E+00 0.75428680E+03</pdfrwt>
<pdfrwt beam="2">  1       -2 0.17610816E+00 0.75428680E+03</pdfrwt>
<totfact> 0.64375869E+00</totfact>
</mgrwt>
</event>
<event>
12    1  0.1338445E-007  0.7502307E+03  0.7818608E-02  0.9634989E-01
         -1   -1    0    0    0  501 -0.00000000000E+00  0.00000000000E+00  0.36863589834E+03  0.36863589834E+03  0.00000000000E+00 0.  1.
          1   -1    0    0  501    0  0.00000000000E+00 -0.00000000000E+00 -0.17320640167E+04  0.17320640167E+04  0.00000000000E+00 0. -1.
         23    2    1    2    0    0 -0.65062161628E+03 -0.11937354783E+03 -0.81086442441E+03  0.10505133919E+04  0.92297021776E+02 0.  0.
    5000000    2    1    2    0    0  0.65062161628E+03  0.11937354783E+03 -0.55256369392E+03  0.10501865231E+04  0.60000547170E+03 0.  0.
         23    2    4    4    0    0  0.72090902827E+02  0.23057770918E+03 -0.34402853355E+02  0.26033495128E+03  0.90705855906E+02 0.  0.
         23    2    4    4    0    0  0.57853071346E+03 -0.11120416135E+03 -0.51816084057E+03  0.78985157187E+03  0.91163024195E+02 0.  0.
          1    1    3    3  502    0 -0.12921979208E+03 -0.22999257661E+02 -0.22375942534E+03  0.25941280028E+03  0.00000000000E+00 0. -1.
         -1    1    3    3    0  502 -0.52140182421E+03 -0.96374290172E+02 -0.58710499907E+03  0.79110059160E+03  0.00000000000E+00 0.  1.
         13    1    5    5    0    0  0.22202030948E+02  0.21044417557E+02  0.22002025902E+02  0.37681385754E+02  0.00000000000E+00 0.  1.
        -13    1    5    5    0    0  0.49888871879E+02  0.20953329162E+03 -0.56404879257E+02  0.22265356552E+03  0.00000000000E+00 0. -1.
          1    1    6    6  503    0  0.27731447347E+03 -0.18917373208E+02 -0.28343882451E+03  0.39698709229E+03  0.00000000000E+00 0. -1.
         -1    1    6    6    0  503  0.30121623998E+03 -0.92286788139E+02 -0.23472201605E+03  0.39286447958E+03  0.00000000000E+00 0.  1.
<mgrwt>
<rscale>  0 0.75023068E+03</rscale>
<asrwt>0</asrwt>
<pdfrwt beam="1">  1        1 0.26647139E+00 0.75023068E+03</pdfrwt>
<pdfrwt beam="2">  1       -1 0.56713214E-01 0.75023068E+03</pdfrwt>
<totfact> 0.14824574E+01</totfact>
</mgrwt>
</event>
<event>
12    1  0.1338445E-007  0.9141853E+03  0.7818608E-02  0.9408021E-01
          2   -1    0    0  501    0  0.00000000000E+00  0.00000000000E+00  0.93001645068E+03  0.93001645068E+03  0.00000000000E+00 0.  1.
         -2   -1    0    0    0  501 -0.00000000000E+00 -0.00000000000E+00 -0.12626815829E+04  0.12626815829E+04  0.00000000000E+00 0. -1.
         23    2    1    2    0    0 -0.44536938822E+03 -0.73310116855E+03  0.36565554582E+03  0.93522126939E+03  0.71719099451E+02 0.  0.
    5000000    2    1    2    0    0  0.44536938822E+03  0.73310116855E+03 -0.69832067807E+03  0.12574767642E+04  0.59816789270E+03 0.  0.
         23    2    4    4    0    0  0.24124203232E+03  0.70938943754E+03 -0.32577989266E+03  0.82218595075E+03  0.91793828307E+02 0.  0.
         23    2    4    4    0    0  0.20412735591E+03  0.23711731018E+02 -0.37254078541E+03  0.43529081347E+03  0.91984954662E+02 0.  0.
          2    1    3    3  502    0 -0.29139949558E+03 -0.47365682372E+03  0.19961496521E+03  0.59085580899E+03  0.00000000000E+00 0. -1.
         -2    1    3    3    0  502 -0.15396989264E+03 -0.25944434483E+03  0.16604058060E+03  0.34436546039E+03  0.00000000000E+00 0.  1.
         11    1    5    5    0    0  0.20677222546E+03  0.55546085767E+03 -0.29261859804E+03  0.66099709647E+03  0.00000000000E+00 0. -1.
        -11    1    5    5    0    0  0.34469806857E+02  0.15392857986E+03 -0.33161294613E+02  0.16118885428E+03  0.00000000000E+00 0.  1.
          2    1    6    6  503    0  0.17914343614E+03  0.47808191934E+02 -0.34213632037E+03  0.38914683044E+03  0.00000000000E+00 0. -1.
         -2    1    6    6    0  503  0.24983919770E+02 -0.24096460917E+02 -0.30404465043E+02  0.46143983036E+02  0.00000000000E+00 0.  1.
<mgrwt>
<rscale>  0 0.91418535E+03</rscale>
<asrwt>0</asrwt>
<pdfrwt beam="1">  1        2 0.14307945E+00 0.91418535E+03</pdfrwt>
<pdfrwt beam="2">  1       -2 0.19425870E+00 0.91418535E+03</pdfrwt>
<totfact> 0.40687101E+00</totfact>
</mgrwt>
</event>
<event>
12    1  0.1338445E-007  0.1802948E+03  0.7818608E-02  0.1167518E+00
          1   -1    0    0  501    0  0.00000000000E+00  0.00000000000E+00  0.10229212309E+04  0.10229212309E+04  0.00000000000E+00 0. -1.
         -1   -1    0    0    0  501 -0.00000000000E+00 -0.00000000000E+00 -0.15808778325E+03  0.15808778325E+03  0.00000000000E+00 0.  1.
         23    2    1    2    0    0  0.10895266862E+03  0.25712854301E+02  0.38053020621E+02  0.15349609302E+03  0.97883519137E+02 0.  0.
    5000000    2    1    2    0    0 -0.10895266862E+03 -0.25712854301E+02  0.82678042701E+03  0.10275129211E+04  0.59973752066E+03 0.  0.
         23    2    4    4    0    0 -0.14291753652E+03 -0.12861978188E+02  0.89135478967E+03  0.90768267434E+03  0.93720987486E+02 0.  0.
         23    2    4    4    0    0  0.33964867899E+02 -0.12850876113E+02 -0.64574362655E+02  0.11983024678E+03  0.94184300507E+02 0.  0.
          4    1    3    3  502    0 -0.80164447188E+01  0.12115610795E+02  0.32510717833E+02  0.35608962143E+02  0.00000000000E+00 0. -1.
         -4    1    3    3    0  502  0.11696911334E+03  0.13597243506E+02  0.55423027876E+01  0.11788713088E+03  0.00000000000E+00 0.  1.
         13    1    5    5    0    0 -0.91825170902E+02 -0.14419921684E+02  0.77552490049E+03  0.78107532763E+03  0.00000000000E+00 0.  1.
        -13    1    5    5    0    0 -0.51092365621E+02  0.15579434957E+01  0.11582988918E+03  0.12660734671E+03  0.00000000000E+00 0. -1.
          1    1    6    6  503    0 -0.22975826337E+02 -0.14685772679E+02 -0.55909579726E+02  0.62204835987E+02  0.00000000000E+00 0. -1.
         -1    1    6    6    0  503  0.56940694236E+02  0.18348965655E+01 -0.86647829291E+01  0.57625410790E+02  0.00000000000E+00 0.  1.
<mgrwt>
<rscale>  0 0.18029478E+03</rscale>
<asrwt>0</asrwt>
<pdfrwt beam="1">  1        1 0.15737249E+00 0.18029478E+03</pdfrwt>
<pdfrwt beam="2">  1       -1 0.24321198E-01 0.18029478E+03</pdfrwt>
<totfact> 0.23004658E+02</totfact>
</mgrwt>
</event>
<event>
12    1  0.1338445E-007  0.9567453E+03  0.7818608E-02  0.9357301E-01
         -1   -1    0    0    0  501 -0.00000000000E+00  0.00000000000E+00  0.15212739549E+04  0.15212739549E+04  0.00000000000E+00 0.  1.
          1   -1    0    0  501    0  0.00000000000E+00 -0.00000000000E+00 -0.63912189405E+03  0.63912189405E+03  0.00000000000E+00 0. -1.
         23    2    1    2    0    0 -0.85926020054E+03  0.14124876512E+03  0.18818116767E+03  0.89554049540E+03  0.91111586323E+02 0.  0.
    5000000    2    1    2    0    0  0.85926020054E+03 -0.14124876512E+03  0.69397089323E+03  0.12648553536E+04  0.59998679902E+03 0.  0.
         23    2    4    4    0    0  0.62062953137E+03  0.17406176559E+03  0.44753073711E+03  0.78985810513E+03  0.90075258108E+02 0.  0.
         23    2    4    4    0    0  0.23863066917E+03 -0.31531053071E+03  0.24644015611E+03  0.47499724847E+03  0.92327181617E+02 0.  0.
          3    1    3    3  502    0 -0.44219462410E+03  0.49590404828E+02  0.13634441225E+03  0.46538703525E+03  0.00000000000E+00 0. -1.
         -3    1    3    3    0  502 -0.41706557644E+03  0.91658360292E+02  0.51836755415E+02  0.43015346015E+03  0.00000000000E+00 0.  1.
         11    1    5    5    0    0  0.38164014824E+03  0.12420941263E+03  0.22827997308E+03  0.46172386450E+03  0.00000000000E+00 0.  1.
        -11    1    5    5    0    0  0.23898938313E+03  0.49852352954E+02  0.21925076404E+03  0.32813424063E+03  0.00000000000E+00 0. -1.
          1    1    6    6  503    0  0.17861531320E+02 -0.34259823437E+02  0.61399044284E+02  0.72543865640E+02  0.00000000000E+00 0. -1.
         -1    1    6    6    0  503  0.22076913785E+03 -0.28105070727E+03  0.18504111183E+03  0.40245338283E+03  0.00000000000E+00 0.  1.
<mgrwt>
<rscale>  0 0.95674534E+03</rscale>
<asrwt>0</asrwt>
<pdfrwt beam="1">  1        1 0.98326445E-01 0.95674534E+03</pdfrwt>
<pdfrwt beam="2">  1       -1 0.23404215E+00 0.95674534E+03</pdfrwt>
<totfact> 0.28046529E+00</totfact>
</mgrwt>
</event>
<event>
12    1  0.1338445E-007  0.1009739E+04  0.7818608E-02  0.9297928E-01
         -1   -1    0    0    0  501 -0.00000000000E+00  0.00000000000E+00  0.36717421240E+03  0.36717421240E+03  0.00000000000E+00 0.  1.
          1   -1    0    0  501    0  0.00000000000E+00 -0.00000000000E+00 -0.36683750326E+04  0.36683750326E+04  0.00000000000E+00 0. -1.
         23    2    1    2    0    0 -0.84171825244E+03 -0.44388095953E+03 -0.65122316900E+03  0.11566692047E+04  0.90951143097E+02 0.  0.
    5000000    2    1    2    0    0  0.84171825244E+03  0.44388095953E+03 -0.26499776512E+04  0.28788800404E+04  0.60004067537E+03 0.  0.
         23    2    4    4    0    0  0.47833545264E+03  0.49661757743E+03 -0.12624263159E+04  0.14406242536E+04  0.79020336850E+02 0.  0.
         23    2    4    4    0    0  0.36338279981E+03 -0.52736617901E+02 -0.13875513354E+04  0.14382557868E+04  0.91939054881E+02 0.  0.
          3    1    3    3  502    0 -0.37756302806E+03 -0.23207105288E+03 -0.26079483348E+03  0.51422247998E+03  0.00000000000E+00 0. -1.
         -3    1    3    3    0  502 -0.46415522438E+03 -0.21180990666E+03 -0.39042833552E+03  0.64244672468E+03  0.00000000000E+00 0.  1.
         13    1    5    5    0    0  0.27418517723E+03  0.23078862355E+03 -0.62585816820E+03  0.72120686829E+03  0.00000000000E+00 0. -1.
        -13    1    5    5    0    0  0.20415027540E+03  0.26582895389E+03 -0.63656814766E+03  0.71941738531E+03  0.00000000000E+00 0.  1.
          4    1    6    6  503    0  0.26776860155E+03 -0.10412937464E+02 -0.87358518126E+03  0.91376119537E+03  0.00000000000E+00 0.  1.
         -4    1    6    6    0  503  0.95614198256E+02 -0.42323680437E+02 -0.51396615412E+03  0.52449459140E+03  0.00000000000E+00 0. -1.
<mgrwt>
<rscale>  0 0.10097387E+04</rscale>
<asrwt>0</asrwt>
<pdfrwt beam="1">  1        1 0.56436537E+00 0.10097387E+04</pdfrwt>
<pdfrwt beam="2">  1       -1 0.56488342E-01 0.10097387E+04</pdfrwt>
<totfact> 0.60549121E-01</totfact>
</mgrwt>
</event>
<event>
12    1  0.1338445E-007  0.8471634E+03  0.7818608E-02  0.9494152E-01
         -2   -1    0    0    0  501 -0.00000000000E+00  0.00000000000E+00  0.42128688754E+03  0.42128688754E+03  0.00000000000E+00 0. -1.
          2   -1    0    0  501    0  0.00000000000E+00 -0.00000000000E+00 -0.18129776038E+04  0.18129776038E+04  0.00000000000E+00 0.  1.
         23    2    1    2    0    0 -0.65292353598E+03 -0.38760146765E+03 -0.76408928352E+03  0.10808290828E+04  0.88402667269E+02 0.  0.
    5000000    2    1    2    0    0  0.65292353598E+03  0.38760146765E+03 -0.62760143273E+03  0.11534354085E+04  0.59998803454E+03 0.  0.
         23    2    4    4    0    0  0.69956419248E+03  0.20755227039E+03 -0.58891583169E+03  0.94257221842E+03  0.95668833908E+02 0.  0.
         23    2    4    4    0    0 -0.46640656499E+02  0.18004919726E+03 -0.38685601037E+02  0.21086319005E+03  0.91507622188E+02 0.  0.
          1    1    3    3  502    0 -0.20986046071E+03 -0.16735623926E+03 -0.29833779731E+03  0.40131653977E+03  0.00000000000E+00 0. -1.
         -1    1    3    3    0  502 -0.44306307527E+03 -0.22024522839E+03 -0.46575148621E+03  0.67951254308E+03  0.00000000000E+00 0.  1.
         13    1    5    5    0    0  0.18680142801E+03  0.50969865958E+02 -0.21251698787E+03  0.28749986240E+03  0.00000000000E+00 0. -1.
        -13    1    5    5    0    0  0.51276276446E+03  0.15658240443E+03 -0.37639884382E+03  0.65507235602E+03  0.00000000000E+00 0.  1.
          2    1    6    6  503    0  0.17859377889E+02  0.82478400313E+02  0.83397372698E+01  0.84800914585E+02  0.00000000000E+00 0. -1.
         -2    1    6    6    0  503 -0.64500034388E+02  0.97570796948E+02 -0.47025338307E+02  0.12606227547E+03  0.00000000000E+00 0.  1.
<mgrwt>
<rscale>  0 0.84716344E+03</rscale>
<asrwt>0</asrwt>
<pdfrwt beam="1">  1        2 0.27891963E+00 0.84716344E+03</pdfrwt>
<pdfrwt beam="2">  1       -2 0.64813367E-01 0.84716344E+03</pdfrwt>
<totfact> 0.18972313E+01</totfact>
</mgrwt>
</event>
<event>
12    1  0.1338445E-007  0.6680602E+03  0.7818608E-02  0.9773468E-01
         -2   -1    0    0    0  501 -0.00000000000E+00  0.00000000000E+00  0.29695454595E+03  0.29695454595E+03  0.00000000000E+00 0.  1.
          2   -1    0    0  501    0  0.00000000000E+00 -0.00000000000E+00 -0.18637046883E+04  0.18637046883E+04  0.00000000000E+00 0. -1.
         23    2    1    2    0    0  0.59307919467E+03  0.16698880381E+03 -0.56084175140E+03  0.83723684152E+03  0.82424916911E+02 0.  0.
    5000000    2    1    2    0    0 -0.59307919467E+03 -0.16698880381E+03 -0.10059083910E+04  0.13234223927E+04  0.59997245510E+03 0.  0.
         23    2    4    4    0    0 -0.19477702862E+03  0.10733905974E+03 -0.70730082203E+03  0.74706902875E+03  0.91530957830E+02 0.  0.
         23    2    4    4    0    0 -0.39830216605E+03 -0.27432786356E+03 -0.29860756892E+03  0.57635336400E+03  0.95479462568E+02 0.  0.
          4    1    3    3  502    0  0.45216913448E+03  0.15271706962E+03 -0.39814268027E+03  0.62152797474E+03  0.00000000000E+00 0. -1.
         -4    1    3    3    0  502  0.14091006020E+03  0.14271734188E+02 -0.16269907113E+03  0.21570886678E+03  0.00000000000E+00 0.  1.
         11    1    5    5    0    0 -0.16850286884E+03  0.11747361825E+03 -0.66693546392E+03  0.69785111652E+03  0.00000000000E+00 0. -1.
        -11    1    5    5    0    0 -0.26274159787E+02 -0.10134558509E+02 -0.40365358108E+02  0.49217912226E+02  0.00000000000E+00 0.  1.
          1    1    6    6  503    0 -0.14480528451E+03 -0.96953888123E+02 -0.55541795252E+02  0.18290302858E+03  0.00000000000E+00 0. -1.
         -1    1    6    6    0  503 -0.25349688154E+03 -0.17737397543E+03 -0.24306577367E+03  0.39345033542E+03  0.00000000000E+00 0.  1.
<mgrwt>
<rscale>  0 0.66806019E+03</rscale>
<asrwt>0</asrwt>
<pdfrwt beam="1">  1        2 0.28672380E+00 0.66806019E+03</pdfrwt>
<pdfrwt beam="2">  1       -2 0.45685315E-01 0.66806019E+03</pdfrwt>
<totfact> 0.37580984E+01</totfact>
</mgrwt>
</event>
<event>
12    1  0.1338445E-007  0.7494811E+03  0.7818608E-02  0.9636165E-01
          1   -1    0    0  501    0  0.00000000000E+00  0.00000000000E+00  0.86866473259E+03  0.86866473259E+03  0.00000000000E+00 0. -1.
         -1   -1    0    0    0  501 -0.00000000000E+00 -0.00000000000E+00 -0.80664382022E+03  0.80664382022E+03  0.00000000000E+00 0.  1.
         23    2    1    2    0    0 -0.67912542690E+03  0.12649311291E+03  0.25157171901E+03  0.74095772749E+03  0.92293938336E+02 0.  0.
    5000000    2    1    2    0    0  0.67912542690E+03 -0.12649311291E+03 -0.18955080664E+03  0.93435082532E+03  0.59989174306E+03 0.  0.
         23    2    4    4    0    0  0.53446032688E+03  0.80584537850E+02  0.78133106682E+02  0.55438011348E+03  0.95345787048E+02 0.  0.
         23    2    4    4    0    0  0.14466510002E+03 -0.20707765076E+03 -0.26768391332E+03  0.37997071184E+03  0.94413557275E+02 0.  0.
          3    1    3    3  502    0 -0.62019849651E+02  0.35342582281E+02  0.10297070549E+02  0.72122046109E+02  0.00000000000E+00 0. -1.
         -3    1    3    3    0  502 -0.61710557725E+03  0.91150530625E+02  0.24127464846E+03  0.66883568138E+03  0.00000000000E+00 0.  1.
         11    1    5    5    0    0  0.29437416995E+02  0.28718074106E+02  0.76652084842E+01  0.41833535839E+02  0.00000000000E+00 0.  1.
        -11    1    5    5    0    0  0.50502290989E+03  0.51866463744E+02  0.70467898198E+02  0.51254657764E+03  0.00000000000E+00 0. -1.
          4    1    6    6  503    0  0.92458950040E+01 -0.23993476838E+01  0.68324239383E+01  0.11744167089E+02  0.00000000000E+00 0.  1.
         -4    1    6    6    0  503  0.13541920501E+03 -0.20467830307E+03 -0.27451633726E+03  0.36822654475E+03  0.00000000000E+00 0. -1.
<mgrwt>
<rscale>  0 0.74948107E+03</rscale>
<asrwt>0</asrwt>
<pdfrwt beam="1">  1        1 0.13364073E+00 0.74948107E+03</pdfrwt>
<pdfrwt beam="2">  1       -1 0.12409905E+00 0.74948107E+03</pdfrwt>
<totfact> 0.11347747E+01</totfact>
</mgrwt>
</event>
<event>
12    1  0.1338445E-007  0.6927009E+03  0.7818608E-02  0.9729797E-01
         -2   -1    0    0    0  501 -0.00000000000E+00  0.00000000000E+00  0.10713517955E+04  0.10713517955E+04  0.00000000000E+00 0. -1.
          2   -1    0    0  501    0  0.00000000000E+00 -0.00000000000E+00 -0.23309328208E+04  0.23309328208E+04  0.00000000000E+00 0.  1.
         23    2    1    2    0    0 -0.58813313959E+03  0.30670300351E+03  0.86661912375E+03  0.10956068011E+04  0.96737969811E+02 0.  0.
    5000000    2    1    2    0    0  0.58813313959E+03 -0.30670300351E+03 -0.21262001491E+04  0.23066778152E+04  0.60005678664E+03 0.  0.
         23    2    4    4    0    0  0.41028643059E+03 -0.58873697979E+02 -0.52974381418E+03  0.67914656992E+03  0.93864196224E+02 0.  0.
         23    2    4    4    0    0  0.17784670900E+03 -0.24782930553E+03 -0.15964563349E+04  0.16275312453E+04  0.84476675630E+02 0.  0.
          3    1    3    3  502    0 -0.17888323654E+03  0.11018820972E+03  0.34655033863E+03  0.40526261989E+03  0.00000000000E+00 0. -1.
         -3    1    3    3    0  502 -0.40924990305E+03  0.19651479378E+03  0.52006878512E+03  0.69034418125E+03  0.00000000000E+00 0.  1.
         13    1    5    5    0    0  0.53113143078E+02  0.35642530399E+01 -0.28136488185E+02  0.60211060734E+02  0.00000000000E+00 0. -1.
        -13    1    5    5    0    0  0.35717328751E+03 -0.62437951019E+02 -0.50160732599E+03  0.61893550918E+03  0.00000000000E+00 0.  1.
          2    1    6    6  503    0  0.10674914844E+03 -0.16253967009E+03 -0.79591537970E+03  0.81932644085E+03  0.00000000000E+00 0. -1.
         -2    1    6    6    0  503  0.71097560558E+02 -0.85289635436E+02 -0.80054095519E+03  0.80820480447E+03  0.00000000000E+00 0.  1.
<mgrwt>
<rscale>  0 0.69270087E+03</rscale>
<asrwt>0</asrwt>
<pdfrwt beam="1">  1        2 0.35860505E+00 0.69270087E+03</pdfrwt>
<pdfrwt beam="2">  1       -2 0.16482335E+00 0.69270087E+03</pdfrwt>
<totfact> 0.10732686E+00</totfact>
</mgrwt>
</event>
<event>
12    1  0.1338445E-007  0.1098038E+04  0.7818608E-02  0.9207106E-01
         -1   -1    0    0    0  501 -0.00000000000E+00  0.00000000000E+00  0.18748433449E+04  0.18748433449E+04  0.00000000000E+00 0.  1.
          1   -1    0    0  501    0  0.00000000000E+00 -0.00000000000E+00 -0.78707484361E+03  0.78707484361E+03  0.00000000000E+00 0. -1.
         23    2    1    2    0    0  0.14612326913E+03 -0.10851231393E+04  0.85430565505E+03  0.13917172434E+04  0.90523456644E+02 0.  0.
    5000000    2    1    2    0    0 -0.14612326913E+03  0.10851231393E+04  0.23346284620E+03  0.12702009450E+04  0.60005108358E+03 0.  0.
         23    2    4    4    0    0 -0.52536255957E+02  0.30166706387E+03 -0.18823462254E+03  0.37093875600E+03  0.91652670288E+02 0.  0.
         23    2    4    4    0    0 -0.93587013173E+02  0.78345607545E+03  0.42169746873E+03  0.89926218901E+03  0.91004276044E+02 0.  0.
          1    1    3    3  502    0  0.85701282942E+02 -0.78296420754E+03  0.65833112420E+03  0.10265366673E+04  0.00000000000E+00 0. -1.
         -1    1    3    3    0  502  0.60421986188E+02 -0.30215893177E+03  0.19597453085E+03  0.36518057616E+03  0.00000000000E+00 0.  1.
         11    1    5    5    0    0 -0.78582800696E+01  0.45476984577E+01 -0.30031459677E+02  0.31373917467E+02  0.00000000000E+00 0. -1.
        -11    1    5    5    0    0 -0.44677975888E+02  0.29711936541E+03 -0.15820316286E+03  0.33956483853E+03  0.00000000000E+00 0.  1.
          3    1    6    6  503    0 -0.29260506149E+02  0.97658467354E+02  0.84159903896E+02  0.13219774162E+03  0.00000000000E+00 0. -1.
         -3    1    6    6    0  503 -0.64326507024E+02  0.68579760810E+03  0.33753756484E+03  0.76706444739E+03  0.00000000000E+00 0.  1.
<mgrwt>
<rscale>  0 0.10980381E+04</rscale>
<asrwt>0</asrwt>
<pdfrwt beam="1">  1        1 0.12108844E+00 0.10980381E+04</pdfrwt>
<pdfrwt beam="2">  1       -1 0.28843744E+00 0.10980381E+04</pdfrwt>
<totfact> 0.88960260E-01</totfact>
</mgrwt>
</event>
<event>
12    1  0.1338445E-007  0.6905454E+03  0.7818608E-02  0.9733539E-01
         -2   -1    0    0    0  501 -0.00000000000E+00  0.00000000000E+00  0.27976020083E+03  0.27976020083E+03  0.00000000000E+00 0.  1.
          2   -1    0    0  501    0  0.00000000000E+00 -0.00000000000E+00 -0.20079127764E+04  0.20079127764E+04  0.00000000000E+00 0. -1.
         23    2    1    2    0    0 -0.58195798232E+03 -0.11789221118E+03 -0.10292793685E+04  0.11917197961E+04  0.90589111976E+02 0.  0.
    5000000    2    1    2    0    0  0.58195798232E+03  0.11789221118E+03 -0.69887320704E+03  0.10959531812E+04  0.60009661651E+03 0.  0.
         23    2    4    4    0    0  0.37384395149E+03  0.32085834693E+03 -0.26796052103E+03  0.56829926654E+03  0.91933871164E+02 0.  0.
         23    2    4    4    0    0  0.20811403083E+03 -0.20296613575E+03 -0.43091268600E+03  0.52765391462E+03  0.90698448536E+02 0.  0.
          2    1    3    3  502    0 -0.37713142968E+03 -0.10227459576E+03 -0.74130916497E+03  0.83799014687E+03  0.00000000000E+00 0. -1.
         -2    1    3    3    0  502 -0.20482655264E+03 -0.15617615416E+02 -0.28797020357E+03  0.35372964920E+03  0.00000000000E+00 0.  1.
         13    1    5    5    0    0  0.25799858260E+02  0.15023218680E+02 -0.45289684524E+02  0.54244680016E+02  0.00000000000E+00 0. -1.
        -13    1    5    5    0    0  0.34804409323E+03  0.30583512825E+03 -0.22267083651E+03  0.51405458653E+03  0.00000000000E+00 0.  1.
          4    1    6    6  503    0  0.17493270821E+03 -0.15706246460E+03 -0.27512549165E+03  0.36188963282E+03  0.00000000000E+00 0.  1.
         -4    1    6    6    0  503  0.33181322620E+02 -0.45903671150E+02 -0.15578719436E+03  0.16576428180E+03  0.00000000000E+00 0. -1.
<mgrwt>
<rscale>  0 0.69054538E+03</rscale>
<asrwt>0</asrwt>
<pdfrwt beam="1">  1        2 0.30890966E+00 0.69054538E+03</pdfrwt>
<pdfrwt beam="2">  1       -2 0.43040031E-01 0.69054538E+03</pdfrwt>
<totfact> 0.35210833E+01</totfact>
</mgrwt>
</event>
<event>
12    1  0.1338445E-007  0.6698627E+03  0.7818608E-02  0.9770206E-01
         -2   -1    0    0    0  501 -0.00000000000E+00  0.00000000000E+00  0.29097273922E+03  0.29097273922E+03  0.00000000000E+00 0.  1.
          2   -1    0    0  501    0  0.00000000000E+00 -0.00000000000E+00 -0.23109872514E+04  0.23109872514E+04  0.00000000000E+00 0. -1.
         23    2    1    2    0    0  0.54599910743E+03  0.16961952408E+03 -0.21844150321E+03  0.61883017439E+03  0.91368956201E+02 0.  0.
    5000000    2    1    2    0    0 -0.54599910743E+03 -0.16961952408E+03 -0.18015730090E+04  0.19831298163E+04  0.60021059062E+03 0.  0.
         23    2    4    4    0    0 -0.25734651354E+02  0.14714735350E+03 -0.19510882819E+03  0.26267955461E+03  0.92835756322E+02 0.  0.
         23    2    4    4    0    0 -0.52026445607E+03 -0.31676687758E+03 -0.16064641808E+04  0.17204502616E+04  0.90584654116E+02 0.  0.
          3    1    3    3  502    0  0.48943649160E+03  0.16725471173E+03 -0.17037164620E+03  0.54456286665E+03  0.00000000000E+00 0. -1.
         -3    1    3    3    0  502  0.56562615824E+02  0.23648123480E+01 -0.48069857008E+02  0.74267307741E+02  0.00000000000E+00 0.  1.
         11    1    5    5    0    0  0.38954720188E+01  0.81827309288E+02 -0.38684358273E+02  0.90594496646E+02  0.00000000000E+00 0. -1.
        -11    1    5    5    0    0 -0.29630123373E+02  0.65320044213E+02 -0.15642446992E+03  0.17208505797E+03  0.00000000000E+00 0.  1.
          1    1    6    6  503    0 -0.29317469751E+03 -0.21406110191E+03 -0.85988914518E+03  0.93337179120E+03  0.00000000000E+00 0. -1.
         -1    1    6    6    0  503 -0.22708975856E+03 -0.10270577567E+03 -0.74657503564E+03  0.78707847044E+03  0.00000000000E+00 0.  1.
<mgrwt>
<rscale>  0 0.66986266E+03</rscale>
<asrwt>0</asrwt>
<pdfrwt beam="1">  1        2 0.35553648E+00 0.66986266E+03</pdfrwt>
<pdfrwt beam="2">  1       -2 0.44765039E-01 0.66986266E+03</pdfrwt>
<totfact> 0.22284437E+01</totfact>
</mgrwt>
</event>
<event>
12    1  0.1338445E-007  0.2146022E+04  0.7818608E-02  0.8541237E-01
          1   -1    0    0  501    0  0.00000000000E+00  0.00000000000E+00  0.14046508385E+04  0.14046508385E+04  0.00000000000E+00 0. -1.
         -1   -1    0    0    0  501 -0.00000000000E+00 -0.00000000000E+00 -0.34914952555E+04  0.34914952555E+04  0.00000000000E+00 0.  1.
         23    2    1    2    0    0 -0.19969678293E+04 -0.73528443484E+03 -0.53847660556E+03  0.21969342573E+04  0.89662504294E+02 0.  0.
    5000000    2    1    2    0    0  0.19969678293E+04  0.73528443484E+03 -0.15483678114E+04  0.26992118367E+04  0.59981492868E+03 0.  0.
         23    2    4    4    0    0  0.69225555929E+03  0.66039011998E+02 -0.75024378753E+03  0.10271999534E+04  0.93247483269E+02 0.  0.
         23    2    4    4    0    0  0.13047122700E+04  0.66924542284E+03 -0.79812402387E+03  0.16720118833E+04  0.91968672980E+02 0.  0.
          2    1    3    3  502    0 -0.10381656182E+04 -0.38382850741E+03 -0.32623608417E+03  0.11539246755E+04  0.00000000000E+00 0. -1.
         -2    1    3    3    0  502 -0.95880221109E+03 -0.35145592743E+03 -0.21224052139E+03  0.10430095818E+04  0.00000000000E+00 0.  1.
         13    1    5    5    0    0  0.47069155782E+03  0.59132601001E+02 -0.56936327203E+03  0.74109496196E+03  0.00000000000E+00 0. -1.
        -13    1    5    5    0    0  0.22156400147E+03  0.69064109965E+01 -0.18088051550E+03  0.28610499148E+03  0.00000000000E+00 0.  1.
          3    1    6    6  503    0  0.52313887510E+03  0.30628343128E+03 -0.36405859932E+03  0.70712268148E+03  0.00000000000E+00 0. -1.
         -3    1    6    6    0  503  0.78157339494E+03  0.36296199156E+03 -0.43406542454E+03  0.96488920181E+03  0.00000000000E+00 0.  1.
<mgrwt>
<rscale>  0 0.21460219E+04</rscale>
<asrwt>0</asrwt>
<pdfrwt beam="1">  1        1 0.21610013E+00 0.21460219E+04</pdfrwt>
<pdfrwt beam="2">  1       -1 0.53715311E+00 0.21460219E+04</pdfrwt>
<totfact> 0.58485028E-03</totfact>
</mgrwt>
</event>
<event>
12    1  0.1338445E-007  0.5653545E+03  0.7818608E-02  0.9980011E-01
          1   -1    0    0  501    0  0.00000000000E+00  0.00000000000E+00  0.75250394874E+03  0.75250394874E+03  0.00000000000E+00 0. -1.
         -1   -1    0    0    0  501 -0.00000000000E+00 -0.00000000000E+00 -0.11156668522E+04  0.11156668522E+04  0.00000000000E+00 0.  1.
         23    2    1    2    0    0 -0.35743788486E+03 -0.30819411154E+03 -0.83999512502E+03  0.96817263652E+03  0.94978903592E+02 0.  0.
    5000000    2    1    2    0    0  0.35743788486E+03  0.30819411154E+03  0.47683222152E+03  0.89999816446E+03  0.59990188916E+03 0.  0.
         23    2    4    4    0    0  0.18446151878E+03  0.39846497630E+03  0.89450790092E+02  0.45679240447E+03  0.88642358305E+02 0.  0.
         23    2    4    4    0    0  0.17297636608E+03 -0.90270864755E+02  0.38738143143E+03  0.44320575999E+03  0.91089626321E+02 0.  0.
          4    1    3    3  502    0 -0.34015294090E+03 -0.27192311344E+03 -0.71813496440E+03  0.83985952988E+03  0.00000000000E+00 0. -1.
         -4    1    3    3    0  502 -0.17284943957E+02 -0.36270998106E+02 -0.12186016061E+03  0.12831310664E+03  0.00000000000E+00 0.  1.
         13    1    5    5    0    0  0.10767267531E+03  0.17989532730E+03  0.81651762722E+02  0.22499498694E+03  0.00000000000E+00 0. -1.
        -13    1    5    5    0    0  0.76788843468E+02  0.21856964900E+03  0.77990273695E+01  0.23179741753E+03  0.00000000000E+00 0.  1.
          1    1    6    6  503    0  0.73744933939E+02  0.78632592976E+01  0.16104458629E+03  0.17730060604E+03  0.00000000000E+00 0. -1.
         -1    1    6    6    0  503  0.99231432142E+02 -0.98134124053E+02  0.22633684514E+03  0.26590515395E+03  0.00000000000E+00 0.  1.
<mgrwt>
<rscale>  0 0.56535448E+03</rscale>
<asrwt>0</asrwt>
<pdfrwt beam="1">  1        1 0.11576984E+00 0.56535448E+03</pdfrwt>
<pdfrwt beam="2">  1       -1 0.17164105E+00 0.56535448E+03</pdfrwt>
<totfact> 0.62206302E+00</totfact>
</mgrwt>
</event>
<event>
12    1  0.1338445E-007  0.4595049E+03  0.7818608E-02  0.1024925E+00
         -1   -1    0    0    0  501 -0.00000000000E+00  0.00000000000E+00  0.32724770883E+03  0.32724770883E+03  0.00000000000E+00 0.  1.
          1   -1    0    0  501    0  0.00000000000E+00 -0.00000000000E+00 -0.15379403500E+04  0.15379403500E+04  0.00000000000E+00 0. -1.
         23    2    1    2    0    0  0.41210844027E+03 -0.12968914735E+03  0.53461960251E+01  0.44195387558E+03  0.92962384021E+02 0.  0.
    5000000    2    1    2    0    0 -0.41210844027E+03  0.12968914735E+03 -0.12160388372E+04  0.14232341833E+04  0.60016034969E+03 0.  0.
         23    2    4    4    0    0 -0.98313158463E+02  0.10794591872E+03 -0.10347500830E+04  0.10486033728E+04  0.86853328267E+02 0.  0.
         23    2    4    4    0    0 -0.31379528181E+03  0.21743228632E+02 -0.18128875422E+03  0.37463081050E+03  0.92425023101E+02 0.  0.
          1    1    3    3  502    0  0.24380665443E+03 -0.55676781350E+02 -0.38269848115E+02  0.25299440705E+03  0.00000000000E+00 0. -1.
         -1    1    3    3    0  502  0.16830178584E+03 -0.74012366001E+02  0.43616044140E+02  0.18895946853E+03  0.00000000000E+00 0.  1.
         13    1    5    5    0    0 -0.69981462815E+01  0.56980547271E+02 -0.22858016735E+03  0.23567912450E+03  0.00000000000E+00 0.  1.
        -13    1    5    5    0    0 -0.91315012181E+02  0.50965371448E+02 -0.80616991563E+03  0.81292424826E+03  0.00000000000E+00 0. -1.
          1    1    6    6  503    0 -0.20098563176E+03 -0.21800399241E+02 -0.14358974380E+03  0.24796874018E+03  0.00000000000E+00 0. -1.
         -1    1    6    6    0  503 -0.11280965005E+03  0.43543627873E+02 -0.37699010420E+02  0.12666207033E+03  0.00000000000E+00 0.  1.
<mgrwt>
<rscale>  0 0.45950486E+03</rscale>
<asrwt>0</asrwt>
<pdfrwt beam="1">  1        1 0.23660621E+00 0.45950486E+03</pdfrwt>
<pdfrwt beam="2">  1       -1 0.50345800E-01 0.45950486E+03</pdfrwt>
<totfact> 0.26426842E+01</totfact>
</mgrwt>
</event>
<event>
12    1  0.1338445E-007  0.7125669E+03  0.7818608E-02  0.9695979E-01
          3   -1    0    0  501    0  0.00000000000E+00  0.00000000000E+00  0.31906678889E+03  0.31906678889E+03  0.00000000000E+00 0. -1.
         -3   -1    0    0    0  501 -0.00000000000E+00 -0.00000000000E+00 -0.17672351010E+04  0.17672351010E+04  0.00000000000E+00 0.  1.
         23    2    1    2    0    0  0.29203828934E+03 -0.51407391784E+03 -0.33276534791E+03  0.68849276861E+03  0.11718003333E+03 0.  0.
    5000000    2    1    2    0    0 -0.29203828934E+03  0.51407391784E+03 -0.11154029642E+04  0.13978091212E+04  0.60015682245E+03 0.  0.
         23    2    4    4    0    0 -0.82424234193E+01  0.53552054427E+03 -0.70517371228E+03  0.89027780055E+03  0.92056541180E+02 0.  0.
         23    2    4    4    0    0 -0.28379586592E+03 -0.21446626430E+02 -0.41022925188E+03  0.50753132070E+03  0.91104067386E+02 0.  0.
          2    1    3    3  502    0  0.18109725059E+03 -0.23181762507E+03 -0.11839023927E+03  0.31709915519E+03  0.00000000000E+00 0.  1.
         -2    1    3    3    0  502  0.11094103875E+03 -0.28225629278E+03 -0.21437510864E+03  0.37139361342E+03  0.00000000000E+00 0. -1.
         13    1    5    5    0    0  0.43435346716E+00  0.45598371387E+03 -0.64620116577E+03  0.79088386165E+03  0.00000000000E+00 0. -1.
        -13    1    5    5    0    0 -0.86767768864E+01  0.79536830401E+02 -0.58972546515E+02  0.99393938899E+02  0.00000000000E+00 0.  1.
          2    1    6    6  503    0 -0.24101803225E+03  0.56025983005E+01 -0.37520580232E+03  0.44598259504E+03  0.00000000000E+00 0. -1.
         -2    1    6    6    0  503 -0.42777833667E+02 -0.27049224730E+02 -0.35023449556E+02  0.61548725662E+02  0.00000000000E+00 0.  1.
<mgrwt>
<rscale>  0 0.71256688E+03</rscale>
<asrwt>0</asrwt>
<pdfrwt beam="1">  1        3 0.49087199E-01 0.71256688E+03</pdfrwt>
<pdfrwt beam="2">  1       -3 0.27188232E+00 0.71256688E+03</pdfrwt>
<totfact> 0.59850374E-01</totfact>
</mgrwt>
</event>
<event>
12    1  0.1338445E-007  0.4421727E+03  0.7818608E-02  0.1030082E+00
          2   -1    0    0  501    0  0.00000000000E+00  0.00000000000E+00  0.14723728629E+04  0.14723728629E+04  0.00000000000E+00 0. -1.
         -2   -1    0    0    0  501 -0.00000000000E+00 -0.00000000000E+00 -0.15041617818E+03  0.15041617818E+03  0.00000000000E+00 0.  1.
         23    2    1    2    0    0 -0.15092012490E+03 -0.20038206496E+03  0.56423687330E+03  0.62426950438E+03  0.91756791842E+02 0.  0.
    5000000    2    1    2    0    0  0.15092012490E+03  0.20038206496E+03  0.75771981143E+03  0.99851953671E+03  0.59997674663E+03 0.  0.
         23    2    4    4    0    0 -0.14203912830E+03 -0.10435414973E+03  0.35972796028E+03  0.41056617918E+03  0.89974882857E+02 0.  0.
         23    2    4    4    0    0  0.29295925320E+03  0.30473621470E+03  0.39799185115E+03  0.58795335753E+03  0.92748867741E+02 0.  0.
          2    1    3    3  502    0 -0.12700084225E+03 -0.10913678429E+03  0.29811957096E+03  0.34192883793E+03  0.00000000000E+00 0. -1.
         -2    1    3    3    0  502 -0.23919282646E+02 -0.91245280673E+02  0.26611730233E+03  0.28234066645E+03  0.00000000000E+00 0.  1.
         13    1    5    5    0    0 -0.10981760860E+03 -0.11911113221E+03  0.30515976281E+03  0.34549942086E+03  0.00000000000E+00 0.  1.
        -13    1    5    5    0    0 -0.32221519699E+02  0.14756982475E+02  0.54568197464E+02  0.65066758317E+02  0.00000000000E+00 0. -1.
          3    1    6    6  503    0  0.31360210591E+01  0.14927650096E+02  0.43364412221E+02  0.45968920074E+02  0.00000000000E+00 0. -1.
         -3    1    6    6    0  503  0.28982323214E+03  0.28980856460E+03  0.35462743893E+03  0.54198443745E+03  0.00000000000E+00 0.  1.
<mgrwt>
<rscale>  0 0.44217273E+03</rscale>
<asrwt>0</asrwt>
<pdfrwt beam="1">  1        2 0.22651889E+00 0.44217273E+03</pdfrwt>
<pdfrwt beam="2">  1       -2 0.23140952E-01 0.44217273E+03</pdfrwt>
<totfact> 0.22616569E+02</totfact>
</mgrwt>
</event>
<event>
12    1  0.1338445E-007  0.8837397E+03  0.7818608E-02  0.9446139E-01
         -2   -1    0    0    0  501 -0.00000000000E+00  0.00000000000E+00  0.14544011030E+04  0.14544011030E+04  0.00000000000E+00 0.  1.
          2   -1    0    0  501    0  0.00000000000E+00 -0.00000000000E+00 -0.19739964222E+04  0.19739964222E+04  0.00000000000E+00 0. -1.
         23    2    1    2    0    0 -0.72192356051E+03 -0.35752317522E+03 -0.16968464553E+04  0.18807929748E+04  0.95382772468E+02 0.  0.
    5000000    2    1    2    0    0  0.72192356051E+03  0.35752317522E+03  0.11772511360E+04  0.15476045504E+04  0.60013595040E+03 0.  0.
         23    2    4    4    0    0  0.33869785348E+03  0.44576834489E+03  0.48592108600E+03  0.74708423427E+03  0.92681702697E+02 0.  0.
         23    2    4    4    0    0  0.38322570703E+03 -0.88245169678E+02  0.69133005002E+03  0.80052031608E+03  0.90809613445E+02 0.  0.
          4    1    3    3  502    0 -0.23053430878E+03 -0.89858910172E+02 -0.61233601324E+03  0.66043628336E+03  0.00000000000E+00 0. -1.
         -4    1    3    3    0  502 -0.49138925173E+03 -0.26766426504E+03 -0.10845104420E+04  0.12203566915E+04  0.00000000000E+00 0.  1.
         13    1    5    5    0    0  0.11429692986E+03  0.12499908866E+03  0.96637929849E+02  0.19500628150E+03  0.00000000000E+00 0.  1.
        -13    1    5    5    0    0  0.22440092362E+03  0.32076925624E+03  0.38928315616E+03  0.55207795277E+03  0.00000000000E+00 0. -1.
          3    1    6    6  503    0  0.16539823250E+03 -0.21291558919E+01  0.34240762426E+03  0.38026844435E+03  0.00000000000E+00 0. -1.
         -3    1    6    6    0  503  0.21782747454E+03 -0.86116013787E+02  0.34892242576E+03  0.42025187172E+03  0.00000000000E+00 0.  1.
<mgrwt>
<rscale>  0 0.88373972E+03</rscale>
<asrwt>0</asrwt>
<pdfrwt beam="1">  1        2 0.30369176E+00 0.88373972E+03</pdfrwt>
<pdfrwt beam="2">  1       -2 0.22375402E+00 0.88373972E+03</pdfrwt>
<totfact> 0.65935401E-01</totfact>
</mgrwt>
</event>
<event>
12    1  0.1338445E-007  0.9630498E+03  0.7818608E-02  0.9350026E-01
         -2   -1    0    0    0  501 -0.00000000000E+00  0.00000000000E+00  0.28510379365E+03  0.28510379365E+03  0.00000000000E+00 0.  1.
          2   -1    0    0  501    0  0.00000000000E+00 -0.00000000000E+00 -0.36211306340E+04  0.36211306340E+04  0.00000000000E+00 0. -1.
         23    2    1    2    0    0  0.20947777613E+02 -0.87796977539E+03 -0.96786714885E+03  0.13100882717E+04  0.91075385915E+02 0.  0.
    5000000    2    1    2    0    0 -0.20947777613E+02  0.87796977539E+03 -0.23681596915E+04  0.25961461560E+04  0.60043717640E+03 0.  0.
         23    2    4    4    0    0  0.23195997490E+03  0.69118162026E+03 -0.15646838896E+04  0.17285895879E+04  0.90823053233E+02 0.  0.
         23    2    4    4    0    0 -0.25290775251E+03  0.18678815512E+03 -0.80347580194E+03  0.86755656806E+03  0.90713220187E+02 0.  0.
          3    1    3    3  502    0  0.11866625108E+02 -0.35329058978E+03 -0.45664822422E+03  0.57747957393E+03  0.00000000000E+00 0.  1.
         -3    1    3    3    0  502  0.90811525048E+01 -0.52467918561E+03 -0.51121892463E+03  0.73260869777E+03  0.00000000000E+00 0. -1.
         13    1    5    5    0    0  0.72953812844E+02  0.15046269751E+03 -0.43707749571E+03  0.46797224213E+03  0.00000000000E+00 0. -1.
        -13    1    5    5    0    0  0.15900616206E+03  0.54071892276E+03 -0.11276063939E+04  0.12606173458E+04  0.00000000000E+00 0.  1.
          3    1    6    6  503    0 -0.14558706197E+03  0.13203213058E+03 -0.59676628680E+03  0.62829776156E+03  0.00000000000E+00 0. -1.
         -3    1    6    6    0  503 -0.10732069054E+03  0.54756024546E+02 -0.20670951514E+03  0.23925880651E+03  0.00000000000E+00 0.  1.
<mgrwt>
<rscale>  0 0.96304978E+03</rscale>
<asrwt>0</asrwt>
<pdfrwt beam="1">  1        2 0.55709699E+00 0.96304978E+03</pdfrwt>
<pdfrwt beam="2">  1       -2 0.43862124E-01 0.96304978E+03</pdfrwt>
<totfact> 0.34413319E+00</totfact>
</mgrwt>
</event>
<event>
12    1  0.1338445E-007  0.6768757E+03  0.7818608E-02  0.9757616E-01
         -1   -1    0    0    0  501 -0.00000000000E+00  0.00000000000E+00  0.51095256109E+03  0.51095256109E+03  0.00000000000E+00 0.  1.
          1   -1    0    0  501    0  0.00000000000E+00 -0.00000000000E+00 -0.12038791391E+04  0.12038791391E+04  0.00000000000E+00 0. -1.
         23    2    1    2    0    0 -0.47234824490E+03 -0.31126152957E+03  0.87195197528E+02  0.57974817926E+03  0.92240688644E+02 0.  0.
    5000000    2    1    2    0    0  0.47234824490E+03  0.31126152957E+03 -0.78012177554E+03  0.11350835209E+04  0.59985665834E+03 0.  0.
         23    2    4    4    0    0  0.33821378159E+03 -0.91355341616E+02 -0.21065156282E+03  0.41914049238E+03  0.92575973885E+02 0.  0.
         23    2    4    4    0    0  0.13413446331E+03  0.40261687118E+03 -0.56947021272E+03  0.71594302854E+03  0.90474845852E+02 0.  0.
          2    1    3    3  502    0 -0.13510162811E+03 -0.46013456865E+02  0.45056977452E+01  0.14279352031E+03  0.00000000000E+00 0. -1.
         -2    1    3    3    0  502 -0.33724661679E+03 -0.26524807270E+03  0.82689499783E+02  0.43695465895E+03  0.00000000000E+00 0.  1.
         11    1    5    5    0    0  0.93335681503E+02 -0.47427140020E+02 -0.10677435622E+03  0.14953810952E+03  0.00000000000E+00 0. -1.
        -11    1    5    5    0    0  0.24487810008E+03 -0.43928201596E+02 -0.10387720660E+03  0.26960238286E+03  0.00000000000E+00 0.  1.
          1    1    6    6  503    0  0.10267195934E+03  0.21506327529E+03 -0.37199352078E+03  0.44178379680E+03  0.00000000000E+00 0. -1.
         -1    1    6    6    0  503  0.31462503967E+02  0.18755359589E+03 -0.19747669194E+03  0.27415923174E+03  0.00000000000E+00 0.  1.
<mgrwt>
<rscale>  0 0.67687575E+03</rscale>
<asrwt>0</asrwt>
<pdfrwt beam="1">  1        1 0.18521217E+00 0.67687575E+03</pdfrwt>
<pdfrwt beam="2">  1       -1 0.78608087E-01 0.67687575E+03</pdfrwt>
<totfact> 0.17913801E+01</totfact>
</mgrwt>
</event>
<event>
12    1  0.1338445E-007  0.3114865E+03  0.7818608E-02  0.1079636E+00
         -2   -1    0    0    0  501 -0.00000000000E+00  0.00000000000E+00  0.17076877152E+03  0.17076877152E+03  0.00000000000E+00 0.  1.
          2   -1    0    0  501    0  0.00000000000E+00 -0.00000000000E+00 -0.13665731905E+04  0.13665731905E+04  0.00000000000E+00 0. -1.
         23    2    1    2    0    0 -0.51536356143E+02 -0.27030645151E+03 -0.49925870509E+03  0.57749723580E+03  0.92315919625E+02 0.  0.
    5000000    2    1    2    0    0  0.51536356143E+02  0.27030645151E+03 -0.69654571393E+03  0.95984472625E+03  0.60033689974E+03 0.  0.
         23    2    4    4    0    0 -0.31786505350E+02  0.68515217444E+02  0.83361585018E+02  0.14494948271E+03  0.91413794014E+02 0.  0.
         23    2    4    4    0    0  0.83322861494E+02  0.20179123406E+03 -0.77990729894E+03  0.81489524355E+03  0.90202337087E+02 0.  0.
          2    1    3    3  502    0 -0.45731459900E+02 -0.17750176125E+03 -0.23947523583E+03  0.30157359010E+03  0.00000000000E+00 0. -1.
         -2    1    3    3    0  502 -0.58048962434E+01 -0.92804690257E+02 -0.25978346925E+03  0.27592364569E+03  0.00000000000E+00 0.  1.
         13    1    5    5    0    0 -0.27099335490E+02  0.89821825085E+02  0.53612623666E+02  0.10805853813E+03  0.00000000000E+00 0. -1.
        -13    1    5    5    0    0 -0.46871698602E+01 -0.21306607640E+02  0.29748961353E+02  0.36890944580E+02  0.00000000000E+00 0.  1.
          2    1    6    6  503    0  0.94757006827E+02  0.14566948450E+03 -0.50435019677E+03  0.53344878859E+03  0.00000000000E+00 0. -1.
         -2    1    6    6    0  503 -0.11434145333E+02  0.56121749557E+02 -0.27555710217E+03  0.28144645496E+03  0.00000000000E+00 0.  1.
<mgrwt>
<rscale>  0 0.31148647E+03</rscale>
<asrwt>0</asrwt>
<pdfrwt beam="1">  1        2 0.21024203E+00 0.31148647E+03</pdfrwt>
<pdfrwt beam="2">  1       -2 0.26272119E-01 0.31148647E+03</pdfrwt>
<totfact> 0.21011984E+02</totfact>
</mgrwt>
</event>
<event>
12    1  0.1338445E-007  0.9965457E+03  0.7818608E-02  0.9312341E-01
         -2   -1    0    0    0  501 -0.00000000000E+00  0.00000000000E+00  0.98407634729E+03  0.98407634729E+03  0.00000000000E+00 0. -1.
          2   -1    0    0  501    0  0.00000000000E+00 -0.00000000000E+00 -0.27423764349E+04  0.27423764349E+04  0.00000000000E+00 0.  1.
         23    2    1    2    0    0  0.84806634877E+02 -0.90923136045E+03 -0.23221015021E+04  0.24968672463E+04  0.91086922497E+02 0.  0.
    5000000    2    1    2    0    0 -0.84806634877E+02  0.90923136045E+03  0.56380141450E+03  0.12295855359E+04  0.60009559483E+03 0.  0.
         23    2    4    4    0    0  0.23697131772E+03  0.30022888314E+03  0.26004207951E+03  0.47107704958E+03  0.89436658176E+02 0.  0.
         23    2    4    4    0    0 -0.32177795260E+03  0.60900247731E+03  0.30375933499E+03  0.75850848631E+03  0.92953332748E+02 0.  0.
          2    1    3    3  502    0  0.37481040851E+02 -0.73333635789E+03 -0.19109888509E+04  0.20472091809E+04  0.00000000000E+00 0. -1.
         -2    1    3    3    0  502  0.47325594026E+02 -0.17589500257E+03 -0.41111265125E+03  0.44965806541E+03  0.00000000000E+00 0.  1.
         11    1    5    5    0    0  0.19637274351E+03  0.23493656362E+03  0.16177756286E+03  0.34630827765E+03  0.00000000000E+00 0. -1.
        -11    1    5    5    0    0  0.40598574208E+02  0.65292319521E+02  0.98264516653E+02  0.12476877193E+03  0.00000000000E+00 0.  1.
          1    1    6    6  503    0 -0.25412265869E+03  0.54062805462E+03  0.24411758094E+03  0.64532969282E+03  0.00000000000E+00 0. -1.
         -1    1    6    6    0  503 -0.67655293909E+02  0.68374422684E+02  0.59641754048E+02  0.11317879350E+03  0.00000000000E+00 0.  1.
<mgrwt>
<rscale>  0 0.99654575E+03</rscale>
<asrwt>0</asrwt>
<pdfrwt beam="1">  1        2 0.42190406E+00 0.99654575E+03</pdfrwt>
<pdfrwt beam="2">  1       -2 0.15139636E+00 0.99654575E+03</pdfrwt>
<totfact> 0.74055237E-01</totfact>
</mgrwt>
</event>
<event>
12    1  0.1338445E-007  0.1912798E+04  0.7818608E-02  0.8648512E-01
         -2   -1    0    0    0  501 -0.00000000000E+00  0.00000000000E+00  0.18683034387E+04  0.18683034387E+04  0.00000000000E+00 0.  1.
          2   -1    0    0  501    0  0.00000000000E+00 -0.00000000000E+00 -0.23462176714E+04  0.23462176714E+04  0.00000000000E+00 0. -1.
         23    2    1    2    0    0  0.18553586832E+04 -0.43555953247E+03  0.52491374301E+03  0.19788528715E+04  0.90864182948E+02 0.  0.
    5000000    2    1    2    0    0 -0.18553586832E+04  0.43555953247E+03 -0.10028279757E+04  0.22356682387E+04  0.60040034576E+03 0.  0.
         23    2    4    4    0    0 -0.42377410400E+03  0.70918350408E+02 -0.51288065321E+03  0.67657789299E+03  0.10048471123E+03 0.  0.
         23    2    4    4    0    0 -0.14315845792E+04  0.36464118206E+03 -0.48994732252E+03  0.15590903457E+04  0.91196098351E+02 0.  0.
          1    1    3    3  502    0  0.10037226028E+04 -0.23918886136E+03  0.23732448502E+03  0.10587697039E+04  0.00000000000E+00 0. -1.
         -1    1    3    3    0  502  0.85163608038E+03 -0.19637067110E+03  0.28758925799E+03  0.92008316753E+03  0.00000000000E+00 0.  1.
         13    1    5    5    0    0 -0.15351909651E+02 -0.17111224801E+02 -0.34216367342E+02  0.41221777475E+02  0.00000000000E+00 0.  1.
        -13    1    5    5    0    0 -0.40842219435E+03  0.88029575210E+02 -0.47866428587E+03  0.63535611551E+03  0.00000000000E+00 0. -1.
          3    1    6    6  503    0 -0.25991707704E+03  0.94716959810E+02 -0.68305845983E+02  0.28494539478E+03  0.00000000000E+00 0. -1.
         -3    1    6    6    0  503 -0.11716675021E+04  0.26992422225E+03 -0.42164147654E+03  0.12741449510E+04  0.00000000000E+00 0.  1.
<mgrwt>
<rscale>  0 0.19127980E+04</rscale>
<asrwt>0</asrwt>
<pdfrwt beam="1">  1        2 0.36095657E+00 0.19127980E+04</pdfrwt>
<pdfrwt beam="2">  1       -2 0.28743130E+00 0.19127980E+04</pdfrwt>
<totfact> 0.14500671E-01</totfact>
</mgrwt>
</event>
<event>
12    1  0.1338445E-007  0.6683267E+03  0.7818608E-02  0.9772985E-01
         -1   -1    0    0    0  501 -0.00000000000E+00  0.00000000000E+00  0.65600624502E+03  0.65600624502E+03  0.00000000000E+00 0.  1.
          1   -1    0    0  501    0  0.00000000000E+00 -0.00000000000E+00 -0.96850585086E+03  0.96850585086E+03  0.00000000000E+00 0. -1.
         23    2    1    2    0    0 -0.41335442696E+03 -0.43065018838E+03  0.19929376104E+03  0.63546890473E+03  0.88211442836E+02 0.  0.
    5000000    2    1    2    0    0  0.41335442696E+03  0.43065018838E+03 -0.51179336688E+03  0.98904319116E+03  0.59996042916E+03 0.  0.
         23    2    4    4    0    0  0.32670185398E+03  0.50186565848E+03 -0.18681815324E+03  0.63378382408E+03  0.90430485625E+02 0.  0.
         23    2    4    4    0    0  0.86652572981E+02 -0.71215470107E+02 -0.32497521364E+03  0.35525936708E+03  0.89554546673E+02 0.  0.
          3    1    3    3  502    0 -0.77945555786E+02 -0.89481004807E+02  0.77650333650E+02  0.14181655123E+03  0.00000000000E+00 0. -1.
         -3    1    3    3    0  502 -0.33540887118E+03 -0.34116918357E+03  0.12164342739E+03  0.49365235349E+03  0.00000000000E+00 0.  1.
         13    1    5    5    0    0  0.59020045863E+02  0.88482761342E+02 -0.70953917841E+02  0.12785547828E+03  0.00000000000E+00 0. -1.
        -13    1    5    5    0    0  0.26768180812E+03  0.41338289714E+03 -0.11586423540E+03  0.50592834581E+03  0.00000000000E+00 0.  1.
          3    1    6    6  503    0  0.84314827645E+02 -0.16460969224E+02 -0.23119559565E+03  0.24664013687E+03  0.00000000000E+00 0. -1.
         -3    1    6    6    0  503  0.23377453365E+01 -0.54754500883E+02 -0.93779617989E+02  0.10861923021E+03  0.00000000000E+00 0.  1.
<mgrwt>
<rscale>  0 0.66832671E+03</rscale>
<asrwt>0</asrwt>
<pdfrwt beam="1">  1        1 0.14900090E+00 0.66832671E+03</pdfrwt>
<pdfrwt beam="2">  1       -1 0.10092404E+00 0.66832671E+03</pdfrwt>
<totfact> 0.15571336E+01</totfact>
</mgrwt>
</event>
<event>
12    1  0.1338445E-007  0.3582483E+03  0.7818608E-02  0.1059280E+00
         -1   -1    0    0    0  501 -0.00000000000E+00  0.00000000000E+00  0.41108976657E+03  0.41108976657E+03  0.00000000000E+00 0.  1.
          1   -1    0    0  501    0  0.00000000000E+00 -0.00000000000E+00 -0.95189616676E+03  0.95189616676E+03  0.00000000000E+00 0. -1.
         23    2    1    2    0    0 -0.19829509849E+03  0.25423698847E+03  0.17198699923E+03  0.37708860366E+03  0.93053182195E+02 0.  0.
    5000000    2    1    2    0    0  0.19829509849E+03 -0.25423698847E+03 -0.71279339943E+03  0.98589732967E+03  0.59996810081E+03 0.  0.
         23    2    4    4    0    0  0.65603442620E+02 -0.22880628655E+02 -0.69395803809E+03  0.70323768519E+03  0.90211686526E+02 0.  0.
         23    2    4    4    0    0  0.13269165587E+03 -0.23135635981E+03 -0.18835361338E+02  0.28265964448E+03  0.91699852895E+02 0.  0.
          4    1    3    3  502    0 -0.16216626254E+03  0.13570473106E+03  0.10195230438E+03  0.23475081067E+03  0.00000000000E+00 0. -1.
         -4    1    3    3    0  502 -0.36128835947E+02  0.11853225740E+03  0.70034694851E+02  0.14233779299E+03  0.00000000000E+00 0.  1.
         11    1    5    5    0    0  0.39358467431E+02 -0.56313912101E+02 -0.35146178466E+03  0.35811413227E+03  0.00000000000E+00 0.  1.
        -11    1    5    5    0    0  0.26244975189E+02  0.33433283446E+02 -0.34249625343E+03  0.34512355292E+03  0.00000000000E+00 0. -1.
          3    1    6    6  503    0 -0.31390214465E+01 -0.41519717902E+01  0.14923231791E+02  0.15804909758E+02  0.00000000000E+00 0. -1.
         -3    1    6    6    0  503  0.13583067731E+03 -0.22720438802E+03 -0.33758593128E+02  0.26685473472E+03  0.00000000000E+00 0.  1.
<mgrwt>
<rscale>  0 0.35824832E+03</rscale>
<asrwt>0</asrwt>
<pdfrwt beam="1">  1        1 0.14644556E+00 0.35824832E+03</pdfrwt>
<pdfrwt beam="2">  1       -1 0.63244581E-01 0.35824832E+03</pdfrwt>
<totfact> 0.45394036E+01</totfact>
</mgrwt>
</event>
<event>
12    1  0.1338445E-007  0.6268145E+03  0.7818608E-02  0.9851285E-01
         -2   -1    0    0    0  501 -0.00000000000E+00  0.00000000000E+00  0.20035587674E+03  0.20035587674E+03  0.00000000000E+00 0.  1.
          2   -1    0    0  501    0  0.00000000000E+00 -0.00000000000E+00 -0.37342138827E+04  0.37342138827E+04  0.00000000000E+00 0. -1.
         23    2    1    2    0    0 -0.43114418209E+03  0.22894140385E+03 -0.28745781294E+04  0.29182142917E+04  0.12031524463E+03 0.  0.
    5000000    2    1    2    0    0  0.43114418209E+03 -0.22894140385E+03 -0.65927987652E+03  0.10163554677E+04  0.60002417367E+03 0.  0.
         23    2    4    4    0    0  0.35890288974E+03  0.12882309948E+03 -0.26690595069E+03  0.47283593194E+03  0.83236751485E+02 0.  0.
         23    2    4    4    0    0  0.72241292343E+02 -0.35776450333E+03 -0.39237392583E+03  0.54351953575E+03  0.90785152479E+02 0.  0.
          2    1    3    3  502    0 -0.17983452291E+03  0.14301226280E+03 -0.10874908098E+04  0.11114986389E+04  0.00000000000E+00 0.  1.
         -2    1    3    3    0  502 -0.25130965918E+03  0.85929141047E+02 -0.17870873196E+04  0.18067156528E+04  0.00000000000E+00 0. -1.
         13    1    5    5    0    0  0.29507788646E+03  0.69832813817E+02 -0.20172023974E+03  0.36419587599E+03  0.00000000000E+00 0.  1.
        -13    1    5    5    0    0  0.63825003281E+02  0.58990285663E+02 -0.65185710944E+02  0.10864005595E+03  0.00000000000E+00 0. -1.
          3    1    6    6  503    0  0.15606076913E+02 -0.19814726239E+03 -0.26670326323E+03  0.33262068163E+03  0.00000000000E+00 0. -1.
         -3    1    6    6    0  503  0.56635215430E+02 -0.15961724094E+03 -0.12567066260E+03  0.21089885412E+03  0.00000000000E+00 0.  1.
<mgrwt>
<rscale>  0 0.62681445E+03</rscale>
<asrwt>0</asrwt>
<pdfrwt beam="1">  1        2 0.57449447E+00 0.62681445E+03</pdfrwt>
<pdfrwt beam="2">  1       -2 0.30823979E-01 0.62681445E+03</pdfrwt>
<totfact> 0.60257020E+00</totfact>
</mgrwt>
</event>
<event>
12    1  0.1338445E-007  0.1240392E+04  0.7818608E-02  0.9078218E-01
         -2   -1    0    0    0  501 -0.00000000000E+00  0.00000000000E+00  0.79650442750E+03  0.79650442750E+03  0.00000000000E+00 0.  1.
          2   -1    0    0  501    0  0.00000000000E+00 -0.00000000000E+00 -0.21438251114E+04  0.21438251114E+04  0.00000000000E+00 0. -1.
         23    2    1    2    0    0 -0.73525088588E+02  0.11726907484E+04 -0.20709477673E+03  0.11965775180E+04  0.91104226181E+02 0.  0.
    5000000    2    1    2    0    0  0.73525088588E+02 -0.11726907484E+04 -0.11402259072E+04  0.17437520209E+04  0.59995538240E+03 0.  0.
         23    2    4    4    0    0  0.30865429282E+03 -0.78824687070E+03 -0.82491783178E+03  0.11853648614E+04  0.89441734734E+02 0.  0.
         23    2    4    4    0    0 -0.23512920424E+03 -0.38444387772E+03 -0.31530807537E+03  0.55838715942E+03  0.96406429325E+02 0.  0.
          3    1    3    3  502    0 -0.90423301583E+02  0.75055642210E+03 -0.13882735375E+03  0.76862497382E+03  0.00000000000E+00 0. -1.
         -3    1    3    3    0  502  0.16898212995E+02  0.42213432631E+03 -0.68267422976E+02  0.42795254421E+03  0.00000000000E+00 0.  1.
         13    1    5    5    0    0  0.13936908194E+03 -0.26798855067E+03 -0.33352667940E+03  0.44997961084E+03  0.00000000000E+00 0. -1.
        -13    1    5    5    0    0  0.16928521088E+03 -0.52025832002E+03 -0.49139115238E+03  0.73538525061E+03  0.00000000000E+00 0.  1.
          3    1    6    6  503    0 -0.12216938374E+03 -0.15449627241E+03 -0.18808520119E+03  0.27234261403E+03  0.00000000000E+00 0. -1.
         -3    1    6    6    0  503 -0.11295982050E+03 -0.22994760530E+03 -0.12722287418E+03  0.28604454539E+03  0.00000000000E+00 0.  1.
<mgrwt>
<rscale>  0 0.12403917E+04</rscale>
<asrwt>0</asrwt>
<pdfrwt beam="1">  1        2 0.32981925E+00 0.12403917E+04</pdfrwt>
<pdfrwt beam="2">  1       -2 0.12253914E+00 0.12403917E+04</pdfrwt>
<totfact> 0.27222435E+00</totfact>
</mgrwt>
</event>
<event>
12    1  0.1338445E-007  0.5612933E+03  0.7818608E-02  0.9989133E-01
         -2   -1    0    0    0  501 -0.00000000000E+00  0.00000000000E+00  0.19498522755E+03  0.19498522755E+03  0.00000000000E+00 0.  1.
          2   -1    0    0  501    0  0.00000000000E+00 -0.00000000000E+00 -0.17496979901E+04  0.17496979901E+04  0.00000000000E+00 0. -1.
         23    2    1    2    0    0  0.40945670647E+03 -0.64026432340E+02 -0.72509426595E+03  0.84011146305E+03  0.90947222795E+02 0.  0.
    5000000    2    1    2    0    0 -0.40945670647E+03  0.64026432340E+02 -0.82961849658E+03  0.11045717546E+04  0.60004810861E+03 0.  0.
         23    2    4    4    0    0 -0.53821259442E+03  0.54526777182E+02 -0.51864650851E+03  0.75508433771E+03  0.92261530702E+02 0.  0.
         23    2    4    4    0    0  0.12875588795E+03  0.94996551576E+01 -0.31097198808E+03  0.34948741688E+03  0.93645902498E+02 0.  0.
          3    1    3    3  502    0  0.37514944564E+03 -0.35111827078E+02 -0.61526750568E+03  0.72147352724E+03  0.00000000000E+00 0. -1.
         -3    1    3    3    0  502  0.34307260832E+02 -0.28914605262E+02 -0.10982676027E+03  0.11863793582E+03  0.00000000000E+00 0.  1.
         13    1    5    5    0    0 -0.50418906244E+03  0.43428745215E+02 -0.50957679467E+03  0.71816514553E+03  0.00000000000E+00 0. -1.
        -13    1    5    5    0    0 -0.34023531977E+02  0.11098031968E+02 -0.90697138389E+01  0.36919192175E+02  0.00000000000E+00 0.  1.
          2    1    6    6  503    0  0.24541680065E+02  0.43093607358E+02 -0.10878009195E+03  0.11955108305E+03  0.00000000000E+00 0. -1.
         -2    1    6    6    0  503  0.10421420789E+03 -0.33593952201E+02 -0.20219189613E+03  0.22993633382E+03  0.00000000000E+00 0.  1.
<mgrwt>
<rscale>  0 0.56129330E+03</rscale>
<asrwt>0</asrwt>
<pdfrwt beam="1">  1        2 0.26918430E+00 0.56129330E+03</pdfrwt>
<pdfrwt beam="2">  1       -2 0.29997728E-01 0.56129330E+03</pdfrwt>
<totfact> 0.98515213E+01</totfact>
</mgrwt>
</event>
<event>
12    1  0.1338445E-007  0.8908696E+03  0.7818608E-02  0.9437067E-01
          2   -1    0    0  501    0  0.00000000000E+00  0.00000000000E+00  0.30696957467E+04  0.30696957467E+04  0.00000000000E+00 0. -1.
         -2   -1    0    0    0  501 -0.00000000000E+00 -0.00000000000E+00 -0.34607757019E+03  0.34607757019E+03  0.00000000000E+00 0.  1.
         23    2    1    2    0    0 -0.74457729065E+03  0.32832189221E+03  0.46505412462E+03  0.94141229362E+03  0.88267554007E+02 0.  0.
    5000000    2    1    2    0    0  0.74457729065E+03 -0.32832189221E+03  0.22585640519E+04  0.24743610233E+04  0.59929983345E+03 0.  0.
         23    2    4    4    0    0  0.40469835188E+03  0.95937196460E+02  0.13058467953E+04  0.13736543443E+04  0.93304358377E+02 0.  0.
         23    2    4    4    0    0  0.33987893876E+03 -0.42425908867E+03  0.95271725664E+03  0.11007066790E+04  0.91496200405E+02 0.  0.
          4    1    3    3  502    0 -0.60967903386E+03  0.23017289796E+03  0.37275043738E+03  0.75075360528E+03  0.00000000000E+00 0. -1.
         -4    1    3    3    0  502 -0.13489825679E+03  0.98148994257E+02  0.92303687241E+02  0.19065868833E+03  0.00000000000E+00 0.  1.
         11    1    5    5    0    0  0.38011961311E+03  0.75534042831E+02  0.11218464136E+04  0.11869017177E+04  0.00000000000E+00 0.  1.
        -11    1    5    5    0    0  0.24578738774E+02  0.20403153629E+02  0.18400038169E+03  0.18675262660E+03  0.00000000000E+00 0. -1.
          1    1    6    6  503    0  0.16093267543E+03 -0.19156695636E+03  0.34909412923E+03  0.42949264936E+03  0.00000000000E+00 0. -1.
         -1    1    6    6    0  503  0.17894626333E+03 -0.23269213232E+03  0.60362312741E+03  0.67121402961E+03  0.00000000000E+00 0.  1.
<mgrwt>
<rscale>  0 0.89086958E+03</rscale>
<asrwt>0</asrwt>
<pdfrwt beam="1">  1        2 0.47226087E+00 0.89086958E+03</pdfrwt>
<pdfrwt beam="2">  1       -2 0.53242705E-01 0.89086958E+03</pdfrwt>
<totfact> 0.54513129E+00</totfact>
</mgrwt>
</event>
<event>
12    1  0.1338445E-007  0.2940556E+03  0.7818608E-02  0.1088251E+00
          1   -1    0    0  501    0  0.00000000000E+00  0.00000000000E+00  0.35123456740E+04  0.35123456740E+04  0.00000000000E+00 0. -1.
         -1   -1    0    0    0  501 -0.00000000000E+00 -0.00000000000E+00 -0.51717630922E+02  0.51717630922E+02  0.00000000000E+00 0.  1.
         23    2    1    2    0    0  0.93202544274E+02 -0.16789787535E+03  0.67890607924E+03  0.71188966871E+03  0.94852649802E+02 0.  0.
    5000000    2    1    2    0    0 -0.93202544274E+02  0.16789787535E+03  0.27817219639E+04  0.28521736363E+04  0.60003412921E+03 0.  0.
         23    2    4    4    0    0  0.92685628616E+02 -0.27574217930E+02  0.22207096199E+04  0.22246405565E+04  0.90130051674E+02 0.  0.
         23    2    4    4    0    0 -0.18588817289E+03  0.19547209328E+03  0.56101234393E+03  0.62753307977E+03  0.79367273373E+02 0.  0.
          1    1    3    3  502    0  0.23775934164E+02 -0.25301338343E+02  0.28723845344E+03  0.28932919296E+03  0.00000000000E+00 0. -1.
         -1    1    3    3    0  502  0.69426610110E+02 -0.14259653701E+03  0.39166762580E+03  0.42256047574E+03  0.00000000000E+00 0.  1.
         13    1    5    5    0    0  0.50209241225E+02  0.25048324158E+02  0.62990957244E+03  0.63240371275E+03  0.00000000000E+00 0. -1.
        -13    1    5    5    0    0  0.42476387391E+02 -0.52622542089E+02  0.15908000475E+04  0.15922368437E+04  0.00000000000E+00 0.  1.
          2    1    6    6  503    0 -0.39776031019E+02  0.58763422105E+02  0.82193658877E+02  0.10858669339E+03  0.00000000000E+00 0. -1.
         -2    1    6    6    0  503 -0.14611214187E+03  0.13670867118E+03  0.47881868506E+03  0.51894638638E+03  0.00000000000E+00 0.  1.
<mgrwt>
<rscale>  0 0.29405555E+03</rscale>
<asrwt>0</asrwt>
<pdfrwt beam="1">  1        1 0.54036069E+00 0.29405555E+03</pdfrwt>
<pdfrwt beam="2">  1       -1 0.79565614E-02 0.29405555E+03</pdfrwt>
<totfact> 0.26436130E+01</totfact>
</mgrwt>
</event>
<event>
12    1  0.1338445E-007  0.5816600E+03  0.7818608E-02  0.9944204E-01
         -2   -1    0    0    0  501 -0.00000000000E+00  0.00000000000E+00  0.72085127827E+03  0.72085127827E+03  0.00000000000E+00 0.  1.
          2   -1    0    0  501    0  0.00000000000E+00 -0.00000000000E+00 -0.68030480548E+03  0.68030480548E+03  0.00000000000E+00 0. -1.
         23    2    1    2    0    0  0.32176428912E+03  0.34152300932E+03  0.33588184293E+03  0.58422747625E+03  0.91295717043E+02 0.  0.
    5000000    2    1    2    0    0 -0.32176428912E+03 -0.34152300932E+03 -0.29533537014E+03  0.81692860750E+03  0.59998262078E+03 0.  0.
         23    2    4    4    0    0  0.12626099374E+03 -0.12391481949E+03 -0.23557619558E+03  0.30693820433E+03  0.86128951711E+02 0.  0.
         23    2    4    4    0    0 -0.44802528286E+03 -0.21760818983E+03 -0.59759174563E+02  0.50999040317E+03  0.91864432816E+02 0.  0.
          3    1    3    3  502    0  0.14383977971E+03  0.19355389467E+03  0.21533697302E+03  0.32330017680E+03  0.00000000000E+00 0. -1.
         -3    1    3    3    0  502  0.17792450941E+03  0.14796911466E+03  0.12054486991E+03  0.26092729946E+03  0.00000000000E+00 0.  1.
         13    1    5    5    0    0  0.53262861687E+02 -0.17855417520E+02 -0.28233338848E+02  0.62871852147E+02  0.00000000000E+00 0.  1.
        -13    1    5    5    0    0  0.72998132055E+02 -0.10605940197E+03 -0.20734285673E+03  0.24406635218E+03  0.00000000000E+00 0. -1.
          3    1    6    6  503    0 -0.27117364006E+03 -0.83047092791E+02 -0.20691347386E+02  0.28435909435E+03  0.00000000000E+00 0. -1.
         -3    1    6    6    0  503 -0.17685164280E+03 -0.13456109704E+03 -0.39067827176E+02  0.22563130882E+03  0.00000000000E+00 0.  1.
<mgrwt>
<rscale>  0 0.58165997E+03</rscale>
<asrwt>0</asrwt>
<pdfrwt beam="1">  1        2 0.10466228E+00 0.58165997E+03</pdfrwt>
<pdfrwt beam="2">  1       -2 0.11090020E+00 0.58165997E+03</pdfrwt>
<totfact> 0.28185572E+01</totfact>
</mgrwt>
</event>
<event>
12    1  0.1338445E-007  0.9242435E+03  0.7818608E-02  0.9395773E-01
          1   -1    0    0  501    0  0.00000000000E+00  0.00000000000E+00  0.71756857866E+03  0.71756857866E+03  0.00000000000E+00 0. -1.
         -1   -1    0    0    0  501 -0.00000000000E+00 -0.00000000000E+00 -0.12658319775E+04  0.12658319775E+04  0.00000000000E+00 0.  1.
         23    2    1    2    0    0  0.27369151947E+03 -0.81108139216E+03 -0.27206778040E+03  0.90224476710E+03  0.85233034053E+02 0.  0.
    5000000    2    1    2    0    0 -0.27369151947E+03  0.81108139216E+03 -0.27619561845E+03  0.10811557891E+04  0.59987811100E+03 0.  0.
         23    2    4    4    0    0 -0.40492580708E+03  0.57442738754E+03 -0.34451748346E+03  0.78796135415E+03  0.90879405902E+02 0.  0.
         23    2    4    4    0    0  0.13123428761E+03  0.23665400462E+03  0.68321865011E+02  0.29319443493E+03  0.89819503930E+02 0.  0.
          2    1    3    3  502    0  0.25165402010E+03 -0.79170708541E+03 -0.26593280016E+03  0.87226722346E+03  0.00000000000E+00 0. -1.
         -2    1    3    3    0  502  0.22037499364E+02 -0.19374306752E+02 -0.61349802438E+01  0.29977543645E+02  0.00000000000E+00 0.  1.
         11    1    5    5    0    0 -0.19610972004E+02  0.54831003442E+02 -0.79700155229E+01  0.58775422660E+02  0.00000000000E+00 0. -1.
        -11    1    5    5    0    0 -0.38531483508E+03  0.51959638410E+03 -0.33654746794E+03  0.72918593149E+03  0.00000000000E+00 0.  1.
          2    1    6    6  503    0  0.32396823250E+02  0.14475184254E+03  0.19198893064E+02  0.14957020950E+03  0.00000000000E+00 0. -1.
         -2    1    6    6    0  503  0.98837464363E+02  0.91902162083E+02  0.49122971947E+02  0.14362422543E+03  0.00000000000E+00 0.  1.
<mgrwt>
<rscale>  0 0.92424349E+03</rscale>
<asrwt>0</asrwt>
<pdfrwt beam="1">  1        1 0.11039517E+00 0.92424349E+03</pdfrwt>
<pdfrwt beam="2">  1       -1 0.19474338E+00 0.92424349E+03</pdfrwt>
<totfact> 0.43482315E+00</totfact>
</mgrwt>
</event>
<event>
12    1  0.1338445E-007  0.9032248E+03  0.7818608E-02  0.9421559E-01
         -2   -1    0    0    0  501 -0.00000000000E+00  0.00000000000E+00  0.33060361858E+03  0.33060361858E+03  0.00000000000E+00 0.  1.
          2   -1    0    0  501    0  0.00000000000E+00 -0.00000000000E+00 -0.27613067763E+04  0.27613067763E+04  0.00000000000E+00 0. -1.
         23    2    1    2    0    0  0.27879444788E+03 -0.80677655392E+03 -0.12521715452E+04  0.15178859802E+04  0.86194651925E+02 0.  0.
    5000000    2    1    2    0    0 -0.27879444788E+03  0.80677655392E+03 -0.11785316125E+04  0.15740244147E+04  0.60000112027E+03 0.  0.
         23    2    4    4    0    0  0.37931874759E+02  0.50788342663E+03 -0.32288950467E+03  0.60955680758E+03  0.88980150965E+02 0.  0.
         23    2    4    4    0    0 -0.31672632264E+03  0.29889312729E+03 -0.85564210783E+03  0.96446760714E+03  0.91769731023E+02 0.  0.
          3    1    3    3  502    0  0.22595439649E+03 -0.54675304394E+03 -0.89760128302E+03  0.10750266711E+04  0.00000000000E+00 0. -1.
         -3    1    3    3    0  502  0.52840051388E+02 -0.26002350999E+03 -0.35457026223E+03  0.44285930908E+03  0.00000000000E+00 0.  1.
         11    1    5    5    0    0  0.52980708048E+00  0.29684518269E+02  0.27299662491E+01  0.29814493726E+02  0.00000000000E+00 0.  1.
        -11    1    5    5    0    0  0.37402067678E+02  0.47819890836E+03 -0.32561947092E+03  0.57974231385E+03  0.00000000000E+00 0. -1.
          4    1    6    6  503    0 -0.17358078897E+03  0.20660061032E+03 -0.59196014995E+03  0.65056200444E+03  0.00000000000E+00 0. -1.
         -4    1    6    6    0  503 -0.14314553366E+03  0.92292516972E+02 -0.26368195788E+03  0.31390560271E+03  0.00000000000E+00 0.  1.
<mgrwt>
<rscale>  0 0.90322485E+03</rscale>
<asrwt>0</asrwt>
<pdfrwt beam="1">  1        2 0.42481642E+00 0.90322485E+03</pdfrwt>
<pdfrwt beam="2">  1       -2 0.50862096E-01 0.90322485E+03</pdfrwt>
<totfact> 0.91932624E+00</totfact>
</mgrwt>
</event>
<event>
12    1  0.1338445E-007  0.1459065E+04  0.7818608E-02  0.8912140E-01
          1   -1    0    0  501    0  0.00000000000E+00  0.00000000000E+00  0.73003940483E+03  0.73003940483E+03  0.00000000000E+00 0. -1.
         -1   -1    0    0    0  501 -0.00000000000E+00 -0.00000000000E+00 -0.29828019401E+04  0.29828019401E+04  0.00000000000E+00 0.  1.
         23    2    1    2    0    0 -0.14049363088E+04  0.84792103779E+02 -0.12373603343E+04  0.18762197795E+04  0.90024060593E+02 0.  0.
    5000000    2    1    2    0    0  0.14049363088E+04 -0.84792103779E+02 -0.10154022010E+04  0.18366215655E+04  0.60091714261E+03 0.  0.
         23    2    4    4    0    0  0.12737606009E+04  0.10109834524E+03 -0.89675894361E+03  0.15641261823E+04  0.98118130421E+02 0.  0.
         23    2    4    4    0    0  0.13117570794E+03 -0.18589044902E+03 -0.11864325737E+03  0.27249538315E+03  0.91734322507E+02 0.  0.
          1    1    3    3  502    0 -0.77230259098E+03  0.81121478720E+02 -0.71980863632E+03  0.10588467591E+04  0.00000000000E+00 0. -1.
         -1    1    3    3    0  502 -0.63263371781E+03  0.36706250594E+01 -0.51755169801E+03  0.81737302042E+03  0.00000000000E+00 0.  1.
         11    1    5    5    0    0  0.66709542439E+03  0.64432783567E+01 -0.44752540947E+03  0.80332858358E+03  0.00000000000E+00 0. -1.
        -11    1    5    5    0    0  0.60666517646E+03  0.94655066888E+02 -0.44923353415E+03  0.76079759872E+03  0.00000000000E+00 0.  1.
          4    1    6    6  503    0  0.88991281455E+02 -0.13512627727E+03 -0.12737041821E+03  0.20591693087E+03  0.00000000000E+00 0.  1.
         -4    1    6    6    0  503  0.42184426486E+02 -0.50764171753E+02  0.87271608363E+01  0.66578452280E+02  0.00000000000E+00 0. -1.
<mgrwt>
<rscale>  0 0.14590646E+04</rscale>
<asrwt>0</asrwt>
<pdfrwt beam="1">  1        1 0.11231375E+00 0.14590646E+04</pdfrwt>
<pdfrwt beam="2">  1       -1 0.45889261E+00 0.14590646E+04</pdfrwt>
<totfact> 0.68930072E-02</totfact>
</mgrwt>
</event>
<event>
12    1  0.1338445E-007  0.7688670E+03  0.7818608E-02  0.9606207E-01
         -1   -1    0    0    0  501 -0.00000000000E+00  0.00000000000E+00  0.49179399933E+03  0.49179399933E+03  0.00000000000E+00 0.  1.
          1   -1    0    0  501    0  0.00000000000E+00 -0.00000000000E+00 -0.14594683345E+04  0.14594683345E+04  0.00000000000E+00 0. -1.
         23    2    1    2    0    0 -0.19676914507E+03  0.66212594923E+03 -0.12600132366E+03  0.70795731870E+03  0.90544809067E+02 0.  0.
    5000000    2    1    2    0    0  0.19676914507E+03 -0.66212594923E+03 -0.84167301154E+03  0.12433050151E+04  0.60022082039E+03 0.  0.
         23    2    4    4    0    0  0.33331633669E+03 -0.30370413840E+03 -0.22505679815E+03  0.51137337414E+03  0.86695913405E+02 0.  0.
         23    2    4    4    0    0 -0.13654719163E+03 -0.35842181083E+03 -0.61661621339E+03  0.73193164100E+03  0.91635377777E+02 0.  0.
          1    1    3    3  502    0 -0.63551175167E+02  0.14758902424E+03 -0.63541836762E+02  0.17279709766E+03  0.00000000000E+00 0. -1.
         -1    1    3    3    0  502 -0.13321796990E+03  0.51453692500E+03 -0.62459486898E+02  0.53516022105E+03  0.00000000000E+00 0.  1.
         13    1    5    5    0    0  0.20898245180E+03 -0.23230354493E+03 -0.18227545881E+03  0.36174983764E+03  0.00000000000E+00 0. -1.
        -13    1    5    5    0    0  0.12433388489E+03 -0.71400593478E+02 -0.42781339337E+02  0.14962353651E+03  0.00000000000E+00 0.  1.
          4    1    6    6  503    0 -0.58727995309E+02 -0.24634233320E+03 -0.34500880380E+03  0.42797733265E+03  0.00000000000E+00 0. -1.
         -4    1    6    6    0  503 -0.77819196318E+02 -0.11207947762E+03 -0.27160740959E+03  0.30395430835E+03  0.00000000000E+00 0.  1.
<mgrwt>
<rscale>  0 0.76886701E+03</rscale>
<asrwt>0</asrwt>
<pdfrwt beam="1">  1        1 0.22453359E+00 0.76886701E+03</pdfrwt>
<pdfrwt beam="2">  1       -1 0.75660615E-01 0.76886701E+03</pdfrwt>
<totfact> 0.12668535E+01</totfact>
</mgrwt>
</event>
<event>
12    1  0.1338445E-007  0.1757019E+04  0.7818608E-02  0.8729496E-01
         -1   -1    0    0    0  501 -0.00000000000E+00  0.00000000000E+00  0.14458642390E+04  0.14458642390E+04  0.00000000000E+00 0.  1.
          1   -1    0    0  501    0  0.00000000000E+00 -0.00000000000E+00 -0.22451788994E+04  0.22451788994E+04  0.00000000000E+00 0. -1.
         23    2    1    2    0    0 -0.15289654493E+04 -0.84268990054E+03 -0.52136688833E+03  0.18242905475E+04  0.91383562792E+02 0.  0.
    5000000    2    1    2    0    0  0.15289654493E+04  0.84268990054E+03 -0.27794777214E+03  0.18667525909E+04  0.59970714345E+03 0.  0.
         23    2    4    4    0    0  0.35347226301E+03  0.10459834839E+03  0.15444541091E+03  0.41007752226E+03  0.91797244550E+02 0.  0.
         23    2    4    4    0    0  0.11754931863E+04  0.73809155215E+03 -0.43239318305E+03  0.14566750687E+04  0.91515137741E+02 0.  0.
          3    1    3    3  502    0 -0.97001404258E+03 -0.58351296187E+03 -0.34647071025E+03  0.11838313108E+04  0.00000000000E+00 0. -1.
         -3    1    3    3    0  502 -0.55895140676E+03 -0.25917693867E+03 -0.17489617808E+03  0.64045923662E+03  0.00000000000E+00 0.  1.
         11    1    5    5    0    0  0.18612091008E+03  0.14305276231E+02  0.10247377543E+03  0.21294719709E+03  0.00000000000E+00 0. -1.
        -11    1    5    5    0    0  0.16735135293E+03  0.90293072156E+02  0.51971635482E+02  0.19713032517E+03  0.00000000000E+00 0.  1.
          2    1    6    6  503    0  0.57564360099E+03  0.39396508981E+03 -0.25539353340E+03  0.74283235272E+03  0.00000000000E+00 0. -1.
         -2    1    6    6    0  503  0.59984958535E+03  0.34412646234E+03 -0.17699964965E+03  0.71384271594E+03  0.00000000000E+00 0.  1.
<mgrwt>
<rscale>  0 0.17570188E+04</rscale>
<asrwt>0</asrwt>
<pdfrwt beam="1">  1        1 0.34541214E+00 0.17570188E+04</pdfrwt>
<pdfrwt beam="2">  1       -1 0.22244065E+00 0.17570188E+04</pdfrwt>
<totfact> 0.19730280E-01</totfact>
</mgrwt>
</event>
<event>
12    1  0.1338445E-007  0.5351291E+03  0.7818608E-02  0.1004996E+00
         -2   -1    0    0    0  501 -0.00000000000E+00  0.00000000000E+00  0.49468511685E+03  0.49468511685E+03  0.00000000000E+00 0.  1.
          2   -1    0    0  501    0  0.00000000000E+00 -0.00000000000E+00 -0.81772312960E+03  0.81772312960E+03  0.00000000000E+00 0. -1.
         23    2    1    2    0    0 -0.44785018828E+03 -0.15665884301E+02 -0.32945457612E+03  0.56350922759E+03  0.90482709851E+02 0.  0.
    5000000    2    1    2    0    0  0.44785018828E+03  0.15665884301E+02  0.64165633677E+01  0.74889901886E+03  0.59999446422E+03 0.  0.
         23    2    4    4    0    0  0.50863730074E+03 -0.43580939922E+02  0.16760981034E+03  0.54401938173E+03  0.85163590495E+02 0.  0.
         23    2    4    4    0    0 -0.60787112458E+02  0.59246824223E+02 -0.16119324697E+03  0.20487963714E+03  0.93739765432E+02 0.  0.
          3    1    3    3  502    0 -0.74129760108E+02  0.19073026756E+02 -0.90667798827E+02  0.11865770699E+03  0.00000000000E+00 0. -1.
         -3    1    3    3    0  502 -0.37372042817E+03 -0.34738911057E+02 -0.23878677729E+03  0.44485152060E+03  0.00000000000E+00 0.  1.
         13    1    5    5    0    0  0.10409304833E+03  0.73552136479E+01  0.67138564991E+02  0.12408484512E+03  0.00000000000E+00 0. -1.
        -13    1    5    5    0    0  0.40454425241E+03 -0.50936153570E+02  0.10047124535E+03  0.41993453661E+03  0.00000000000E+00 0.  1.
          3    1    6    6  503    0 -0.51369148210E+02  0.54282191951E+01 -0.23513303269E+02  0.56755003146E+02  0.00000000000E+00 0. -1.
         -3    1    6    6    0  503 -0.94179642477E+01  0.53818605028E+02 -0.13767994370E+03  0.14812463399E+03  0.00000000000E+00 0.  1.
<mgrwt>
<rscale>  0 0.53512907E+03</rscale>
<asrwt>0</asrwt>
<pdfrwt beam="1">  1        2 0.12580356E+00 0.53512907E+03</pdfrwt>
<pdfrwt beam="2">  1       -2 0.76105403E-01 0.53512907E+03</pdfrwt>
<totfact> 0.53469439E+01</totfact>
</mgrwt>
</event>
<event>
12    1  0.1338445E-007  0.8920107E+03  0.7818608E-02  0.9435624E-01
          2   -1    0    0  501    0  0.00000000000E+00  0.00000000000E+00  0.55979134310E+03  0.55979134310E+03  0.00000000000E+00 0.  1.
         -2   -1    0    0    0  501 -0.00000000000E+00 -0.00000000000E+00 -0.16769251374E+04  0.16769251374E+04  0.00000000000E+00 0. -1.
         23    2    1    2    0    0  0.74617222630E+03 -0.29603078962E+03 -0.90353991732E+03  0.12120309590E+04  0.90705257576E+02 0.  0.
    5000000    2    1    2    0    0 -0.74617222630E+03  0.29603078962E+03 -0.21359387701E+03  0.10246855215E+04  0.59995904357E+03 0.  0.
         23    2    4    4    0    0 -0.42423802052E+03 -0.12436779568E+03 -0.15729631161E+02  0.45201028919E+03  0.92847367138E+02 0.  0.
         23    2    4    4    0    0 -0.32193420578E+03  0.42039858531E+03 -0.19786424585E+03  0.57267523231E+03  0.91815350187E+02 0.  0.
          3    1    3    3  502    0  0.53480825255E+03 -0.18919411895E+03 -0.58255801561E+03  0.81313475095E+03  0.00000000000E+00 0. -1.
         -3    1    3    3    0  502  0.21136397374E+03 -0.10683667068E+03 -0.32098190171E+03  0.39889620809E+03  0.00000000000E+00 0.  1.
         11    1    5    5    0    0 -0.49547631282E+01 -0.45269038985E+01 -0.14452407691E+02  0.15934698762E+02  0.00000000000E+00 0. -1.
        -11    1    5    5    0    0 -0.41928325739E+03 -0.11984089178E+03 -0.12772234703E+01  0.43607559043E+03  0.00000000000E+00 0.  1.
          1    1    6    6  503    0 -0.35083313790E+02  0.10538148570E+03 -0.33374638333E+02  0.11597397518E+03  0.00000000000E+00 0. -1.
         -1    1    6    6    0  503 -0.28685089199E+03  0.31501709961E+03 -0.16448960752E+03  0.45670125713E+03  0.00000000000E+00 0.  1.
<mgrwt>
<rscale>  0 0.89201065E+03</rscale>
<asrwt>0</asrwt>
<pdfrwt beam="1">  1        2 0.86121747E-01 0.89201065E+03</pdfrwt>
<pdfrwt beam="2">  1       -2 0.25798848E+00 0.89201065E+03</pdfrwt>
<totfact> 0.31331694E+00</totfact>
</mgrwt>
</event>
<event>
12    1  0.1338445E-007  0.7816295E+03  0.7818608E-02  0.9586995E-01
          2   -1    0    0  501    0  0.00000000000E+00  0.00000000000E+00  0.78957435571E+03  0.78957435571E+03  0.00000000000E+00 0. -1.
         -2   -1    0    0    0  501 -0.00000000000E+00 -0.00000000000E+00 -0.10614868111E+04  0.10614868111E+04  0.00000000000E+00 0.  1.
         23    2    1    2    0    0  0.65472414936E+03  0.31492225245E+03 -0.49413521739E+03  0.88294405133E+03  0.87068064556E+02 0.  0.
    5000000    2    1    2    0    0 -0.65472414936E+03 -0.31492225245E+03  0.22222276205E+03  0.96811711543E+03  0.60002337985E+03 0.  0.
         23    2    4    4    0    0 -0.47055780911E+03 -0.20649587018E+02 -0.94831289143E+02  0.48880790891E+03  0.89939653437E+02 0.  0.
         23    2    4    4    0    0 -0.18416634025E+03 -0.29427266543E+03  0.31705405119E+03  0.47930920651E+03  0.93275943133E+02 0.  0.
          4    1    3    3  502    0  0.24712604804E+03  0.14175306226E+03 -0.14917462075E+03  0.32158712934E+03  0.00000000000E+00 0. -1.
         -4    1    3    3    0  502  0.40759810132E+03  0.17316919020E+03 -0.34496059665E+03  0.56135692199E+03  0.00000000000E+00 0.  1.
         11    1    5    5    0    0 -0.21885618250E+03  0.34704322879E+02 -0.51120210027E+02  0.22741084961E+03  0.00000000000E+00 0. -1.
        -11    1    5    5    0    0 -0.25170162660E+03 -0.55353909898E+02 -0.43711079116E+02  0.26139705930E+03  0.00000000000E+00 0.  1.
          2    1    6    6  503    0  0.39448858613E+01 -0.38487812676E+02  0.57024150381E+02  0.68910286429E+02  0.00000000000E+00 0. -1.
         -2    1    6    6    0  503 -0.18811122611E+03 -0.25578485276E+03  0.26002990081E+03  0.41039892009E+03  0.00000000000E+00 0.  1.
<mgrwt>
<rscale>  0 0.78162946E+03</rscale>
<asrwt>0</asrwt>
<pdfrwt beam="1">  1        2 0.12147298E+00 0.78162946E+03</pdfrwt>
<pdfrwt beam="2">  1       -2 0.16330566E+00 0.78162946E+03</pdfrwt>
<totfact> 0.84617318E+00</totfact>
</mgrwt>
</event>
<event>
12    1  0.1338445E-007  0.1114275E+04  0.7818608E-02  0.9191389E-01
         -2   -1    0    0    0  501 -0.00000000000E+00  0.00000000000E+00  0.29440463220E+04  0.29440463220E+04  0.00000000000E+00 0.  1.
          2   -1    0    0  501    0  0.00000000000E+00 -0.00000000000E+00 -0.45828455202E+03  0.45828455202E+03  0.00000000000E+00 0. -1.
         23    2    1    2    0    0 -0.83589263224E+03  0.61484423499E+03  0.72229707990E+03  0.12700390405E+04  0.12056602651E+03 0.  0.
    5000000    2    1    2    0    0  0.83589263224E+03 -0.61484423499E+03  0.17634646901E+04  0.21322918336E+04  0.60009234653E+03 0.  0.
         23    2    4    4    0    0  0.86756752940E+03 -0.40263299298E+03  0.14280081743E+04  0.17211008571E+04  0.90521097662E+02 0.  0.
         23    2    4    4    0    0 -0.31674897156E+02 -0.21221124201E+03  0.33545651575E+03  0.41119097650E+03  0.10251846102E+03 0.  0.
          4    1    3    3  502    0 -0.38331401372E+03  0.29185362285E+03  0.40811012707E+03  0.63139690061E+03  0.00000000000E+00 0.  1.
         -4    1    3    3    0  502 -0.45257861852E+03  0.32299061214E+03  0.31418695282E+03  0.63864213985E+03  0.00000000000E+00 0. -1.
         13    1    5    5    0    0  0.49722332203E+03 -0.27923338144E+03  0.85939528599E+03  0.10313886614E+04  0.00000000000E+00 0.  1.
        -13    1    5    5    0    0  0.37034420737E+03 -0.12339961155E+03  0.56861288834E+03  0.68971219566E+03  0.00000000000E+00 0. -1.
          1    1    6    6  503    0 -0.22965546058E+02 -0.59972524984E+01  0.98925491766E+01  0.25714701485E+02  0.00000000000E+00 0. -1.
         -1    1    6    6    0  503 -0.87093510985E+01 -0.20621398951E+03  0.32556396658E+03  0.38547627502E+03  0.00000000000E+00 0.  1.
<mgrwt>
<rscale>  0 0.11142747E+04</rscale>
<asrwt>0</asrwt>
<pdfrwt beam="1">  1        2 0.70505318E-01 0.11142747E+04</pdfrwt>
<pdfrwt beam="2">  1       -2 0.45293019E+00 0.11142747E+04</pdfrwt>
<totfact> 0.22719093E-01</totfact>
</mgrwt>
</event>
<event>
12    1  0.1338445E-007  0.7249232E+03  0.7818608E-02  0.9675535E-01
          2   -1    0    0  501    0  0.00000000000E+00  0.00000000000E+00  0.18723132421E+04  0.18723132421E+04  0.00000000000E+00 0. -1.
         -2   -1    0    0    0  501 -0.00000000000E+00 -0.00000000000E+00 -0.30497700956E+03  0.30497700956E+03  0.00000000000E+00 0.  1.
         23    2    1    2    0    0  0.32902400091E+03 -0.51911500231E+03  0.87931771272E+03  0.10766261900E+04  0.90482784158E+02 0.  0.
    5000000    2    1    2    0    0 -0.32902400091E+03  0.51911500231E+03  0.68801851984E+03  0.11006640617E+04  0.60029552245E+03 0.  0.
         23    2    4    4    0    0 -0.16432577234E+02  0.50675935818E+03  0.30659421509E+03  0.59928350768E+03  0.89808870119E+02 0.  0.
         23    2    4    4    0    0 -0.31259142368E+03  0.12355644136E+02  0.38142430476E+03  0.50138055403E+03  0.89620865862E+02 0.  0.
          2    1    3    3  502    0  0.16977812893E+03 -0.18730233850E+03  0.33957816936E+03  0.42334396438E+03  0.00000000000E+00 0. -1.
         -2    1    3    3    0  502  0.15924587199E+03 -0.33181266381E+03  0.53973954335E+03  0.65328222559E+03  0.00000000000E+00 0.  1.
         13    1    5    5    0    0 -0.35534735561E+02  0.12441915880E+03  0.10495752110E+03  0.16661010097E+03  0.00000000000E+00 0. -1.
        -13    1    5    5    0    0  0.19102158327E+02  0.38234019938E+03  0.20163669398E+03  0.43267340671E+03  0.00000000000E+00 0.  1.
          3    1    6    6  503    0 -0.29174637908E+03  0.24314886793E+02  0.31167788780E+03  0.42760994980E+03  0.00000000000E+00 0. -1.
         -3    1    6    6    0  503 -0.20845044596E+02 -0.11959242657E+02  0.69746416958E+02  0.73770604225E+02  0.00000000000E+00 0.  1.
<mgrwt>
<rscale>  0 0.72492322E+03</rscale>
<asrwt>0</asrwt>
<pdfrwt beam="1">  1        2 0.28804818E+00 0.72492322E+03</pdfrwt>
<pdfrwt beam="2">  1       -2 0.46919541E-01 0.72492322E+03</pdfrwt>
<totfact> 0.34979659E+01</totfact>
</mgrwt>
</event>
<event>
12    1  0.1338445E-007  0.8211950E+03  0.7818608E-02  0.9529835E-01
         -4   -1    0    0    0  501 -0.00000000000E+00  0.00000000000E+00  0.54120878564E+03  0.54120878564E+03  0.00000000000E+00 0.  1.
          4   -1    0    0  501    0  0.00000000000E+00 -0.00000000000E+00 -0.15160472168E+04  0.15160472168E+04  0.00000000000E+00 0. -1.
         23    2    1    2    0    0  0.94866952790E+02  0.79639802107E+03 -0.37520348715E+03  0.88988659896E+03  0.88718405917E+02 0.  0.
    5000000    2    1    2    0    0 -0.94866952790E+02 -0.79639802107E+03 -0.59963494399E+03  0.11673694035E+04  0.59994975739E+03 0.  0.
         23    2    4    4    0    0 -0.13787651975E+03 -0.74323989681E+03 -0.25500946724E+03  0.80300388007E+03  0.91487289326E+02 0.  0.
         23    2    4    4    0    0  0.43009566965E+02 -0.53158124257E+02 -0.34462547675E+03  0.36436552340E+03  0.96539662243E+02 0.  0.
          2    1    3    3  502    0  0.11055293006E+03  0.64400864546E+03 -0.31333223046E+03  0.72466969884E+03  0.00000000000E+00 0.  1.
         -2    1    3    3    0  502 -0.15685977269E+02  0.15238937561E+03 -0.61871256684E+02  0.16521690012E+03  0.00000000000E+00 0. -1.
         11    1    5    5    0    0 -0.75509110248E+02 -0.25283457045E+03 -0.12418337752E+03  0.29163068596E+03  0.00000000000E+00 0.  1.
        -11    1    5    5    0    0 -0.62367409507E+02 -0.49040532637E+03 -0.13082608972E+03  0.51137319410E+03  0.00000000000E+00 0. -1.
          1    1    6    6  503    0  0.48235066560E+02 -0.37686108758E+02 -0.87856072094E+02  0.10707732647E+03  0.00000000000E+00 0. -1.
         -1    1    6    6    0  503 -0.52254995943E+01 -0.15472015499E+02 -0.25676940466E+03  0.25728819693E+03  0.00000000000E+00 0.  1.
<mgrwt>
<rscale>  0 0.82119496E+03</rscale>
<asrwt>0</asrwt>
<pdfrwt beam="1">  1        4 0.23323803E+00 0.82119496E+03</pdfrwt>
<pdfrwt beam="2">  1       -4 0.83262890E-01 0.82119496E+03</pdfrwt>
<totfact> 0.20013338E-01</totfact>
</mgrwt>
</event>
<event>
12    1  0.1338445E-007  0.7361710E+03  0.7818608E-02  0.9657299E-01
         -1   -1    0    0    0  501 -0.00000000000E+00  0.00000000000E+00  0.48641392930E+03  0.48641392930E+03  0.00000000000E+00 0.  1.
          1   -1    0    0  501    0  0.00000000000E+00 -0.00000000000E+00 -0.28857735073E+04  0.28857735073E+04  0.00000000000E+00 0. -1.
         23    2    1    2    0    0 -0.69782027913E+03  0.16855684210E+03  0.73807918000E+02  0.72794705427E+03  0.95366420106E+02 0.  0.
    5000000    2    1    2    0    0  0.69782027913E+03 -0.16855684210E+03 -0.24731674960E+04  0.26442403824E+04  0.60007098351E+03 0.  0.
         23    2    4    4    0    0  0.12452657202E+03 -0.68201954788E+02 -0.90869377965E+02  0.19020022402E+03  0.88093743197E+02 0.  0.
         23    2    4    4    0    0  0.57329370711E+03 -0.10035488731E+03 -0.23822981181E+04  0.24540401583E+04  0.90730355042E+02 0.  0.
          2    1    3    3  502    0 -0.33161987250E+03  0.10480623745E+03  0.77070967850E+02  0.35622467816E+03  0.00000000000E+00 0. -1.
         -2    1    3    3    0  502 -0.36620040663E+03  0.63750604649E+02 -0.32630498497E+01  0.37172237612E+03  0.00000000000E+00 0.  1.
         11    1    5    5    0    0  0.50182228033E+02 -0.76096694216E+02 -0.38663110037E+02  0.99014135146E+02  0.00000000000E+00 0.  1.
        -11    1    5    5    0    0  0.74344343989E+02  0.78947394284E+01 -0.52206267928E+02  0.91186088878E+02  0.00000000000E+00 0. -1.
          4    1    6    6  503    0  0.28056632582E+03 -0.10656364839E+02 -0.10363163215E+04  0.10736771114E+04  0.00000000000E+00 0. -1.
         -4    1    6    6    0  503  0.29272738129E+03 -0.89698522474E+02 -0.13459817966E+04  0.13803630469E+04  0.00000000000E+00 0.  1.
<mgrwt>
<rscale>  0 0.73617096E+03</rscale>
<asrwt>0</asrwt>
<pdfrwt beam="1">  1        1 0.44396515E+00 0.73617096E+03</pdfrwt>
<pdfrwt beam="2">  1       -1 0.74832913E-01 0.73617096E+03</pdfrwt>
<totfact> 0.14000502E+00</totfact>
</mgrwt>
</event>
<event>
12    1  0.1338445E-007  0.7963691E+03  0.7818608E-02  0.9565288E-01
          1   -1    0    0  501    0  0.00000000000E+00  0.00000000000E+00  0.98116069535E+03  0.98116069535E+03  0.00000000000E+00 0. -1.
         -1   -1    0    0    0  501 -0.00000000000E+00 -0.00000000000E+00 -0.92805442617E+03  0.92805442617E+03  0.00000000000E+00 0.  1.
         23    2    1    2    0    0 -0.70415951394E+03 -0.34288023443E+03 -0.32513172984E+03  0.85281203421E+03  0.90389422508E+02 0.  0.
    5000000    2    1    2    0    0  0.70415951394E+03  0.34288023443E+03  0.37823799902E+03  0.10564030873E+04  0.59959654997E+03 0.  0.
         23    2    4    4    0    0  0.36718827264E+03  0.91615621093E+02 -0.11162422944E+03  0.40469310173E+03  0.89977154845E+02 0.  0.
         23    2    4    4    0    0  0.33697124130E+03  0.25126461333E+03  0.48986222846E+03  0.65170998558E+03  0.89874240201E+02 0.  0.
          2    1    3    3  502    0 -0.36883126852E+02 -0.30322048001E+02 -0.83673254980E+00  0.47754494686E+02  0.00000000000E+00 0.  1.
         -2    1    3    3    0  502 -0.66727638709E+03 -0.31255818643E+03 -0.32429499729E+03  0.80505753952E+03  0.00000000000E+00 0. -1.
         13    1    5    5    0    0  0.31375108257E+03  0.94864390330E+02 -0.66009029780E+02  0.33435936711E+03  0.00000000000E+00 0. -1.
        -13    1    5    5    0    0  0.53437190075E+02 -0.32487692369E+01 -0.45615199660E+02  0.70333734614E+02  0.00000000000E+00 0.  1.
          1    1    6    6  503    0  0.14395420177E+03  0.15357288383E+03  0.20311338458E+03  0.29251066621E+03  0.00000000000E+00 0. -1.
         -1    1    6    6    0  503  0.19301703953E+03  0.97691729507E+02  0.28674884389E+03  0.35919931937E+03  0.00000000000E+00 0.  1.
<mgrwt>
<rscale>  0 0.79636913E+03</rscale>
<asrwt>0</asrwt>
<pdfrwt beam="1">  1        1 0.15094780E+00 0.79636913E+03</pdfrwt>
<pdfrwt beam="2">  1       -1 0.14277760E+00 0.79636913E+03</pdfrwt>
<totfact> 0.64063186E+00</totfact>
</mgrwt>
</event>
<event>
12    1  0.1338445E-007  0.7397122E+03  0.7818608E-02  0.9651630E-01
          1   -1    0    0  501    0  0.00000000000E+00  0.00000000000E+00  0.61842303905E+03  0.61842303905E+03  0.00000000000E+00 0. -1.
         -1   -1    0    0    0  501 -0.00000000000E+00 -0.00000000000E+00 -0.10648366359E+04  0.10648366359E+04  0.00000000000E+00 0.  1.
         23    2    1    2    0    0 -0.24690966202E+03  0.64889922553E+03 -0.25808474864E+03  0.74648003940E+03  0.92682930698E+02 0.  0.
    5000000    2    1    2    0    0  0.24690966202E+03 -0.64889922553E+03 -0.18832884818E+03  0.93677963552E+03  0.60004478530E+03 0.  0.
         23    2    4    4    0    0  0.12691840054E+02 -0.48847031329E+03 -0.33752686765E+03  0.60231876413E+03  0.10049466389E+03 0.  0.
         23    2    4    4    0    0  0.23421782197E+03 -0.16042891224E+03  0.14919801947E+03  0.33446087139E+03  0.94913652672E+02 0.  0.
          4    1    3    3  502    0 -0.49096607962E+02  0.24351622263E+03 -0.11044268785E+03  0.27186065346E+03  0.00000000000E+00 0.  1.
         -4    1    3    3    0  502 -0.19781305406E+03  0.40538300290E+03 -0.14764206079E+03  0.47461938594E+03  0.00000000000E+00 0. -1.
         11    1    5    5    0    0 -0.23758967973E+02 -0.20493351819E+03 -0.93696519927E+02  0.22658612773E+03  0.00000000000E+00 0.  1.
        -11    1    5    5    0    0  0.36450808026E+02 -0.28353679510E+03 -0.24383034772E+03  0.37573263640E+03  0.00000000000E+00 0. -1.
          2    1    6    6  503    0  0.15686965408E+03 -0.79690819962E+02  0.44973615479E+02  0.18160765746E+03  0.00000000000E+00 0. -1.
         -2    1    6    6    0  503  0.77348167885E+02 -0.80738092281E+02  0.10422440399E+03  0.15285321393E+03  0.00000000000E+00 0.  1.
<mgrwt>
<rscale>  0 0.73971222E+03</rscale>
<asrwt>0</asrwt>
<pdfrwt beam="1">  1        1 0.95142006E-01 0.73971222E+03</pdfrwt>
<pdfrwt beam="2">  1       -1 0.16382102E+00 0.73971222E+03</pdfrwt>
<totfact> 0.92547435E+00</totfact>
</mgrwt>
</event>
<event>
12    1  0.1338445E-007  0.3954576E+03  0.7818608E-02  0.1045364E+00
          2   -1    0    0  501    0  0.00000000000E+00  0.00000000000E+00  0.12639893969E+04  0.12639893969E+04  0.00000000000E+00 0. -1.
         -2   -1    0    0    0  501 -0.00000000000E+00 -0.00000000000E+00 -0.13318048081E+03  0.13318048081E+03  0.00000000000E+00 0.  1.
         23    2    1    2    0    0  0.12294568361E+03 -0.11330942946E+03  0.19327343300E+03  0.27145901519E+03  0.91546212918E+02 0.  0.
    5000000    2    1    2    0    0 -0.12294568361E+03  0.11330942946E+03  0.93753548312E+03  0.11257108626E+04  0.60024786217E+03 0.  0.
         23    2    4    4    0    0  0.21599241889E+03  0.12456818882E+03  0.32035473802E+03  0.41607117835E+03  0.91203665499E+02 0.  0.
         23    2    4    4    0    0 -0.33893810250E+03 -0.11258759366E+02  0.61718074511E+03  0.70963968421E+03  0.87582031709E+02 0.  0.
          2    1    3    3  502    0  0.10870666303E+03 -0.49182676457E+02  0.91642987309E+02  0.15044770312E+03  0.00000000000E+00 0. -1.
         -2    1    3    3    0  502  0.14239020585E+02 -0.64126752999E+02  0.10163044569E+03  0.12101131207E+03  0.00000000000E+00 0.  1.
         11    1    5    5    0    0  0.18151894584E+03  0.71937879396E+02  0.27989058759E+03  0.34126665119E+03  0.00000000000E+00 0. -1.
        -11    1    5    5    0    0  0.34473473054E+02  0.52630309426E+02  0.40464150423E+02  0.74804527163E+02  0.00000000000E+00 0.  1.
          3    1    6    6  503    0 -0.98682670451E+01 -0.15814192432E+02  0.56647660985E+02  0.59635801929E+02  0.00000000000E+00 0. -1.
         -3    1    6    6    0  503 -0.32906983546E+03  0.45554330657E+01  0.56053308412E+03  0.65000388228E+03  0.00000000000E+00 0.  1.
<mgrwt>
<rscale>  0 0.39545764E+03</rscale>
<asrwt>0</asrwt>
<pdfrwt beam="1">  1        2 0.19445990E+00 0.39545764E+03</pdfrwt>
<pdfrwt beam="2">  1       -2 0.20489306E-01 0.39545764E+03</pdfrwt>
<totfact> 0.36761401E+02</totfact>
</mgrwt>
</event>
<event>
12    1  0.1338445E-007  0.4721435E+03  0.7818608E-02  0.1021317E+00
         -1   -1    0    0    0  501 -0.00000000000E+00  0.00000000000E+00  0.43516308980E+03  0.43516308980E+03  0.00000000000E+00 0.  1.
          1   -1    0    0  501    0  0.00000000000E+00 -0.00000000000E+00 -0.18853313449E+04  0.18853313449E+04  0.00000000000E+00 0. -1.
         23    2    1    2    0    0  0.86811977953E+02 -0.27794629967E+03  0.31150961448E+03  0.43677899706E+03  0.94589573115E+02 0.  0.
    5000000    2    1    2    0    0 -0.86811977953E+02  0.27794629967E+03 -0.17616778696E+04  0.18837154377E+04  0.60007038654E+03 0.  0.
         23    2    4    4    0    0 -0.31915428886E+02 -0.16585020510E+03 -0.74627082114E+03  0.77054535614E+03  0.91077561747E+02 0.  0.
         23    2    4    4    0    0 -0.54896549068E+02  0.44379650477E+03 -0.10154070485E+04  0.11131700815E+04  0.90150915486E+02 0.  0.
          4    1    3    3  502    0  0.29512133048E+02 -0.18903609172E+03  0.24863709441E+03  0.31372920598E+03  0.00000000000E+00 0. -1.
         -4    1    3    3    0  502  0.57299844906E+02 -0.88910207954E+02  0.62872520070E+02  0.12304979108E+03  0.00000000000E+00 0.  1.
         13    1    5    5    0    0 -0.62810668760E+02 -0.88366151479E+02 -0.43081679115E+03  0.44424865152E+03  0.00000000000E+00 0.  1.
        -13    1    5    5    0    0  0.30895239874E+02 -0.77484053620E+02 -0.31545402999E+03  0.32629670463E+03  0.00000000000E+00 0. -1.
          1    1    6    6  503    0  0.35513098845E+01  0.30152259986E+03 -0.70339510823E+03  0.76530593119E+03  0.00000000000E+00 0. -1.
         -1    1    6    6    0  503 -0.58447858952E+02  0.14227390491E+03 -0.31201194023E+03  0.34786415033E+03  0.00000000000E+00 0.  1.
<mgrwt>
<rscale>  0 0.47214347E+03</rscale>
<asrwt>0</asrwt>
<pdfrwt beam="1">  1        1 0.29005097E+00 0.47214347E+03</pdfrwt>
<pdfrwt beam="2">  1       -1 0.66948168E-01 0.47214347E+03</pdfrwt>
<totfact> 0.89095763E+00</totfact>
</mgrwt>
</event>
<event>
12    1  0.1338445E-007  0.1309370E+04  0.7818608E-02  0.9022167E-01
          1   -1    0    0  501    0  0.00000000000E+00  0.00000000000E+00  0.13311552955E+04  0.13311552955E+04  0.00000000000E+00 0.  1.
         -1   -1    0    0    0  501 -0.00000000000E+00 -0.00000000000E+00 -0.13995315637E+04  0.13995315637E+04  0.00000000000E+00 0. -1.
         23    2    1    2    0    0 -0.12650706823E+04 -0.28163469675E+03 -0.89546525173E+02  0.13023529851E+04  0.91557544868E+02 0.  0.
    5000000    2    1    2    0    0  0.12650706823E+04  0.28163469675E+03  0.21170257012E+02  0.14283338741E+04  0.59997295145E+03 0.  0.
         23    2    4    4    0    0  0.10949773137E+04  0.23495046205E+03  0.22209905306E+03  0.11451726048E+04  0.88967792899E+02 0.  0.
         23    2    4    4    0    0  0.17009336859E+03  0.46684234701E+02 -0.20092879605E+03  0.28316126932E+03  0.93256375425E+02 0.  0.
          3    1    3    3  502    0 -0.76381654625E+03 -0.18877690693E+03 -0.95212894804E+02  0.79253891529E+03  0.00000000000E+00 0. -1.
         -3    1    3    3    0  502 -0.50125413608E+03 -0.92857789814E+02  0.56663696309E+01  0.50981406984E+03  0.00000000000E+00 0.  1.
         11    1    5    5    0    0  0.73128587647E+03  0.19467122916E+03  0.16940177475E+03  0.77548235433E+03  0.00000000000E+00 0.  1.
        -11    1    5    5    0    0  0.36369143727E+03  0.40279232883E+02  0.52697278313E+02  0.36969025046E+03  0.00000000000E+00 0. -1.
          3    1    6    6  503    0 -0.15070449902E+01 -0.16543335420E+02 -0.15416895307E+02  0.22663490294E+02  0.00000000000E+00 0. -1.
         -3    1    6    6    0  503  0.17160041358E+03  0.63227570121E+02 -0.18551190074E+03  0.26049777903E+03  0.00000000000E+00 0.  1.
<mgrwt>
<rscale>  0 0.13093701E+04</rscale>
<asrwt>0</asrwt>
<pdfrwt beam="1">  1        1 0.20479312E+00 0.13093701E+04</pdfrwt>
<pdfrwt beam="2">  1       -1 0.21531255E+00 0.13093701E+04</pdfrwt>
<totfact> 0.98395487E-01</totfact>
</mgrwt>
</event>
<event>
12    1  0.1338445E-007  0.7332838E+03  0.7818608E-02  0.9661947E-01
          4   -1    0    0  501    0  0.00000000000E+00  0.00000000000E+00  0.39230059081E+03  0.39230059081E+03  0.00000000000E+00 0. -1.
         -4   -1    0    0    0  501 -0.00000000000E+00 -0.00000000000E+00 -0.14130663048E+04  0.14130663048E+04  0.00000000000E+00 0.  1.
         23    2    1    2    0    0 -0.60597715637E+03  0.11066192141E+03 -0.51565264450E+03  0.80807002462E+03  0.87322047712E+02 0.  0.
    5000000    2    1    2    0    0  0.60597715637E+03 -0.11066192141E+03 -0.50511306945E+03  0.99729687095E+03  0.60000621746E+03 0.  0.
         23    2    4    4    0    0 -0.90017834876E+02  0.47923148413E+02 -0.11482258820E+03  0.17870366564E+03  0.91383448178E+02 0.  0.
         23    2    4    4    0    0  0.69599499124E+03 -0.15858506983E+03 -0.39029048125E+03  0.81859320532E+03  0.90608629990E+02 0.  0.
          1    1    3    3  502    0 -0.28846279082E+03  0.49831992918E+02 -0.30181208478E+03  0.42045754093E+03  0.00000000000E+00 0. -1.
         -1    1    3    3    0  502 -0.31751436555E+03  0.60829928496E+02 -0.21384055972E+03  0.38761248369E+03  0.00000000000E+00 0.  1.
         11    1    5    5    0    0 -0.28635903421E+02  0.65687676495E+02 -0.48023076752E+02  0.86261820690E+02  0.00000000000E+00 0.  1.
        -11    1    5    5    0    0 -0.61381931456E+02 -0.17764528082E+02 -0.66799511448E+02  0.92441844946E+02  0.00000000000E+00 0. -1.
          3    1    6    6  503    0  0.17865975364E+03 -0.22663120904E+02 -0.13963205137E+03  0.22788162364E+03  0.00000000000E+00 0. -1.
         -3    1    6    6    0  503  0.51733523760E+03 -0.13592194892E+03 -0.25065842988E+03  0.59071158168E+03  0.00000000000E+00 0.  1.
<mgrwt>
<rscale>  0 0.73328381E+03</rscale>
<asrwt>0</asrwt>
<pdfrwt beam="1">  1        4 0.60353937E-01 0.73328381E+03</pdfrwt>
<pdfrwt beam="2">  1       -4 0.21739482E+00 0.73328381E+03</pdfrwt>
<totfact> 0.51907513E-01</totfact>
</mgrwt>
</event>
<event>
12    1  0.1338445E-007  0.2283848E+03  0.7818608E-02  0.1127782E+00
         -2   -1    0    0    0  501 -0.00000000000E+00  0.00000000000E+00  0.11406021249E+03  0.11406021249E+03  0.00000000000E+00 0.  1.
          2   -1    0    0  501    0  0.00000000000E+00 -0.00000000000E+00 -0.24004257251E+04  0.24004257251E+04  0.00000000000E+00 0. -1.
         23    2    1    2    0    0 -0.20023656024E+03  0.51447079798E+02 -0.14347051556E+04  0.14523987025E+04  0.91332499439E+02 0.  0.
    5000000    2    1    2    0    0  0.20023656024E+03 -0.51447079798E+02 -0.85166035699E+03  0.10620872351E+04  0.59996870679E+03 0.  0.
         23    2    4    4    0    0  0.17320738840E+03 -0.41224819455E+02  0.49419456250E+01  0.19992415152E+03  0.90801753289E+02 0.  0.
         23    2    4    4    0    0  0.27029171842E+02 -0.10222260343E+02 -0.85660230262E+03  0.86216308353E+03  0.93394898281E+02 0.  0.
          3    1    3    3  502    0 -0.99707618860E+02  0.32800087574E+02 -0.43525862445E+03  0.44773599940E+03  0.00000000000E+00 0. -1.
         -3    1    3    3    0  502 -0.10052894138E+03  0.18646992224E+02 -0.99944653115E+03  0.10046627031E+04  0.00000000000E+00 0.  1.
         13    1    5    5    0    0  0.97281799344E+02 -0.45911071526E+02 -0.36127145636E+02  0.11347574906E+03  0.00000000000E+00 0.  1.
        -13    1    5    5    0    0  0.75925589055E+02  0.46862520706E+01  0.41069091261E+02  0.86448402465E+02  0.00000000000E+00 0. -1.
          2    1    6    6  503    0  0.27849882969E+02  0.20879725455E+02 -0.75732931169E+03  0.75812879201E+03  0.00000000000E+00 0. -1.
         -2    1    6    6    0  503 -0.82071112674E+00 -0.31101985797E+02 -0.99272990920E+02  0.10403429153E+03  0.00000000000E+00 0.  1.
<mgrwt>
<rscale>  0 0.22838483E+03</rscale>
<asrwt>0</asrwt>
<pdfrwt beam="1">  1        2 0.36929626E+00 0.22838483E+03</pdfrwt>
<pdfrwt beam="2">  1       -2 0.17547725E-01 0.22838483E+03</pdfrwt>
<totfact> 0.12198736E+02</totfact>
</mgrwt>
</event>
<event>
12    1  0.1338445E-007  0.4174505E+03  0.7818608E-02  0.1037899E+00
          2   -1    0    0  501    0  0.00000000000E+00  0.00000000000E+00  0.12819701575E+04  0.12819701575E+04  0.00000000000E+00 0. -1.
         -2   -1    0    0    0  501 -0.00000000000E+00 -0.00000000000E+00 -0.22172119372E+03  0.22172119372E+03  0.00000000000E+00 0.  1.
         23    2    1    2    0    0 -0.16181492445E+03 -0.12992892719E+03 -0.42932924180E+02  0.23088584967E+03  0.91648479022E+02 0.  0.
    5000000    2    1    2    0    0  0.16181492445E+03  0.12992892719E+03  0.11031818879E+04  0.12728055015E+04  0.59996497477E+03 0.  0.
         23    2    4    4    0    0 -0.16544379238E+03  0.21190390954E+03  0.54551925864E+03  0.61482311524E+03  0.90229076046E+02 0.  0.
         23    2    4    4    0    0  0.32725871682E+03 -0.81974982350E+02  0.55766262927E+03  0.65798238627E+03  0.90194495904E+02 0.  0.
          3    1    3    3  502    0 -0.28405700778E+02 -0.10810886990E+02 -0.42236071173E+02  0.52035034566E+02  0.00000000000E+00 0.  1.
         -3    1    3    3    0  502 -0.13340922367E+03 -0.11911804020E+03 -0.69685300746E+00  0.17885081511E+03  0.00000000000E+00 0. -1.
         13    1    5    5    0    0  0.15648311901E+01  0.53078642727E+02  0.10091710196E+03  0.11403531242E+03  0.00000000000E+00 0. -1.
        -13    1    5    5    0    0 -0.16700862357E+03  0.15882526681E+03  0.44460215669E+03  0.50078780282E+03  0.00000000000E+00 0.  1.
          4    1    6    6  503    0  0.23958424071E+02 -0.22784002276E+02  0.10353605621E+03  0.10868685191E+03  0.00000000000E+00 0.  1.
         -4    1    6    6    0  503  0.30330029275E+03 -0.59190980074E+02  0.45412657307E+03  0.54929553436E+03  0.00000000000E+00 0. -1.
<mgrwt>
<rscale>  0 0.41745048E+03</rscale>
<asrwt>0</asrwt>
<pdfrwt beam="1">  1        2 0.19722617E+00 0.41745048E+03</pdfrwt>
<pdfrwt beam="2">  1       -2 0.34110954E-01 0.41745048E+03</pdfrwt>
<totfact> 0.14290208E+02</totfact>
</mgrwt>
</event>
<event>
12    1  0.1338445E-007  0.1441773E+04  0.7818608E-02  0.8924124E-01
         -2   -1    0    0    0  501 -0.00000000000E+00  0.00000000000E+00  0.10138434429E+04  0.10138434429E+04  0.00000000000E+00 0.  1.
          2   -1    0    0  501    0  0.00000000000E+00 -0.00000000000E+00 -0.25594057866E+04  0.25594057866E+04  0.00000000000E+00 0. -1.
         23    2    1    2    0    0 -0.11890511076E+04 -0.72654043443E+03  0.15430634857E+02  0.13964762866E+04  0.90578006476E+02 0.  0.
    5000000    2    1    2    0    0  0.11890511076E+04  0.72654043443E+03 -0.15609929786E+04  0.21767729429E+04  0.59994818662E+03 0.  0.
         23    2    4    4    0    0  0.64976930501E+03  0.10980700645E+03 -0.49458790772E+03  0.82890244956E+03  0.90577834012E+02 0.  0.
         23    2    4    4    0    0  0.53928180256E+03  0.61673342798E+03 -0.10664050709E+04  0.13478704934E+04  0.91378925345E+02 0.  0.
          4    1    3    3  502    0 -0.33600002337E+03 -0.24912591457E+03  0.22590704177E+02  0.41889148586E+03  0.00000000000E+00 0. -1.
         -4    1    3    3    0  502 -0.85305108420E+03 -0.47741451986E+03 -0.71600693205E+01  0.97758480073E+03  0.00000000000E+00 0.  1.
         11    1    5    5    0    0 -0.16546156640E+01 -0.32319136622E+01 -0.84483784378E+00  0.37278371609E+01  0.00000000000E+00 0. -1.
        -11    1    5    5    0    0  0.65142392068E+03  0.11303892011E+03 -0.49374306988E+03  0.82517461240E+03  0.00000000000E+00 0.  1.
          3    1    6    6  503    0  0.23732223077E+03  0.21404136969E+03 -0.45314795116E+03  0.55450754259E+03  0.00000000000E+00 0. -1.
         -3    1    6    6    0  503  0.30195957178E+03  0.40269205829E+03 -0.61325711972E+03  0.79336295080E+03  0.00000000000E+00 0.  1.
<mgrwt>
<rscale>  0 0.14417730E+04</rscale>
<asrwt>0</asrwt>
<pdfrwt beam="1">  1        2 0.39375473E+00 0.14417730E+04</pdfrwt>
<pdfrwt beam="2">  1       -2 0.15597592E+00 0.14417730E+04</pdfrwt>
<totfact> 0.82444732E-01</totfact>
</mgrwt>
</event>
<event>
12    1  0.1338445E-007  0.1184725E+04  0.7818608E-02  0.9126333E-01
          1   -1    0    0  501    0  0.00000000000E+00  0.00000000000E+00  0.21361398952E+04  0.21361398952E+04  0.00000000000E+00 0. -1.
         -1   -1    0    0    0  501 -0.00000000000E+00 -0.00000000000E+00 -0.69382321845E+03  0.69382321845E+03  0.00000000000E+00 0.  1.
         23    2    1    2    0    0  0.11332314173E+04  0.10172655159E+03  0.56984110901E+03  0.12756992804E+04  0.90155577061E+02 0.  0.
    5000000    2    1    2    0    0 -0.11332314173E+04 -0.10172655159E+03  0.87247556775E+03  0.15542638332E+04  0.59996725789E+03 0.  0.
         23    2    4    4    0    0  0.37870284652E+02  0.29233827831E+02  0.11000405223E+03  0.14806162832E+03  0.86790432221E+02 0.  0.
         23    2    4    4    0    0 -0.11711017020E+04 -0.13096037942E+03  0.76247151552E+03  0.14062022049E+04  0.86093041723E+02 0.  0.
          4    1    3    3  502    0  0.33565732887E+03  0.64592815709E+02  0.19670632205E+03  0.39437476010E+03  0.00000000000E+00 0. -1.
         -4    1    3    3    0  502  0.79757408843E+03  0.37133735882E+02  0.37313478696E+03  0.88132452032E+03  0.00000000000E+00 0.  1.
         11    1    5    5    0    0  0.16129079346E+02  0.32467228583E+01  0.11286583877E+03  0.11405869529E+03  0.00000000000E+00 0. -1.
        -11    1    5    5    0    0  0.21741205305E+02  0.25987104972E+02 -0.28617865346E+01  0.34002933037E+02  0.00000000000E+00 0.  1.
          2    1    6    6  503    0 -0.72601230911E+03 -0.65090128860E+02  0.51704621311E+03  0.89368192571E+03  0.00000000000E+00 0. -1.
         -2    1    6    6    0  503 -0.44508939285E+03 -0.65870250563E+02  0.24542530241E+03  0.51252027921E+03  0.00000000000E+00 0.  1.
<mgrwt>
<rscale>  0 0.11847251E+04</rscale>
<asrwt>0</asrwt>
<pdfrwt beam="1">  1        1 0.32863690E+00 0.11847251E+04</pdfrwt>
<pdfrwt beam="2">  1       -1 0.10674203E+00 0.11847251E+04</pdfrwt>
<totfact> 0.19498761E+00</totfact>
</mgrwt>
</event>
<event>
12    1  0.1338445E-007  0.5307150E+03  0.7818608E-02  0.1006059E+00
         -1   -1    0    0    0  501 -0.00000000000E+00  0.00000000000E+00  0.14435512877E+03  0.14435512877E+03  0.00000000000E+00 0.  1.
          1   -1    0    0  501    0  0.00000000000E+00 -0.00000000000E+00 -0.20335464764E+04  0.20335464764E+04  0.00000000000E+00 0. -1.
         23    2    1    2    0    0  0.13351457974E+03  0.33715481133E+03 -0.79775371276E+03  0.88095353407E+03  0.90380491034E+02 0.  0.
    5000000    2    1    2    0    0 -0.13351457974E+03 -0.33715481133E+03 -0.10914376348E+04  0.12969480711E+04  0.59944864541E+03 0.  0.
         23    2    4    4    0    0 -0.25228618773E+03 -0.43936272249E+03 -0.86879575250E+03  0.10098543940E+04  0.91169704486E+02 0.  0.
         23    2    4    4    0    0  0.11877160799E+03  0.10220791116E+03 -0.22264188235E+03  0.28709367710E+03  0.91105541491E+02 0.  0.
          1    1    3    3  502    0  0.74751187913E+02  0.78191683763E+02 -0.22997235158E+03  0.25414358539E+03  0.00000000000E+00 0. -1.
         -1    1    3    3    0  502  0.58763391831E+02  0.25896312757E+03 -0.56778136119E+03  0.62680994868E+03  0.00000000000E+00 0.  1.
         13    1    5    5    0    0 -0.99447388616E+02 -0.16100466755E+03 -0.24201905404E+03  0.30722224625E+03  0.00000000000E+00 0.  1.
        -13    1    5    5    0    0 -0.15283879912E+03 -0.27835805494E+03 -0.62677669846E+03  0.70263214771E+03  0.00000000000E+00 0. -1.
          2    1    6    6  503    0  0.70161318785E+02  0.27579678575E+01 -0.95137382400E+02  0.11824271043E+03  0.00000000000E+00 0. -1.
         -2    1    6    6    0  503  0.48610289204E+02  0.99449943304E+02 -0.12750449995E+03  0.16885096667E+03  0.00000000000E+00 0.  1.
<mgrwt>
<rscale>  0 0.53071498E+03</rscale>
<asrwt>0</asrwt>
<pdfrwt beam="1">  1        1 0.31285329E+00 0.53071498E+03</pdfrwt>
<pdfrwt beam="2">  1       -1 0.22208482E-01 0.53071498E+03</pdfrwt>
<totfact> 0.51678449E+01</totfact>
</mgrwt>
</event>
<event>
12    1  0.1338445E-007  0.1322549E+04  0.7818608E-02  0.9011872E-01
         -2   -1    0    0    0  501 -0.00000000000E+00  0.00000000000E+00  0.75486805562E+03  0.75486805562E+03  0.00000000000E+00 0.  1.
          2   -1    0    0  501    0  0.00000000000E+00 -0.00000000000E+00 -0.25543336072E+04  0.25543336072E+04  0.00000000000E+00 0. -1.
         23    2    1    2    0    0 -0.12551407372E+04  0.21071737341E+03 -0.43211518799E+03  0.13472110154E+04  0.92053803161E+02 0.  0.
    5000000    2    1    2    0    0  0.12551407372E+04 -0.21071737341E+03 -0.13673503636E+04  0.19619906475E+04  0.59998350177E+03 0.  0.
         23    2    4    4    0    0  0.78440787421E+02  0.11292712543E+03 -0.28033579153E+03  0.32478498984E+03  0.89395977663E+02 0.  0.
         23    2    4    4    0    0  0.11766999497E+04 -0.32364449885E+03 -0.10870145721E+04  0.16372056576E+04  0.97330119440E+02 0.  0.
          3    1    3    3  502    0 -0.50213896976E+03  0.92596658903E+02 -0.12671256624E+03  0.52609292015E+03  0.00000000000E+00 0. -1.
         -3    1    3    3    0  502 -0.75300176740E+03  0.11812071451E+03 -0.30540262175E+03  0.82111809520E+03  0.00000000000E+00 0.  1.
         11    1    5    5    0    0  0.70583123540E+02  0.46787803185E+02 -0.21673670795E+03  0.23269266518E+03  0.00000000000E+00 0.  1.
        -11    1    5    5    0    0  0.78576638811E+01  0.66139322248E+02 -0.63599083583E+02  0.92092324662E+02  0.00000000000E+00 0. -1.
          3    1    6    6  503    0  0.38817647433E+03 -0.12547095920E+03 -0.42062487839E+03  0.58596008835E+03  0.00000000000E+00 0. -1.
         -3    1    6    6    0  503  0.78852347541E+03 -0.19817353965E+03 -0.66638969370E+03  0.10512455693E+04  0.00000000000E+00 0.  1.
<mgrwt>
<rscale>  0 0.13225489E+04</rscale>
<asrwt>0</asrwt>
<pdfrwt beam="1">  1        2 0.39297441E+00 0.13225489E+04</pdfrwt>
<pdfrwt beam="2">  1       -2 0.11613355E+00 0.13225489E+04</pdfrwt>
<totfact> 0.18037871E+00</totfact>
</mgrwt>
</event>
<event>
12    1  0.1338445E-007  0.5956023E+03  0.7818608E-02  0.9914572E-01
          1   -1    0    0  501    0  0.00000000000E+00  0.00000000000E+00  0.21431446160E+04  0.21431446160E+04  0.00000000000E+00 0. -1.
         -1   -1    0    0    0  501 -0.00000000000E+00 -0.00000000000E+00 -0.17087220975E+03  0.17087220975E+03  0.00000000000E+00 0.  1.
         23    2    1    2    0    0  0.41598547309E+03  0.15801365124E+03  0.88830442394E+03  0.99758119047E+03  0.89840159058E+02 0.  0.
    5000000    2    1    2    0    0 -0.41598547309E+03 -0.15801365124E+03  0.10839679823E+04  0.13164356352E+04  0.60000330613E+03 0.  0.
         23    2    4    4    0    0 -0.77950260617E+02  0.20653947713E+03  0.37868634934E+03  0.44869102063E+03  0.95840920678E+02 0.  0.
         23    2    4    4    0    0 -0.33803521247E+03 -0.36455312837E+03  0.70528163293E+03  0.86774461461E+03  0.91606474492E+02 0.  0.
          2    1    3    3  502    0  0.15492833774E+03  0.10071203626E+03  0.31888082067E+03  0.36855214268E+03  0.00000000000E+00 0. -1.
         -2    1    3    3    0  502  0.26105713535E+03  0.57301614973E+02  0.56942360328E+03  0.62902904779E+03  0.00000000000E+00 0.  1.
         13    1    5    5    0    0  0.19699542426E+02  0.56826203390E+02  0.73038570105E+02  0.94614597640E+02  0.00000000000E+00 0.  1.
        -13    1    5    5    0    0 -0.97649803043E+02  0.14971327374E+03  0.30564777924E+03  0.35407642299E+03  0.00000000000E+00 0. -1.
          4    1    6    6  503    0 -0.23609177646E+03 -0.21534912842E+03  0.50856544646E+03  0.60062749467E+03  0.00000000000E+00 0. -1.
         -4    1    6    6    0  503 -0.10194343601E+03 -0.14920399995E+03  0.19671618647E+03  0.26711711994E+03  0.00000000000E+00 0.  1.
<mgrwt>
<rscale>  0 0.59560226E+03</rscale>
<asrwt>0</asrwt>
<pdfrwt beam="1">  1        1 0.32971454E+00 0.59560226E+03</pdfrwt>
<pdfrwt beam="2">  1       -1 0.26288034E-01 0.59560226E+03</pdfrwt>
<totfact> 0.32510451E+01</totfact>
</mgrwt>
</event>
<event>
12    1  0.1338445E-007  0.1129166E+04  0.7818608E-02  0.9177222E-01
         -2   -1    0    0    0  501 -0.00000000000E+00  0.00000000000E+00  0.90234364282E+03  0.90234364282E+03  0.00000000000E+00 0.  1.
          2   -1    0    0  501    0  0.00000000000E+00 -0.00000000000E+00 -0.17123561308E+04  0.17123561308E+04  0.00000000000E+00 0. -1.
         23    2    1    2    0    0 -0.29665792545E+03  0.10227463135E+04  0.12473494629E+03  0.10759867693E+04  0.90403398248E+02 0.  0.
    5000000    2    1    2    0    0  0.29665792545E+03 -0.10227463135E+04 -0.93474743424E+03  0.15387130043E+04  0.59989082119E+03 0.  0.
         23    2    4    4    0    0 -0.21444523536E+02 -0.78510811698E+03 -0.46671077838E+03  0.91804445800E+03  0.90177897891E+02 0.  0.
         23    2    4    4    0    0  0.31810244899E+03 -0.23763819649E+03 -0.46803665586E+03  0.62066854630E+03  0.92249946682E+02 0.  0.
          1    1    3    3  502    0 -0.24186522569E+03  0.89442915237E+03  0.13380763705E+03  0.93616600010E+03  0.00000000000E+00 0. -1.
         -1    1    3    3    0  502 -0.54792699768E+02  0.12831716110E+03 -0.90726907604E+01  0.13982076920E+03  0.00000000000E+00 0.  1.
         13    1    5    5    0    0 -0.56304525319E+02 -0.50561055085E+03 -0.30926788997E+03  0.59536447364E+03  0.00000000000E+00 0. -1.
        -13    1    5    5    0    0  0.34860001784E+02 -0.27949756613E+03 -0.15744288842E+03  0.32267998436E+03  0.00000000000E+00 0.  1.
          1    1    6    6  503    0  0.33633572811E+02 -0.42610278032E+01 -0.74837556532E+02  0.82158587170E+02  0.00000000000E+00 0. -1.
         -1    1    6    6    0  503  0.28446887618E+03 -0.23337716869E+03 -0.39319909932E+03  0.53850995914E+03  0.00000000000E+00 0.  1.
<mgrwt>
<rscale>  0 0.11291659E+04</rscale>
<asrwt>0</asrwt>
<pdfrwt beam="1">  1        2 0.26343940E+00 0.11291659E+04</pdfrwt>
<pdfrwt beam="2">  1       -2 0.13882210E+00 0.11291659E+04</pdfrwt>
<totfact> 0.34740162E+00</totfact>
</mgrwt>
</event>
<event>
12    1  0.1338445E-007  0.3694014E+03  0.7818608E-02  0.1054922E+00
         -2   -1    0    0    0  501 -0.00000000000E+00  0.00000000000E+00  0.18396368222E+03  0.18396368222E+03  0.00000000000E+00 0. -1.
          2   -1    0    0  501    0  0.00000000000E+00 -0.00000000000E+00 -0.80916752502E+03  0.80916752502E+03  0.00000000000E+00 0.  1.
         23    2    1    2    0    0 -0.30818118149E+02 -0.11718761299E+03 -0.72147334402E+02  0.16813678178E+03  0.91553517025E+02 0.  0.
    5000000    2    1    2    0    0  0.30818118149E+02  0.11718761299E+03 -0.55305650840E+03  0.82499442546E+03  0.60005133739E+03 0.  0.
         23    2    4    4    0    0 -0.92767923723E+02  0.32671508853E+03 -0.32684729360E+03  0.48020147258E+03  0.91736929257E+02 0.  0.
         23    2    4    4    0    0  0.12358604187E+03 -0.20952747553E+03 -0.22620921480E+03  0.34479295288E+03  0.92392092447E+02 0.  0.
          1    1    3    3  502    0  0.18817845312E+01 -0.74589336034E+02  0.42721922742E+01  0.74735278081E+02  0.00000000000E+00 0. -1.
         -1    1    3    3    0  502 -0.32699902680E+02 -0.42598276958E+02 -0.76419526676E+02  0.93401503695E+02  0.00000000000E+00 0.  1.
         11    1    5    5    0    0 -0.63948099238E+02  0.79440357462E+02 -0.79972242076E+02  0.12959818399E+03  0.00000000000E+00 0. -1.
        -11    1    5    5    0    0 -0.28819824485E+02  0.24727473106E+03 -0.24687505153E+03  0.35060328859E+03  0.00000000000E+00 0.  1.
          4    1    6    6  503    0  0.78462142206E+02 -0.19800822910E+03 -0.19466281756E+03  0.28854320143E+03  0.00000000000E+00 0. -1.
         -4    1    6    6    0  503  0.45123899666E+02 -0.11519246434E+02 -0.31546397236E+02  0.56249751448E+02  0.00000000000E+00 0.  1.
<mgrwt>
<rscale>  0 0.36940141E+03</rscale>
<asrwt>0</asrwt>
<pdfrwt beam="1">  1        2 0.12448731E+00 0.36940141E+03</pdfrwt>
<pdfrwt beam="2">  1       -2 0.28302105E-01 0.36940141E+03</pdfrwt>
<totfact> 0.39730001E+02</totfact>
</mgrwt>
</event>
<event>
12    1  0.1338445E-007  0.7934334E+03  0.7818608E-02  0.9569571E-01
         -2   -1    0    0    0  501 -0.00000000000E+00  0.00000000000E+00  0.46829282579E+03  0.46829282579E+03  0.00000000000E+00 0.  1.
          2   -1    0    0  501    0  0.00000000000E+00 -0.00000000000E+00 -0.16572153050E+04  0.16572153050E+04  0.00000000000E+00 0. -1.
         23    2    1    2    0    0  0.66475871713E+03  0.32723587499E+03 -0.25016135878E+03  0.78755347440E+03  0.93125183169E+02 0.  0.
    5000000    2    1    2    0    0 -0.66475871713E+03 -0.32723587499E+03 -0.93876112046E+03  0.13379546564E+04  0.59988561533E+03 0.  0.
         23    2    4    4    0    0 -0.61999157706E+03 -0.14050963952E+03 -0.92398938347E+03  0.11252407117E+04  0.90982217964E+02 0.  0.
         23    2    4    4    0    0 -0.44767140065E+02 -0.18672623547E+03 -0.14771736987E+02  0.21271394476E+03  0.90322944145E+02 0.  0.
          3    1    3    3  502    0  0.29135816661E+03  0.11666187427E+03 -0.14734181236E+03  0.34671196090E+03  0.00000000000E+00 0. -1.
         -3    1    3    3    0  502  0.37340055052E+03  0.21057400072E+03 -0.10281954642E+03  0.44084151351E+03  0.00000000000E+00 0.  1.
         11    1    5    5    0    0 -0.54626912741E+03 -0.10150113230E+03 -0.83784767739E+03  0.10053363467E+04  0.00000000000E+00 0. -1.
        -11    1    5    5    0    0 -0.73722449659E+02 -0.39008507220E+02 -0.86141706084E+02  0.11990436500E+03  0.00000000000E+00 0.  1.
          4    1    6    6  503    0 -0.33437502004E+02 -0.21622852440E+02  0.18505439897E+02  0.43909743722E+02  0.00000000000E+00 0. -1.
         -4    1    6    6    0  503 -0.11329638060E+02 -0.16510338303E+03 -0.33277176883E+02  0.16880420104E+03  0.00000000000E+00 0.  1.
<mgrwt>
<rscale>  0 0.79343337E+03</rscale>
<asrwt>0</asrwt>
<pdfrwt beam="1">  1        2 0.25495620E+00 0.79343337E+03</pdfrwt>
<pdfrwt beam="2">  1       -2 0.72045052E-01 0.79343337E+03</pdfrwt>
<totfact> 0.18468421E+01</totfact>
</mgrwt>
</event>
<event>
12    1  0.1338445E-007  0.1227157E+04  0.7818608E-02  0.9089413E-01
          1   -1    0    0  501    0  0.00000000000E+00  0.00000000000E+00  0.19204254111E+04  0.19204254111E+04  0.00000000000E+00 0. -1.
         -1   -1    0    0    0  501 -0.00000000000E+00 -0.00000000000E+00 -0.11084539838E+04  0.11084539838E+04  0.00000000000E+00 0.  1.
         23    2    1    2    0    0  0.59812020444E+03  0.99394386504E+03 -0.41658163197E+03  0.12358806057E+04  0.90489941804E+02 0.  0.
    5000000    2    1    2    0    0 -0.59812020444E+03 -0.99394386504E+03  0.12285530593E+04  0.17929987891E+04  0.59985819374E+03 0.  0.
         23    2    4    4    0    0  0.86813606499E+02 -0.53058129535E+02  0.12839943177E+03  0.18903092748E+03  0.94310710320E+02 0.  0.
         23    2    4    4    0    0 -0.68493381093E+03 -0.94088573551E+03  0.11001536275E+04  0.16039678617E+04  0.89300641073E+02 0.  0.
          4    1    3    3  502    0  0.66766033343E+02  0.79330078084E+02 -0.59094636509E+02  0.11934462938E+03  0.00000000000E+00 0. -1.
         -4    1    3    3    0  502  0.53135417109E+03  0.91461378696E+03 -0.35748699546E+03  0.11165359763E+04  0.00000000000E+00 0.  1.
         13    1    5    5    0    0  0.10200874976E+03 -0.48674272937E+02  0.80975605449E+02  0.13903962943E+03  0.00000000000E+00 0.  1.
        -13    1    5    5    0    0 -0.15195143266E+02 -0.43838565983E+01  0.47423826318E+02  0.49991298045E+02  0.00000000000E+00 0. -1.
          2    1    6    6  503    0 -0.38225965610E+03 -0.54494692968E+03  0.68725958051E+03  0.95677339629E+03  0.00000000000E+00 0. -1.
         -2    1    6    6    0  503 -0.30267415483E+03 -0.39593880583E+03  0.41289404700E+03  0.64719446538E+03  0.00000000000E+00 0.  1.
<mgrwt>
<rscale>  0 0.12271571E+04</rscale>
<asrwt>0</asrwt>
<pdfrwt beam="1">  1        1 0.29545006E+00 0.12271571E+04</pdfrwt>
<pdfrwt beam="2">  1       -1 0.17053138E+00 0.12271571E+04</pdfrwt>
<totfact> 0.80497439E-01</totfact>
</mgrwt>
</event>
<event>
12    1  0.1338445E-007  0.4310389E+03  0.7818608E-02  0.1033532E+00
         -1   -1    0    0    0  501 -0.00000000000E+00  0.00000000000E+00  0.42207464138E+03  0.42207464138E+03  0.00000000000E+00 0.  1.
          1   -1    0    0  501    0  0.00000000000E+00 -0.00000000000E+00 -0.17164201398E+04  0.17164201398E+04  0.00000000000E+00 0. -1.
         23    2    1    2    0    0  0.18591036669E+03 -0.35761890657E+03 -0.13520341145E+04  0.14135953333E+04  0.88326513311E+02 0.  0.
    5000000    2    1    2    0    0 -0.18591036669E+03  0.35761890657E+03  0.57688615995E+02  0.72489944789E+03  0.59974768558E+03 0.  0.
         23    2    4    4    0    0 -0.16718907167E+03  0.14962349966E+03  0.30475034295E+03  0.38891258000E+03  0.89670764577E+02 0.  0.
         23    2    4    4    0    0 -0.18721295029E+02  0.20799540692E+03 -0.24706172695E+03  0.33598686790E+03  0.90747464373E+02 0.  0.
          2    1    3    3  502    0  0.46927644806E+02 -0.68667668672E+02 -0.41407942407E+03  0.42234964426E+03  0.00000000000E+00 0.  1.
         -2    1    3    3    0  502  0.13898272189E+03 -0.28895123790E+03 -0.93795469039E+03  0.99124568906E+03  0.00000000000E+00 0. -1.
         11    1    5    5    0    0 -0.12061622995E+03  0.13955424090E+03  0.19071297870E+03  0.26532075178E+03  0.00000000000E+00 0. -1.
        -11    1    5    5    0    0 -0.46572841716E+02  0.10069258753E+02  0.11403736424E+03  0.12359182821E+03  0.00000000000E+00 0.  1.
          1    1    6    6  503    0  0.33271163223E+02  0.11390107598E+03 -0.11008298710E+03  0.16186009224E+03  0.00000000000E+00 0. -1.
         -1    1    6    6    0  503 -0.51992458252E+02  0.94094330939E+02 -0.13697873986E+03  0.17412677566E+03  0.00000000000E+00 0.  1.
<mgrwt>
<rscale>  0 0.43103895E+03</rscale>
<asrwt>0</asrwt>
<pdfrwt beam="1">  1        1 0.26406463E+00 0.43103895E+03</pdfrwt>
<pdfrwt beam="2">  1       -1 0.64934562E-01 0.43103895E+03</pdfrwt>
<totfact> 0.12379193E+01</totfact>
</mgrwt>
</event>
<event>
12    1  0.1338445E-007  0.5607720E+03  0.7818608E-02  0.9990309E-01
         -2   -1    0    0    0  501 -0.00000000000E+00  0.00000000000E+00  0.21185262816E+03  0.21185262816E+03  0.00000000000E+00 0. -1.
          2   -1    0    0  501    0  0.00000000000E+00 -0.00000000000E+00 -0.19612394343E+04  0.19612394343E+04  0.00000000000E+00 0.  1.
         23    2    1    2    0    0  0.38986946603E+03  0.16781826795E+03 -0.25848725932E+03  0.51088938651E+03  0.11845307266E+03 0.  0.
    5000000    2    1    2    0    0 -0.38986946603E+03 -0.16781826795E+03 -0.14908995468E+04  0.16622026759E+04  0.59997925429E+03 0.  0.
         23    2    4    4    0    0 -0.36727154059E+03 -0.35091162981E+03 -0.11916048899E+04  0.12985148397E+04  0.90505351733E+02 0.  0.
         23    2    4    4    0    0 -0.22597925440E+02  0.18309336186E+03 -0.29929465687E+03  0.36368783624E+03  0.93046790411E+02 0.  0.
          4    1    3    3  502    0  0.48811002812E+02  0.30597000101E+01  0.54803721732E+01  0.49212907238E+02  0.00000000000E+00 0. -1.
         -4    1    3    3    0  502  0.34105846322E+03  0.16475856794E+03 -0.26396763149E+03  0.46167647928E+03  0.00000000000E+00 0.  1.
         13    1    5    5    0    0 -0.92064992101E+02 -0.73125725224E+02 -0.19186230184E+03  0.22502105975E+03  0.00000000000E+00 0. -1.
        -13    1    5    5    0    0 -0.27520654849E+03 -0.27778590459E+03 -0.99974258810E+03  0.10734937799E+04  0.00000000000E+00 0.  1.
          3    1    6    6  503    0 -0.15806146484E+02  0.16767355775E+03 -0.30279297547E+03  0.34647920894E+03  0.00000000000E+00 0. -1.
         -3    1    6    6    0  503 -0.67917789561E+01  0.15419804118E+02  0.34983186033E+01  0.17208627298E+02  0.00000000000E+00 0.  1.
<mgrwt>
<rscale>  0 0.56077203E+03</rscale>
<asrwt>0</asrwt>
<pdfrwt beam="1">  1        2 0.30172914E+00 0.56077203E+03</pdfrwt>
<pdfrwt beam="2">  1       -2 0.32592712E-01 0.56077203E+03</pdfrwt>
<totfact> 0.64910665E+01</totfact>
</mgrwt>
</event>
<event>
12    1  0.1338445E-007  0.8119969E+03  0.7818608E-02  0.9542813E-01
         -1   -1    0    0    0  501 -0.00000000000E+00  0.00000000000E+00  0.17142512057E+04  0.17142512057E+04  0.00000000000E+00 0.  1.
          1   -1    0    0  501    0  0.00000000000E+00 -0.00000000000E+00 -0.62015285608E+03  0.62015285608E+03  0.00000000000E+00 0. -1.
         23    2    1    2    0    0  0.77561957057E+03  0.92254770363E+02 -0.93171887460E+02  0.79177303681E+03  0.90149211316E+02 0.  0.
    5000000    2    1    2    0    0 -0.77561957057E+03 -0.92254770363E+02  0.11872702371E+04  0.15426310250E+04  0.60000266869E+03 0.  0.
         23    2    4    4    0    0 -0.75009197155E+03 -0.11259113624E+03  0.12216764267E+04  0.14408957700E+04  0.91501904799E+02 0.  0.
         23    2    4    4    0    0 -0.25527599022E+02  0.20336365874E+02 -0.34406189599E+02  0.10173525503E+03  0.90005833946E+02 0.  0.
          3    1    3    3  502    0  0.61618713760E+03  0.47927553654E+02 -0.46285224486E+02  0.61977896137E+03  0.00000000000E+00 0. -1.
         -3    1    3    3    0  502  0.15943243297E+03  0.44327216709E+02 -0.46886662974E+02  0.17199407544E+03  0.00000000000E+00 0.  1.
         11    1    5    5    0    0 -0.70269616102E+03 -0.12073772441E+03  0.11094825665E+04  0.13188294272E+04  0.00000000000E+00 0. -1.
        -11    1    5    5    0    0 -0.47395810524E+02  0.81465881721E+01  0.11219386025E+03  0.12206634274E+03  0.00000000000E+00 0.  1.
          3    1    6    6  503    0 -0.28020677099E+02 -0.22829706793E+02  0.12213467883E+02  0.38151312626E+02  0.00000000000E+00 0. -1.
         -3    1    6    6    0  503  0.24930780771E+01  0.43166072667E+02 -0.46619657482E+02  0.63583942403E+02  0.00000000000E+00 0.  1.
<mgrwt>
<rscale>  0 0.81199694E+03</rscale>
<asrwt>0</asrwt>
<pdfrwt beam="1">  1        1 0.95408132E-01 0.81199694E+03</pdfrwt>
<pdfrwt beam="2">  1       -1 0.26373095E+00 0.81199694E+03</pdfrwt>
<totfact> 0.19205798E+00</totfact>
</mgrwt>
</event>
<event>
12    1  0.1338445E-007  0.1104732E+04  0.7818608E-02  0.9200592E-01
          1   -1    0    0  501    0  0.00000000000E+00  0.00000000000E+00  0.74182311129E+03  0.74182311129E+03  0.00000000000E+00 0. -1.
         -1   -1    0    0    0  501 -0.00000000000E+00 -0.00000000000E+00 -0.20157237845E+04  0.20157237845E+04  0.00000000000E+00 0.  1.
         23    2    1    2    0    0  0.48631492554E+03  0.90461893961E+03 -0.23618101784E+02  0.10318476280E+04  0.96509481814E+02 0.  0.
    5000000    2    1    2    0    0 -0.48631492554E+03 -0.90461893961E+03 -0.12502825714E+04  0.17256992678E+04  0.59999485132E+03 0.  0.
         23    2    4    4    0    0 -0.60392005553E+03 -0.76081292689E+03 -0.95737860411E+03  0.13670985381E+04  0.93962109205E+02 0.  0.
         23    2    4    4    0    0  0.11760513000E+03 -0.14380601271E+03 -0.29290396732E+03  0.35860072969E+03  0.91052805392E+02 0.  0.
          1    1    3    3  502    0  0.44633390215E+03  0.84961364848E+03 -0.44395880070E+02  0.96074361723E+03  0.00000000000E+00 0. -1.
         -1    1    3    3    0  502  0.39981023389E+02  0.55005291130E+02  0.20777778286E+02  0.71104010815E+02  0.00000000000E+00 0.  1.
         13    1    5    5    0    0 -0.59964625385E+03 -0.73405862032E+03 -0.93992706157E+03  0.13348709934E+04  0.00000000000E+00 0. -1.
        -13    1    5    5    0    0 -0.42738016839E+01 -0.26754306576E+02 -0.17451542537E+02  0.32227544711E+02  0.00000000000E+00 0.  1.
          4    1    6    6  503    0  0.13282474503E+03 -0.12303307232E+03 -0.25969520684E+03  0.31657724213E+03  0.00000000000E+00 0. -1.
         -4    1    6    6    0  503 -0.15219615036E+02 -0.20772940397E+02 -0.33208760473E+02  0.42023487560E+02  0.00000000000E+00 0.  1.
<mgrwt>
<rscale>  0 0.11047316E+04</rscale>
<asrwt>0</asrwt>
<pdfrwt beam="1">  1        1 0.11412663E+00 0.11047316E+04</pdfrwt>
<pdfrwt beam="2">  1       -1 0.31011135E+00 0.11047316E+04</pdfrwt>
<totfact> 0.70759323E-01</totfact>
</mgrwt>
</event>
<event>
12    1  0.1338445E-007  0.2010949E+04  0.7818608E-02  0.8601519E-01
         -1   -1    0    0    0  501 -0.00000000000E+00  0.00000000000E+00  0.81736972816E+03  0.81736972816E+03  0.00000000000E+00 0.  1.
          1   -1    0    0  501    0  0.00000000000E+00 -0.00000000000E+00 -0.49958512373E+04  0.49958512373E+04  0.00000000000E+00 0. -1.
         23    2    1    2    0    0 -0.45248056698E+03 -0.19222921110E+04 -0.20933837262E+04  0.28793567261E+04  0.92163484330E+02 0.  0.
    5000000    2    1    2    0    0  0.45248056698E+03  0.19222921110E+04 -0.20850977830E+04  0.29338642394E+04  0.59998415561E+03 0.  0.
         23    2    4    4    0    0  0.12608300810E+03  0.15090403460E+04 -0.16761415488E+04  0.22607069612E+04  0.90806288183E+02 0.  0.
         23    2    4    4    0    0  0.32639755888E+03  0.41325176493E+03 -0.40895623417E+03  0.67315727813E+03  0.92645194003E+02 0.  0.
          3    1    3    3  502    0 -0.28963176878E+03 -0.10576793574E+04 -0.11278890109E+04  0.15731197684E+04  0.00000000000E+00 0. -1.
         -3    1    3    3    0  502 -0.16284879820E+03 -0.86461275353E+03 -0.96549471522E+03  0.13062369577E+04  0.00000000000E+00 0.  1.
         11    1    5    5    0    0  0.97489465427E+02  0.79415762083E+03 -0.93405034280E+03  0.12298945343E+04  0.00000000000E+00 0. -1.
        -11    1    5    5    0    0  0.28593542675E+02  0.71488272521E+03 -0.74209120603E+03  0.10308124270E+04  0.00000000000E+00 0.  1.
          1    1    6    6  503    0  0.16912492150E+03  0.16685699962E+03 -0.22850546881E+03  0.32963502040E+03  0.00000000000E+00 0. -1.
         -1    1    6    6    0  503  0.15727263738E+03  0.24639476530E+03 -0.18045076536E+03  0.34352225773E+03  0.00000000000E+00 0.  1.
<mgrwt>
<rscale>  0 0.20109488E+04</rscale>
<asrwt>0</asrwt>
<pdfrwt beam="1">  1        1 0.76859251E+00 0.20109488E+04</pdfrwt>
<pdfrwt beam="2">  1       -1 0.12574919E+00 0.20109488E+04</pdfrwt>
<totfact> 0.44207975E-03</totfact>
</mgrwt>
</event>
<event>
12    1  0.1338445E-007  0.6191707E+03  0.7818608E-02  0.9866412E-01
          2   -1    0    0  501    0  0.00000000000E+00  0.00000000000E+00  0.26059952655E+04  0.26059952655E+04  0.00000000000E+00 0. -1.
         -2   -1    0    0    0  501 -0.00000000000E+00 -0.00000000000E+00 -0.20948313546E+03  0.20948313546E+03  0.00000000000E+00 0.  1.
         23    2    1    2    0    0  0.60969728375E+03 -0.19772229262E+01  0.88154052211E+03  0.10756496620E+04  0.90409159150E+02 0.  0.
    5000000    2    1    2    0    0 -0.60969728375E+03  0.19772229262E+01  0.15149716080E+04  0.17398287390E+04  0.60010864084E+03 0.  0.
         23    2    4    4    0    0 -0.32602051620E+03 -0.37602308008E+02  0.13594972847E+04  0.14014611430E+04  0.90316984534E+02 0.  0.
         23    2    4    4    0    0 -0.28367676755E+03  0.39579530934E+02  0.15547432326E+03  0.33836759597E+03  0.91001742248E+02 0.  0.
          4    1    3    3  502    0  0.15745843724E+03  0.56223112669E+01  0.16377372169E+03  0.22725888708E+03  0.00000000000E+00 0. -1.
         -4    1    3    3    0  502  0.45223884652E+03 -0.75995341931E+01  0.71776680042E+03  0.84839077494E+03  0.00000000000E+00 0.  1.
         11    1    5    5    0    0 -0.60853882266E+02 -0.10206002364E+02  0.43303840061E+03  0.43741240708E+03  0.00000000000E+00 0. -1.
        -11    1    5    5    0    0 -0.26516663394E+03 -0.27396305644E+02  0.92645888409E+03  0.96404873591E+03  0.00000000000E+00 0.  1.
          1    1    6    6  503    0 -0.69297642184E+02 -0.28993859396E+02  0.45916790134E+02  0.88040665099E+02  0.00000000000E+00 0. -1.
         -1    1    6    6    0  503 -0.21437912537E+03  0.68573390329E+02  0.10955753313E+03  0.25032693087E+03  0.00000000000E+00 0.  1.
<mgrwt>
<rscale>  0 0.61917069E+03</rscale>
<asrwt>0</asrwt>
<pdfrwt beam="1">  1        2 0.40092233E+00 0.61917069E+03</pdfrwt>
<pdfrwt beam="2">  1       -2 0.32228177E-01 0.61917069E+03</pdfrwt>
<totfact> 0.28919191E+01</totfact>
</mgrwt>
</event>
<event>
12    1  0.1338445E-007  0.9743646E+03  0.7818608E-02  0.9337117E-01
         -1   -1    0    0    0  501 -0.00000000000E+00  0.00000000000E+00  0.12036166633E+04  0.12036166633E+04  0.00000000000E+00 0.  1.
          1   -1    0    0  501    0  0.00000000000E+00 -0.00000000000E+00 -0.80561864975E+03  0.80561864975E+03  0.00000000000E+00 0. -1.
         23    2    1    2    0    0 -0.41888475887E+03  0.77940642686E+03  0.28390879221E+03  0.93394159018E+03  0.93294545048E+02 0.  0.
    5000000    2    1    2    0    0  0.41888475887E+03 -0.77940642686E+03  0.11408922134E+03  0.10752937229E+04  0.60025113125E+03 0.  0.
         23    2    4    4    0    0  0.32995048197E+02 -0.63654125195E+03  0.26775527746E+02  0.64445574831E+03  0.91284412735E+02 0.  0.
         23    2    4    4    0    0  0.38588971067E+03 -0.14286517492E+03  0.87313693596E+02  0.43083797456E+03  0.93146938917E+02 0.  0.
          3    1    3    3  502    0 -0.25279652886E+03  0.38483764894E+03  0.12286248363E+03  0.47655145675E+03  0.00000000000E+00 0. -1.
         -3    1    3    3    0  502 -0.16608823001E+03  0.39456877792E+03  0.16104630857E+03  0.45739013343E+03  0.00000000000E+00 0.  1.
         11    1    5    5    0    0 -0.67786753645E+01 -0.21494630386E+03 -0.30235922055E+02  0.21716831023E+03  0.00000000000E+00 0. -1.
        -11    1    5    5    0    0  0.39773723562E+02 -0.42159494808E+03  0.57011449801E+02  0.42728743808E+03  0.00000000000E+00 0.  1.
          1    1    6    6  503    0  0.33258534225E+03 -0.85582314874E+02  0.76613912644E+02  0.35186223740E+03  0.00000000000E+00 0. -1.
         -1    1    6    6    0  503  0.53304368418E+02 -0.57282860043E+02  0.10699780952E+02  0.78975737158E+02  0.00000000000E+00 0.  1.
<mgrwt>
<rscale>  0 0.97436459E+03</rscale>
<asrwt>0</asrwt>
<pdfrwt beam="1">  1        1 0.12394133E+00 0.97436459E+03</pdfrwt>
<pdfrwt beam="2">  1       -1 0.18517179E+00 0.97436459E+03</pdfrwt>
<totfact> 0.42047798E+00</totfact>
</mgrwt>
</event>
<event>
12    1  0.1338445E-007  0.8280141E+03  0.7818608E-02  0.9520330E-01
         -1   -1    0    0    0  501 -0.00000000000E+00  0.00000000000E+00  0.50251559836E+03  0.50251559836E+03  0.00000000000E+00 0.  1.
          1   -1    0    0  501    0  0.00000000000E+00 -0.00000000000E+00 -0.13995463809E+04  0.13995463809E+04  0.00000000000E+00 0. -1.
         23    2    1    2    0    0 -0.20700258990E+03  0.69223175529E+03 -0.49657604525E+03  0.88102754108E+03  0.87102721974E+02 0.  0.
    5000000    2    1    2    0    0  0.20700258990E+03 -0.69223175529E+03 -0.40045473729E+03  0.10210344382E+04  0.60009370273E+03 0.  0.
         23    2    4    4    0    0 -0.94395446329E+02 -0.59751388236E+03 -0.23934652238E+03  0.65713740418E+03  0.92787231368E+02 0.  0.
         23    2    4    4    0    0  0.30139803623E+03 -0.94717872934E+02 -0.16110821491E+03  0.36389703399E+03  0.81565573245E+02 0.  0.
          3    1    3    3  502    0 -0.46300297553E+02  0.30181103392E+03 -0.21883764057E+03  0.37566411950E+03  0.00000000000E+00 0. -1.
         -3    1    3    3    0  502 -0.16070229235E+03  0.39042072137E+03 -0.27773840468E+03  0.50536342158E+03  0.00000000000E+00 0.  1.
         13    1    5    5    0    0 -0.73246387324E+02 -0.57901105068E+03 -0.23237172689E+03  0.62818424807E+03  0.00000000000E+00 0. -1.
        -13    1    5    5    0    0 -0.21149059005E+02 -0.18502831680E+02 -0.69747954891E+01  0.28953156116E+02  0.00000000000E+00 0.  1.
          1    1    6    6  503    0  0.69092410851E+02 -0.31959142665E+02 -0.78826583101E+02  0.10958457118E+03  0.00000000000E+00 0. -1.
         -1    1    6    6    0  503  0.23230562538E+03 -0.62758730269E+02 -0.82281631809E+02  0.25431246281E+03  0.00000000000E+00 0.  1.
<mgrwt>
<rscale>  0 0.82801414E+03</rscale>
<asrwt>0</asrwt>
<pdfrwt beam="1">  1        1 0.21531483E+00 0.82801414E+03</pdfrwt>
<pdfrwt beam="2">  1       -1 0.77310092E-01 0.82801414E+03</pdfrwt>
<totfact> 0.13218070E+01</totfact>
</mgrwt>
</event>
<event>
12    1  0.1338445E-007  0.5189736E+03  0.7818608E-02  0.1008942E+00
         -1   -1    0    0    0  501 -0.00000000000E+00  0.00000000000E+00  0.28438758966E+03  0.28438758966E+03  0.00000000000E+00 0.  1.
          1   -1    0    0  501    0  0.00000000000E+00 -0.00000000000E+00 -0.12627592520E+04  0.12627592520E+04  0.00000000000E+00 0. -1.
         23    2    1    2    0    0 -0.40597833290E+03 -0.74356915774E+02 -0.57792597242E+03  0.71606869166E+03  0.91698330755E+02 0.  0.
    5000000    2    1    2    0    0  0.40597833290E+03  0.74356915774E+02 -0.40044568995E+03  0.83107815004E+03  0.59998898586E+03 0.  0.
         23    2    4    4    0    0  0.13244766454E+03  0.24712243893E+03  0.15220287484E+02  0.29660980552E+03  0.95571103963E+02 0.  0.
         23    2    4    4    0    0  0.27353066836E+03 -0.17276552316E+03 -0.41566597743E+03  0.53446834452E+03  0.90615969739E+02 0.  0.
          1    1    3    3  502    0 -0.86876592972E+02 -0.75314847545E+01 -0.66931374457E+02  0.10992758778E+03  0.00000000000E+00 0. -1.
         -1    1    3    3    0  502 -0.31910173993E+03 -0.66825431019E+02 -0.51099459797E+03  0.60614110387E+03  0.00000000000E+00 0.  1.
         11    1    5    5    0    0  0.11370330461E+03  0.11841455823E+03 -0.85565161904E+01  0.16438875585E+03  0.00000000000E+00 0.  1.
        -11    1    5    5    0    0  0.18744359938E+02  0.12870788070E+03  0.23776803675E+02  0.13222104967E+03  0.00000000000E+00 0. -1.
          1    1    6    6  503    0  0.25551536449E+03 -0.13578473129E+03 -0.32646687374E+03  0.43624100495E+03  0.00000000000E+00 0. -1.
         -1    1    6    6    0  503  0.18015303865E+02 -0.36980791861E+02 -0.89199103692E+02  0.98227339572E+02  0.00000000000E+00 0.  1.
<mgrwt>
<rscale>  0 0.51897356E+03</rscale>
<asrwt>0</asrwt>
<pdfrwt beam="1">  1        1 0.19427065E+00 0.51897356E+03</pdfrwt>
<pdfrwt beam="2">  1       -1 0.43751938E-01 0.51897356E+03</pdfrwt>
<totfact> 0.52422765E+01</totfact>
</mgrwt>
</event>
<event>
12    1  0.1338445E-007  0.5239454E+03  0.7818608E-02  0.1007711E+00
          2   -1    0    0  501    0  0.00000000000E+00  0.00000000000E+00  0.20161594162E+04  0.20161594162E+04  0.00000000000E+00 0.  1.
         -2   -1    0    0    0  501 -0.00000000000E+00 -0.00000000000E+00 -0.18056323730E+03  0.18056323730E+03  0.00000000000E+00 0. -1.
         23    2    1    2    0    0  0.37325061874E+03  0.96034518118E+02  0.11134044508E+04  0.11818022430E+04  0.91915273105E+02 0.  0.
    5000000    2    1    2    0    0 -0.37325061874E+03 -0.96034518118E+02  0.72219172809E+03  0.10149204105E+04  0.59996991130E+03 0.  0.
         23    2    4    4    0    0 -0.46837328979E+03 -0.18428968645E+03  0.66560185161E+03  0.83956584381E+03  0.92242908178E+02 0.  0.
         23    2    4    4    0    0  0.95122671051E+02  0.88255168327E+02  0.56589876478E+02  0.17535456669E+03  0.10348677526E+03 0.  0.
          3    1    3    3  502    0  0.97508467105E+02  0.43188969298E+02  0.42881369028E+03  0.44187596585E+03  0.00000000000E+00 0. -1.
         -3    1    3    3    0  502  0.27574215163E+03  0.52845548820E+02  0.68459076049E+03  0.73992627711E+03  0.00000000000E+00 0.  1.
         11    1    5    5    0    0 -0.44251080430E+03 -0.18203872716E+03  0.59005689389E+03  0.75968483474E+03  0.00000000000E+00 0. -1.
        -11    1    5    5    0    0 -0.25862485496E+02 -0.22509592848E+01  0.75544957719E+02  0.79881009073E+02  0.00000000000E+00 0.  1.
          3    1    6    6  503    0 -0.15578124693E+02  0.22208444839E+02  0.35588700674E+02  0.44748727432E+02  0.00000000000E+00 0.  1.
         -3    1    6    6    0  503  0.11070079574E+03  0.66046723488E+02  0.21001175804E+02  0.13060583925E+03  0.00000000000E+00 0. -1.
<mgrwt>
<rscale>  0 0.52394536E+03</rscale>
<asrwt>0</asrwt>
<pdfrwt beam="1">  1        2 0.31017836E+00 0.52394536E+03</pdfrwt>
<pdfrwt beam="2">  1       -2 0.27778961E-01 0.52394536E+03</pdfrwt>
<totfact> 0.81918322E+01</totfact>
</mgrwt>
</event>
<event>
12    1  0.1338445E-007  0.1210178E+04  0.7818608E-02  0.9103994E-01
          2   -1    0    0  501    0  0.00000000000E+00  0.00000000000E+00  0.18924961978E+04  0.18924961978E+04  0.00000000000E+00 0. -1.
         -2   -1    0    0    0  501 -0.00000000000E+00 -0.00000000000E+00 -0.10471819796E+04  0.10471819796E+04  0.00000000000E+00 0.  1.
         23    2    1    2    0    0  0.10629251950E+04 -0.52231976251E+03 -0.25557085799E+03  0.12149610526E+04  0.90476469640E+02 0.  0.
    5000000    2    1    2    0    0 -0.10629251950E+04  0.52231976251E+03  0.11008850762E+04  0.17247171247E+04  0.60006108437E+03 0.  0.
         23    2    4    4    0    0 -0.21225197120E+03  0.25800945654E+03  0.60319310185E+02  0.35186921288E+03  0.92486457646E+02 0.  0.
         23    2    4    4    0    0 -0.85067322376E+03  0.26431030596E+03  0.10405657660E+04  0.13728479118E+04  0.91811786990E+02 0.  0.
          2    1    3    3  502    0  0.80696577438E+03 -0.37428714456E+03 -0.22600170021E+03  0.91780248207E+03  0.00000000000E+00 0. -1.
         -2    1    3    3    0  502  0.25595942058E+03 -0.14803261795E+03 -0.29569157771E+02  0.29715857055E+03  0.00000000000E+00 0.  1.
         11    1    5    5    0    0 -0.73198920355E+01  0.54441860035E+02 -0.67085097974E+01  0.55339868514E+02  0.00000000000E+00 0.  1.
        -11    1    5    5    0    0 -0.20493207916E+03  0.20356759651E+03  0.67027819982E+02  0.29652934437E+03  0.00000000000E+00 0. -1.
          3    1    6    6  503    0 -0.29097656912E+03  0.10608992445E+03  0.42603145925E+03  0.52671172392E+03  0.00000000000E+00 0. -1.
         -3    1    6    6    0  503 -0.55969665464E+03  0.15822038152E+03  0.61453430673E+03  0.84613618791E+03  0.00000000000E+00 0.  1.
<mgrwt>
<rscale>  0 0.12101779E+04</rscale>
<asrwt>0</asrwt>
<pdfrwt beam="1">  1        2 0.29115326E+00 0.12101779E+04</pdfrwt>
<pdfrwt beam="2">  1       -2 0.16110492E+00 0.12101779E+04</pdfrwt>
<totfact> 0.18401111E+00</totfact>
</mgrwt>
</event>
<event>
12    1  0.1338445E-007  0.6139869E+03  0.7818608E-02  0.9876805E-01
          1   -1    0    0  501    0  0.00000000000E+00  0.00000000000E+00  0.47211379510E+03  0.47211379510E+03  0.00000000000E+00 0. -1.
         -1   -1    0    0    0  501 -0.00000000000E+00 -0.00000000000E+00 -0.10478993170E+04  0.10478993170E+04  0.00000000000E+00 0.  1.
         23    2    1    2    0    0 -0.46542139343E+03 -0.14715641471E+03  0.83450112422E+02  0.50339615688E+03  0.90397376283E+02 0.  0.
    5000000    2    1    2    0    0  0.46542139343E+03  0.14715641471E+03 -0.65923563437E+03  0.10166169553E+04  0.60053836535E+03 0.  0.
         23    2    4    4    0    0 -0.96805918222E+02  0.10300716138E+03 -0.32241329958E+02  0.16843528602E+03  0.85726781820E+02 0.  0.
         23    2    4    4    0    0  0.56222731165E+03  0.44149253333E+02 -0.62699430441E+03  0.84818166925E+03  0.90783146806E+02 0.  0.
          3    1    3    3  502    0 -0.18287829394E+03 -0.15103885685E+02  0.46771533349E+02  0.18936782749E+03  0.00000000000E+00 0. -1.
         -3    1    3    3    0  502 -0.28254309949E+03 -0.13205252903E+03  0.36678579073E+02  0.31402832939E+03  0.00000000000E+00 0.  1.
         13    1    5    5    0    0 -0.21236990551E+02  0.83924323975E+02 -0.86428722010E+01  0.87000006679E+02  0.00000000000E+00 0.  1.
        -13    1    5    5    0    0 -0.75568927672E+02  0.19082837402E+02 -0.23598457757E+02  0.81435279340E+02  0.00000000000E+00 0. -1.
          3    1    6    6  503    0  0.36813387316E+02 -0.14161812940E+02 -0.23580164485E+02  0.45954396836E+02  0.00000000000E+00 0. -1.
         -3    1    6    6    0  503  0.52541392434E+03  0.58311066273E+02 -0.60341413993E+03  0.80222727241E+03  0.00000000000E+00 0.  1.
<mgrwt>
<rscale>  0 0.61398689E+03</rscale>
<asrwt>0</asrwt>
<pdfrwt beam="1">  1        1 0.72632892E-01 0.61398689E+03</pdfrwt>
<pdfrwt beam="2">  1       -1 0.16121528E+00 0.61398689E+03</pdfrwt>
<totfact> 0.14356627E+01</totfact>
</mgrwt>
</event>
<event>
12    1  0.1338445E-007  0.8828643E+03  0.7818608E-02  0.9447259E-01
         -1   -1    0    0    0  501 -0.00000000000E+00  0.00000000000E+00  0.91040321282E+03  0.91040321282E+03  0.00000000000E+00 0.  1.
          1   -1    0    0  501    0  0.00000000000E+00 -0.00000000000E+00 -0.96589876663E+03  0.96589876663E+03  0.00000000000E+00 0. -1.
         23    2    1    2    0    0 -0.80248709152E+03  0.12133264255E+03  0.18794082684E+03  0.83798353388E+03  0.90484841020E+02 0.  0.
    5000000    2    1    2    0    0  0.80248709152E+03 -0.12133264255E+03 -0.24343638064E+03  0.10383184456E+04  0.60011397317E+03 0.  0.
         23    2    4    4    0    0  0.70224492773E+03  0.87534730206E+02 -0.35731897116E+02  0.71449978377E+03  0.91776385944E+02 0.  0.
         23    2    4    4    0    0  0.10024216379E+03 -0.20886737275E+03 -0.20770448352E+03  0.32381866180E+03  0.89684460508E+02 0.  0.
          4    1    3    3  502    0 -0.56158215881E+03  0.12087626606E+03  0.11082624472E+03  0.58503679312E+03  0.00000000000E+00 0.  1.
         -4    1    3    3    0  502 -0.24090493271E+03  0.45637649056E+00  0.77114582111E+02  0.25294674075E+03  0.00000000000E+00 0. -1.
         11    1    5    5    0    0  0.33491979219E+03  0.49696894418E+01  0.10892782562E+02  0.33513373111E+03  0.00000000000E+00 0.  1.
        -11    1    5    5    0    0  0.36732513554E+03  0.82565040764E+02 -0.46624679678E+02  0.37936605266E+03  0.00000000000E+00 0. -1.
          3    1    6    6  503    0  0.56708656317E+01 -0.73971867049E+02 -0.10873307609E+03  0.13163159829E+03  0.00000000000E+00 0.  1.
         -3    1    6    6    0  503  0.94571298156E+02 -0.13489550570E+03 -0.98971407428E+02  0.19218706351E+03  0.00000000000E+00 0. -1.
<mgrwt>
<rscale>  0 0.88286426E+03</rscale>
<asrwt>0</asrwt>
<pdfrwt beam="1">  1        1 0.14859981E+00 0.88286426E+03</pdfrwt>
<pdfrwt beam="2">  1       -1 0.14006203E+00 0.88286426E+03</pdfrwt>
<totfact> 0.68476745E+00</totfact>
</mgrwt>
</event>
<event>
12    1  0.1338445E-007  0.1262305E+04  0.7818608E-02  0.9060004E-01
         -2   -1    0    0    0  501 -0.00000000000E+00  0.00000000000E+00  0.36290383667E+03  0.36290383667E+03  0.00000000000E+00 0.  1.
          2   -1    0    0  501    0  0.00000000000E+00 -0.00000000000E+00 -0.44772711332E+04  0.44772711332E+04  0.00000000000E+00 0. -1.
         23    2    1    2    0    0 -0.44109507017E+03  0.11179190767E+04 -0.20083924846E+04  0.23422881026E+04  0.91461796210E+02 0.  0.
    5000000    2    1    2    0    0  0.44109507017E+03 -0.11179190767E+04 -0.21059748119E+04  0.24978868673E+04  0.60000080880E+03 0.  0.
         23    2    4    4    0    0  0.56332264176E+03 -0.95473410468E+03 -0.18497944194E+04  0.21583718511E+04  0.89331093650E+02 0.  0.
         23    2    4    4    0    0 -0.12222757159E+03 -0.16318497200E+03 -0.25618039246E+03  0.33951501616E+03  0.89850644796E+02 0.  0.
          3    1    3    3  502    0 -0.16678667298E+03  0.49761124548E+03 -0.80648168261E+03  0.96220967065E+03  0.00000000000E+00 0. -1.
         -3    1    3    3    0  502 -0.27430839720E+03  0.62030783120E+03 -0.12019108020E+04  0.13800784319E+04  0.00000000000E+00 0.  1.
         13    1    5    5    0    0  0.31143866823E+03 -0.46177603183E+03 -0.87053991482E+03  0.10334751525E+04  0.00000000000E+00 0.  1.
        -13    1    5    5    0    0  0.25188397353E+03 -0.49295807285E+03 -0.97925450457E+03  0.11248966986E+04  0.00000000000E+00 0. -1.
          1    1    6    6  503    0 -0.65692295418E+02 -0.44023095825E+02 -0.15237014127E+03  0.17166878165E+03  0.00000000000E+00 0. -1.
         -1    1    6    6    0  503 -0.56535276170E+02 -0.11916187617E+03 -0.10381025120E+03  0.16784623451E+03  0.00000000000E+00 0.  1.
<mgrwt>
<rscale>  0 0.12623050E+04</rscale>
<asrwt>0</asrwt>
<pdfrwt beam="1">  1        2 0.68881092E+00 0.12623050E+04</pdfrwt>
<pdfrwt beam="2">  1       -2 0.55831361E-01 0.12623050E+04</pdfrwt>
<totfact> 0.40007153E-01</totfact>
</mgrwt>
</event>
<event>
12    1  0.1338445E-007  0.9295348E+03  0.7818608E-02  0.9389396E-01
          1   -1    0    0  501    0  0.00000000000E+00  0.00000000000E+00  0.59691105524E+03  0.59691105524E+03  0.00000000000E+00 0. -1.
         -1   -1    0    0    0  501 -0.00000000000E+00 -0.00000000000E+00 -0.17369070151E+04  0.17369070151E+04  0.00000000000E+00 0.  1.
         23    2    1    2    0    0 -0.27160421190E+03 -0.81568367830E+03 -0.12210623087E+03  0.87252414173E+03  0.85321364906E+02 0.  0.
    5000000    2    1    2    0    0  0.27160421190E+03  0.81568367830E+03 -0.10178897289E+04  0.14612939286E+04  0.60014309494E+03 0.  0.
         23    2    4    4    0    0  0.26073752609E+03  0.12668665819E+03 -0.53113825595E+03  0.61194538717E+03  0.91300290658E+02 0.  0.
         23    2    4    4    0    0  0.10866685817E+02  0.68899702011E+03 -0.48675147300E+03  0.84934854140E+03  0.98137504221E+02 0.  0.
          1    1    3    3  502    0 -0.29131482189E+02 -0.17780389015E+03 -0.45475238279E+02  0.18582482048E+03  0.00000000000E+00 0. -1.
         -1    1    3    3    0  502 -0.24247272971E+03 -0.63787978815E+03 -0.76630992595E+02  0.68669932125E+03  0.00000000000E+00 0.  1.
         11    1    5    5    0    0  0.15879081569E+03  0.11886389133E+03 -0.30580245322E+03  0.36449730892E+03  0.00000000000E+00 0.  1.
        -11    1    5    5    0    0  0.10194671040E+03  0.78227668613E+01 -0.22533580272E+03  0.24744807825E+03  0.00000000000E+00 0. -1.
          2    1    6    6  503    0 -0.43403033019E+02  0.31183097753E+03 -0.21149975777E+03  0.37928159639E+03  0.00000000000E+00 0. -1.
         -2    1    6    6    0  503  0.54269718836E+02  0.37716604258E+03 -0.27525171523E+03  0.47006694501E+03  0.00000000000E+00 0.  1.
<mgrwt>
<rscale>  0 0.92953485E+03</rscale>
<asrwt>0</asrwt>
<pdfrwt beam="1">  1        1 0.91832471E-01 0.92953485E+03</pdfrwt>
<pdfrwt beam="2">  1       -1 0.26721646E+00 0.92953485E+03</pdfrwt>
<totfact> 0.18948804E+00</totfact>
</mgrwt>
</event>
<event>
12    1  0.1667483E-007  0.9538084E+03  0.7818608E-02  0.9360710E-01
         -2   -1    0    0    0  501 -0.00000000000E+00  0.00000000000E+00  0.12777809575E+04  0.12777809575E+04  0.00000000000E+00 0.  1.
          2   -1    0    0  501    0  0.00000000000E+00 -0.00000000000E+00 -0.13735603824E+04  0.13735603824E+04  0.00000000000E+00 0. -1.
         23    2    1    2    0    0  0.84483052631E+03 -0.22422543007E+03 -0.94674052175E+03  0.12918757614E+04  0.92788499881E+02 0.  0.
    5000000    2    1    2    0    0 -0.84483052631E+03  0.22422543007E+03  0.85096109681E+03  0.13594655785E+04  0.59999684090E+03 0.  0.
         23    2    4    4    0    0 -0.89905382651E+03  0.18345511380E+03  0.83522379881E+03  0.12440136113E+04  0.89540545618E+02 0.  0.
         23    2    4    4    0    0  0.54223300200E+02  0.40770316274E+02  0.15737297995E+02  0.11545196715E+03  0.92082078584E+02 0.  0.
          3    1    3    3  502    0  0.54422094475E+03 -0.11610234387E+03 -0.65242137978E+03  0.85750209781E+03  0.00000000000E+00 0. -1.
         -3    1    3    3    0  502  0.30060958156E+03 -0.10812308620E+03 -0.29431914197E+03  0.43437366359E+03  0.00000000000E+00 0.  1.
         11    1    5    5    0    0 -0.29651709675E+03  0.84319452954E+02  0.32868562727E+03  0.45062889430E+03  0.00000000000E+00 0. -1.
        -11    1    5    5    0    0 -0.60253672976E+03  0.99135660846E+02  0.50653817154E+03  0.79338471702E+03  0.00000000000E+00 0.  1.
          1    1    6    6  503    0  0.67359914118E+01  0.60846933878E+02  0.18107929406E+02  0.63840583096E+02  0.00000000000E+00 0. -1.
         -1    1    6    6    0  503  0.47487308789E+02 -0.20076617604E+02 -0.23706314105E+01  0.51611384051E+02  0.00000000000E+00 0.  1.
<mgrwt>
<rscale>  0 0.95380845E+03</rscale>
<asrwt>0</asrwt>
<pdfrwt beam="1">  1        2 0.21131698E+00 0.95380845E+03</pdfrwt>
<pdfrwt beam="2">  1       -2 0.19658169E+00 0.95380845E+03</pdfrwt>
<totfact> 0.20964391E+00</totfact>
</mgrwt>
</event>
<event>
12    1  0.1338445E-007  0.1203364E+04  0.7818608E-02  0.9109917E-01
         -2   -1    0    0    0  501 -0.00000000000E+00  0.00000000000E+00  0.11250600254E+04  0.11250600254E+04  0.00000000000E+00 0.  1.
          2   -1    0    0  501    0  0.00000000000E+00 -0.00000000000E+00 -0.17963433908E+04  0.17963433908E+04  0.00000000000E+00 0. -1.
         23    2    1    2    0    0  0.59052437025E+03  0.98337962885E+03 -0.10653925843E+04  0.15682042201E+04  0.91916217462E+02 0.  0.
    5000000    2    1    2    0    0 -0.59052437025E+03 -0.98337962885E+03  0.39410921888E+03  0.13531991961E+04  0.60005954842E+03 0.  0.
         23    2    4    4    0    0 -0.48276803854E+03 -0.99688913035E+03  0.23699158357E+03  0.11363783520E+04  0.91311724164E+02 0.  0.
         23    2    4    4    0    0 -0.10775633171E+03  0.13509501507E+02  0.15711763530E+03  0.21682084410E+03  0.10262257772E+03 0.  0.
          1    1    3    3  502    0  0.41249197398E+03  0.60215618974E+03 -0.66568239225E+03  0.98786373190E+03  0.00000000000E+00 0. -1.
         -1    1    3    3    0  502  0.17803239627E+03  0.38122343911E+03 -0.39971019202E+03  0.58034048821E+03  0.00000000000E+00 0.  1.
         13    1    5    5    0    0 -0.32908700800E+03 -0.69867053553E+03  0.12284658271E+03  0.78200387399E+03  0.00000000000E+00 0.  1.
        -13    1    5    5    0    0 -0.15368103055E+03 -0.29821859483E+03  0.11414500087E+03  0.35437447802E+03  0.00000000000E+00 0. -1.
          2    1    6    6  503    0 -0.92557424380E+02 -0.33862893495E+02  0.11648623894E+03  0.15258642215E+03  0.00000000000E+00 0. -1.
         -2    1    6    6    0  503 -0.15198907328E+02  0.47372395002E+02  0.40631396369E+02  0.64234421948E+02  0.00000000000E+00 0.  1.
<mgrwt>
<rscale>  0 0.12033640E+04</rscale>
<asrwt>0</asrwt>
<pdfrwt beam="1">  1        2 0.27636052E+00 0.12033640E+04</pdfrwt>
<pdfrwt beam="2">  1       -2 0.17308616E+00 0.12033640E+04</pdfrwt>
<totfact> 0.17054661E+00</totfact>
</mgrwt>
</event>
<event>
12    1  0.1338445E-007  0.8329224E+03  0.7818608E-02  0.9513549E-01
         -1   -1    0    0    0  501 -0.00000000000E+00  0.00000000000E+00  0.28559054189E+03  0.28559054189E+03  0.00000000000E+00 0.  1.
          1   -1    0    0  501    0  0.00000000000E+00 -0.00000000000E+00 -0.26115462499E+04  0.26115462499E+04  0.00000000000E+00 0. -1.
         23    2    1    2    0    0  0.24559529948E+03  0.71136233695E+03 -0.89788275292E+03  0.11749579248E+04  0.89326712620E+02 0.  0.
    5000000    2    1    2    0    0 -0.24559529948E+03 -0.71136233695E+03 -0.14280729550E+04  0.17221788669E+04  0.60012853553E+03 0.  0.
         23    2    4    4    0    0 -0.19814492708E+02  0.58204975569E+02 -0.40283477757E+03  0.41726061489E+03  0.89722513428E+02 0.  0.
         23    2    4    4    0    0 -0.22578080677E+03 -0.76956731252E+03 -0.10252381775E+04  0.13049182520E+04  0.92127643559E+02 0.  0.
          3    1    3    3  502    0  0.19131410150E+03  0.49770408539E+03 -0.57697378422E+03  0.78562662234E+03  0.00000000000E+00 0. -1.
         -3    1    3    3    0  502  0.54281197980E+02  0.21365825156E+03 -0.32090896870E+03  0.38933130250E+03  0.00000000000E+00 0.  1.
         13    1    5    5    0    0  0.30228702612E+02  0.27736634103E+01 -0.17164726748E+03  0.17431079170E+03  0.00000000000E+00 0. -1.
        -13    1    5    5    0    0 -0.50043195320E+02  0.55431312159E+02 -0.23118751009E+03  0.24294982319E+03  0.00000000000E+00 0.  1.
          3    1    6    6  503    0 -0.66711426534E+02 -0.38906762270E+03 -0.49008545573E+03  0.62929149317E+03  0.00000000000E+00 0. -1.
         -3    1    6    6    0  503 -0.15906938024E+03 -0.38049968982E+03 -0.53515272174E+03  0.67562675885E+03  0.00000000000E+00 0.  1.
<mgrwt>
<rscale>  0 0.83292244E+03</rscale>
<asrwt>0</asrwt>
<pdfrwt beam="1">  1        1 0.40177636E+00 0.83292244E+03</pdfrwt>
<pdfrwt beam="2">  1       -1 0.43937004E-01 0.83292244E+03</pdfrwt>
<totfact> 0.60585482E+00</totfact>
</mgrwt>
</event>
<event>
12    1  0.1338445E-007  0.8441413E+03  0.7818608E-02  0.9498234E-01
         -2   -1    0    0    0  501 -0.00000000000E+00  0.00000000000E+00  0.34683887792E+03  0.34683887792E+03  0.00000000000E+00 0.  1.
          2   -1    0    0  501    0  0.00000000000E+00 -0.00000000000E+00 -0.29731111057E+04  0.29731111057E+04  0.00000000000E+00 0. -1.
         23    2    1    2    0    0 -0.43836541336E+03 -0.60921094025E+03 -0.31917223138E+03  0.82075063626E+03  0.91970040097E+02 0.  0.
    5000000    2    1    2    0    0  0.43836541336E+03  0.60921094025E+03 -0.23070999964E+04  0.24991993473E+04  0.59998731580E+03 0.  0.
         23    2    4    4    0    0  0.17797328002E+03 -0.83049817690E+02 -0.56685053725E+03  0.60607618473E+03  0.86238329683E+02 0.  0.
         23    2    4    4    0    0  0.26039213334E+03  0.69226075794E+03 -0.17402494591E+04  0.18931231626E+04  0.91750251823E+02 0.  0.
          3    1    3    3  502    0 -0.20418724889E+03 -0.25197481533E+03 -0.92862920518E+02  0.33735331950E+03  0.00000000000E+00 0. -1.
         -3    1    3    3    0  502 -0.23417816447E+03 -0.35723612492E+03 -0.22630931087E+03  0.48339731675E+03  0.00000000000E+00 0.  1.
         11    1    5    5    0    0  0.45430025257E+02 -0.25061827837E+02 -0.61692931060E+02  0.80610173999E+02  0.00000000000E+00 0. -1.
        -11    1    5    5    0    0  0.13254325476E+03 -0.57987989852E+02 -0.50515760619E+03  0.52546601073E+03  0.00000000000E+00 0.  1.
          4    1    6    6  503    0  0.58201661251E+01  0.62882290957E+01 -0.50022795318E+01  0.99216409630E+01  0.00000000000E+00 0. -1.
         -4    1    6    6    0  503  0.25457196721E+03  0.68597252884E+03 -0.17352471796E+04  0.18832015216E+04  0.00000000000E+00 0.  1.
<mgrwt>
<rscale>  0 0.84414135E+03</rscale>
<asrwt>0</asrwt>
<pdfrwt beam="1">  1        2 0.45740171E+00 0.84414135E+03</pdfrwt>
<pdfrwt beam="2">  1       -2 0.53359827E-01 0.84414135E+03</pdfrwt>
<totfact> 0.62722639E+00</totfact>
</mgrwt>
</event>
<event>
12    1  0.1338445E-007  0.6877253E+03  0.7818608E-02  0.9738457E-01
          2   -1    0    0  501    0  0.00000000000E+00  0.00000000000E+00  0.29490571626E+04  0.29490571626E+04  0.00000000000E+00 0. -1.
         -2   -1    0    0    0  501 -0.00000000000E+00 -0.00000000000E+00 -0.17703081993E+03  0.17703081993E+03  0.00000000000E+00 0.  1.
         23    2    1    2    0    0  0.89109202824E+02  0.58589128161E+03  0.12422905493E+04  0.13793697134E+04  0.90365665333E+02 0.  0.
    5000000    2    1    2    0    0 -0.89109202824E+02 -0.58589128161E+03  0.15297357934E+04  0.17467182692E+04  0.59977001451E+03 0.  0.
         23    2    4    4    0    0  0.18651192194E+03 -0.38373534378E+03  0.53295761713E+03  0.68916424046E+03  0.94148911751E+02 0.  0.
         23    2    4    4    0    0 -0.27562112477E+03 -0.20215593782E+03  0.99677817627E+03  0.10575540287E+04  0.89553131157E+02 0.  0.
          1    1    3    3  502    0  0.60428209072E+02  0.39018399948E+03  0.92112920787E+03  0.10021846833E+04  0.00000000000E+00 0. -1.
         -1    1    3    3    0  502  0.28680993752E+02  0.19570728213E+03  0.32116134139E+03  0.37718503004E+03  0.00000000000E+00 0.  1.
         13    1    5    5    0    0  0.11050991619E+03 -0.31299086301E+03  0.38376687064E+03  0.50739800246E+03  0.00000000000E+00 0.  1.
        -13    1    5    5    0    0  0.76002005754E+02 -0.70744480770E+02  0.14919074649E+03  0.18176623800E+03  0.00000000000E+00 0. -1.
          2    1    6    6  503    0 -0.13678492641E+03 -0.63375168698E+02  0.53377024192E+03  0.55465051993E+03  0.00000000000E+00 0. -1.
         -2    1    6    6    0  503 -0.13883619835E+03 -0.13878076913E+03  0.46300793435E+03  0.50290350876E+03  0.00000000000E+00 0.  1.
<mgrwt>
<rscale>  0 0.68772531E+03</rscale>
<asrwt>0</asrwt>
<pdfrwt beam="1">  1        2 0.45370107E+00 0.68772531E+03</pdfrwt>
<pdfrwt beam="2">  1       -2 0.27235513E-01 0.68772531E+03</pdfrwt>
<totfact> 0.24527050E+01</totfact>
</mgrwt>
</event>
<event>
12    1  0.2556218E-007  0.1042560E+04  0.7818608E-02  0.9263060E-01
          1   -1    0    0  501    0  0.00000000000E+00  0.00000000000E+00  0.12118668902E+04  0.12118668902E+04  0.00000000000E+00 0. -1.
         -1   -1    0    0    0  501 -0.00000000000E+00 -0.00000000000E+00 -0.10456212504E+04  0.10456212504E+04  0.00000000000E+00 0.  1.
         23    2    1    2    0    0  0.38144472936E+02  0.98946412309E+03  0.40742176627E+03  0.10748578445E+04  0.93982118479E+02 0.  0.
    5000000    2    1    2    0    0 -0.38144472936E+02 -0.98946412309E+03 -0.24117612647E+03  0.11826302961E+04  0.59996186677E+03 0.  0.
         23    2    4    4    0    0  0.20688041395E+03 -0.38413603431E+03  0.74056499515E+02  0.45175609047E+03  0.90770048078E+02 0.  0.
         23    2    4    4    0    0 -0.24502488688E+03 -0.60532808878E+03 -0.31523262599E+03  0.73087420563E+03  0.91357570609E+02 0.  0.
          3    1    3    3  502    0 -0.28455731120E+02  0.43688615748E+03  0.19159782538E+03  0.47790058582E+03  0.00000000000E+00 0. -1.
         -3    1    3    3    0  502  0.66600204056E+02  0.55257796560E+03  0.21582394089E+03  0.59695725869E+03  0.00000000000E+00 0.  1.
         11    1    5    5    0    0  0.10635599975E+03 -0.16380474618E+03  0.75995994363E+02  0.20956856805E+03  0.00000000000E+00 0. -1.
        -11    1    5    5    0    0  0.10052441420E+03 -0.22033128812E+03 -0.19394948488E+01  0.24218752242E+03  0.00000000000E+00 0.  1.
          1    1    6    6  503    0 -0.12416796725E+03 -0.32866040492E+03 -0.21897812158E+03  0.41398884476E+03  0.00000000000E+00 0. -1.
         -1    1    6    6    0  503 -0.12085691964E+03 -0.27666768386E+03 -0.96254504410E+02  0.31688536087E+03  0.00000000000E+00 0.  1.
<mgrwt>
<rscale>  0 0.10425595E+04</rscale>
<asrwt>0</asrwt>
<pdfrwt beam="1">  1        1 0.18644106E+00 0.10425595E+04</pdfrwt>
<pdfrwt beam="2">  1       -1 0.16086481E+00 0.10425595E+04</pdfrwt>
<totfact> 0.30101809E+00</totfact>
</mgrwt>
</event>
<event>
12    1  0.1338445E-007  0.8266737E+03  0.7818608E-02  0.9522191E-01
         -2   -1    0    0    0  501 -0.00000000000E+00  0.00000000000E+00  0.72040197880E+03  0.72040197880E+03  0.00000000000E+00 0.  1.
          2   -1    0    0  501    0  0.00000000000E+00 -0.00000000000E+00 -0.18620973823E+04  0.18620973823E+04  0.00000000000E+00 0. -1.
         23    2    1    2    0    0 -0.69311334768E+03 -0.18556102226E+03 -0.14310675050E+04  0.16034753581E+04  0.91323679335E+02 0.  0.
    5000000    2    1    2    0    0  0.69311334768E+03  0.18556102226E+03  0.28937210149E+03  0.97902400302E+03  0.59992731198E+03 0.  0.
         23    2    4    4    0    0 -0.41497829982E+02  0.16589849513E+03  0.67516861584E+02  0.20592819591E+03  0.92755132973E+02 0.  0.
         23    2    4    4    0    0  0.73461117766E+03  0.19662527130E+02  0.22185523990E+03  0.77309580711E+03  0.91745202485E+02 0.  0.
          3    1    3    3  502    0 -0.25464429566E+03 -0.87530142685E+02 -0.44977646400E+03  0.52421761775E+03  0.00000000000E+00 0. -1.
         -3    1    3    3    0  502 -0.43846905202E+03 -0.98030879575E+02 -0.98129104098E+03  0.10792577403E+04  0.00000000000E+00 0.  1.
         13    1    5    5    0    0  0.26472292373E+02  0.84176280464E+02  0.31686395659E+02  0.93757432378E+02  0.00000000000E+00 0. -1.
        -13    1    5    5    0    0 -0.67970122356E+02  0.81722214666E+02  0.35830465925E+02  0.11217076353E+03  0.00000000000E+00 0.  1.
          1    1    6    6  503    0  0.45964861350E+03  0.55399804966E+02  0.14987774155E+03  0.48663058237E+03  0.00000000000E+00 0. -1.
         -1    1    6    6    0  503  0.27496256416E+03 -0.35737277836E+02  0.71977498352E+02  0.28646522474E+03  0.00000000000E+00 0.  1.
<mgrwt>
<rscale>  0 0.82667370E+03</rscale>
<asrwt>0</asrwt>
<pdfrwt beam="1">  1        2 0.28647652E+00 0.82667370E+03</pdfrwt>
<pdfrwt beam="2">  1       -2 0.11083107E+00 0.82667370E+03</pdfrwt>
<totfact> 0.52490537E+00</totfact>
</mgrwt>
</event>
<event>
12    1  0.1338445E-007  0.8073143E+03  0.7818608E-02  0.9549490E-01
         -1   -1    0    0    0  501 -0.00000000000E+00  0.00000000000E+00  0.84041255260E+03  0.84041255260E+03  0.00000000000E+00 0.  1.
          1   -1    0    0  501    0  0.00000000000E+00 -0.00000000000E+00 -0.15826383205E+04  0.15826383205E+04  0.00000000000E+00 0. -1.
         23    2    1    2    0    0  0.23534794079E+03 -0.66544883652E+03 -0.11961120269E+04  0.13914414633E+04  0.84938551229E+02 0.  0.
    5000000    2    1    2    0    0 -0.23534794079E+03  0.66544883652E+03  0.45388625900E+03  0.10316094099E+04  0.59999535926E+03 0.  0.
         23    2    4    4    0    0 -0.32814603267E+03  0.13754748500E+03  0.27640414121E+03  0.45980165222E+03  0.91756093641E+02 0.  0.
         23    2    4    4    0    0  0.92798091875E+02  0.52790135152E+03  0.17748211779E+03  0.57180775764E+03  0.90404019628E+02 0.  0.
          1    1    3    3  502    0  0.37825414129E+02 -0.11376739152E+03 -0.27137281738E+03  0.29667657025E+03  0.00000000000E+00 0. -1.
         -1    1    3    3    0  502  0.19752252667E+03 -0.55168144500E+03 -0.92473920957E+03  0.10947648930E+04  0.00000000000E+00 0.  1.
         13    1    5    5    0    0 -0.10424919086E+03  0.87948681422E+02  0.12498017869E+03  0.18499434971E+03  0.00000000000E+00 0. -1.
        -13    1    5    5    0    0 -0.22389684181E+03  0.49598803576E+02  0.15142396252E+03  0.27480730251E+03  0.00000000000E+00 0.  1.
          4    1    6    6  503    0  0.63828295494E+02  0.13774684161E+03  0.38455673327E+02  0.15661124637E+03  0.00000000000E+00 0.  1.
         -4    1    6    6    0  503  0.28969796381E+02  0.39015450991E+03  0.13902644446E+03  0.41519651126E+03  0.00000000000E+00 0. -1.
<mgrwt>
<rscale>  0 0.80731427E+03</rscale>
<asrwt>0</asrwt>
<pdfrwt beam="1">  1        1 0.24348282E+00 0.80731427E+03</pdfrwt>
<pdfrwt beam="2">  1       -1 0.12929424E+00 0.80731427E+03</pdfrwt>
<totfact> 0.30533589E+00</totfact>
</mgrwt>
</event>
<event>
12    1  0.1338445E-007  0.1658264E+04  0.7818608E-02  0.8785532E-01
         -2   -1    0    0    0  501 -0.00000000000E+00  0.00000000000E+00  0.18900370185E+04  0.18900370185E+04  0.00000000000E+00 0. -1.
          2   -1    0    0  501    0  0.00000000000E+00 -0.00000000000E+00 -0.15627023940E+04  0.15627023940E+04  0.00000000000E+00 0.  1.
         23    2    1    2    0    0  0.58348140829E+03  0.15428830283E+04  0.38595748781E+03  0.16965063908E+04  0.90731243188E+02 0.  0.
    5000000    2    1    2    0    0 -0.58348140829E+03 -0.15428830283E+04 -0.58622863239E+02  0.17562330218E+04  0.59998266111E+03 0.  0.
         23    2    4    4    0    0 -0.53078689382E+03 -0.14005376137E+04 -0.22072070253E+03  0.15166689383E+04  0.91250784130E+02 0.  0.
         23    2    4    4    0    0 -0.52694514477E+02 -0.14234541462E+03  0.16209783929E+03  0.23956408351E+03  0.89868301887E+02 0.  0.
          2    1    3    3  502    0  0.25236651415E+03  0.57478049406E+03  0.17708030738E+03  0.65224144998E+03  0.00000000000E+00 0. -1.
         -2    1    3    3    0  502  0.33111489414E+03  0.96810253429E+03  0.20887718043E+03  0.10442649408E+04  0.00000000000E+00 0.  1.
         11    1    5    5    0    0 -0.20163464291E+03 -0.53942773441E+03 -0.12975562988E+03  0.59031799342E+03  0.00000000000E+00 0.  1.
        -11    1    5    5    0    0 -0.32915225091E+03 -0.86110987933E+03 -0.90965072650E+02  0.92635094483E+03  0.00000000000E+00 0. -1.
          2    1    6    6  503    0 -0.27315431334E+02 -0.13970845246E+03  0.10457672158E+03  0.17663769466E+03  0.00000000000E+00 0. -1.
         -2    1    6    6    0  503 -0.25379083143E+02 -0.26369621591E+01  0.57521117715E+02  0.62926388851E+02  0.00000000000E+00 0.  1.
<mgrwt>
<rscale>  0 0.16582645E+04</rscale>
<asrwt>0</asrwt>
<pdfrwt beam="1">  1        2 0.24041575E+00 0.16582645E+04</pdfrwt>
<pdfrwt beam="2">  1       -2 0.29077493E+00 0.16582645E+04</pdfrwt>
<totfact> 0.39186896E-01</totfact>
</mgrwt>
</event>
<event>
12    1  0.1338445E-007  0.1419355E+04  0.7818608E-02  0.8939927E-01
          2   -1    0    0  501    0  0.00000000000E+00  0.00000000000E+00  0.14156520262E+04  0.14156520262E+04  0.00000000000E+00 0. -1.
         -2   -1    0    0    0  501 -0.00000000000E+00 -0.00000000000E+00 -0.16652945388E+04  0.16652945388E+04  0.00000000000E+00 0.  1.
         23    2    1    2    0    0  0.43240603763E+03  0.13076825741E+04 -0.65029342074E+03  0.15260640708E+04  0.94769822702E+02 0.  0.
    5000000    2    1    2    0    0 -0.43240603763E+03 -0.13076825741E+04  0.40065090823E+03  0.15548824942E+04  0.60010809405E+03 0.  0.
         23    2    4    4    0    0 -0.27753387984E+03 -0.24341714462E+03 -0.47975747246E+02  0.38582680309E+03  0.10140852481E+03 0.  0.
         23    2    4    4    0    0 -0.15487215779E+03 -0.10642654294E+04  0.44862665547E+03  0.11690556911E+04  0.93696548994E+02 0.  0.
          2    1    3    3  502    0  0.15718026192E+03  0.55394945032E+03 -0.22799206312E+03  0.61931091472E+03  0.00000000000E+00 0.  1.
         -2    1    3    3    0  502  0.27522577571E+03  0.75373312374E+03 -0.42230135762E+03  0.90675315610E+03  0.00000000000E+00 0. -1.
         13    1    5    5    0    0 -0.12204749639E+03 -0.17390739425E+03 -0.23352225304E+02  0.21373979409E+03  0.00000000000E+00 0.  1.
        -13    1    5    5    0    0 -0.15548638345E+03 -0.69509750368E+02 -0.24623521942E+02  0.17208700900E+03  0.00000000000E+00 0. -1.
          3    1    6    6  503    0 -0.87454561597E+02 -0.80801432453E+03  0.30850679483E+03  0.86931691083E+03  0.00000000000E+00 0. -1.
         -3    1    6    6    0  503 -0.67417596196E+02 -0.25625110491E+03  0.14011986064E+03  0.29973878026E+03  0.00000000000E+00 0.  1.
<mgrwt>
<rscale>  0 0.14193545E+04</rscale>
<asrwt>0</asrwt>
<pdfrwt beam="1">  1        2 0.21779262E+00 0.14193545E+04</pdfrwt>
<pdfrwt beam="2">  1       -2 0.25619916E+00 0.14193545E+04</pdfrwt>
<totfact> 0.79175909E-01</totfact>
</mgrwt>
</event>
<event>
12    1  0.1338445E-007  0.1250702E+04  0.7818608E-02  0.9069599E-01
          2   -1    0    0  501    0  0.00000000000E+00  0.00000000000E+00  0.88657774305E+03  0.88657774305E+03  0.00000000000E+00 0. -1.
         -2   -1    0    0    0  501 -0.00000000000E+00 -0.00000000000E+00 -0.19184927254E+04  0.19184927254E+04  0.00000000000E+00 0.  1.
         23    2    1    2    0    0 -0.12299902671E+04  0.48634561307E+02 -0.40306054428E+03  0.12982571352E+04  0.88161267131E+02 0.  0.
    5000000    2    1    2    0    0  0.12299902671E+04 -0.48634561307E+02 -0.62885443803E+03  0.15068133332E+04  0.59982258957E+03 0.  0.
         23    2    4    4    0    0  0.69050101412E+03  0.10920219552E+03 -0.69726712120E+02  0.70865140594E+03  0.92780551596E+02 0.  0.
         23    2    4    4    0    0  0.53948925303E+03 -0.15783675683E+03 -0.55912772591E+03  0.79816192722E+03  0.92073624099E+02 0.  0.
          1    1    3    3  502    0 -0.22635102725E+03 -0.24264889543E+02 -0.65957950980E+02  0.23701059828E+03  0.00000000000E+00 0. -1.
         -1    1    3    3    0  502 -0.10036392399E+04  0.72899450850E+02 -0.33710259330E+03  0.10612465370E+04  0.00000000000E+00 0.  1.
         11    1    5    5    0    0  0.45633235744E+03  0.55019683202E+02 -0.86522642520E+02  0.46770990331E+03  0.00000000000E+00 0. -1.
        -11    1    5    5    0    0  0.23416865668E+03  0.54182512320E+02  0.16795930400E+02  0.24094150264E+03  0.00000000000E+00 0.  1.
          1    1    6    6  503    0  0.10630134348E+02  0.79166315126E+01 -0.25790577347E+02  0.28997011754E+02  0.00000000000E+00 0. -1.
         -1    1    6    6    0  503  0.52885911868E+03 -0.16575338834E+03 -0.53333714856E+03  0.76916491547E+03  0.00000000000E+00 0.  1.
<mgrwt>
<rscale>  0 0.12507018E+04</rscale>
<asrwt>0</asrwt>
<pdfrwt beam="1">  1        2 0.13639658E+00 0.12507018E+04</pdfrwt>
<pdfrwt beam="2">  1       -2 0.29515272E+00 0.12507018E+04</pdfrwt>
<totfact> 0.99204878E-01</totfact>
</mgrwt>
</event>
<event>
12    1  0.1338445E-007  0.9119346E+03  0.7818608E-02  0.9410784E-01
          1   -1    0    0  501    0  0.00000000000E+00  0.00000000000E+00  0.11085404027E+04  0.11085404027E+04  0.00000000000E+00 0. -1.
         -1   -1    0    0    0  501 -0.00000000000E+00 -0.00000000000E+00 -0.94741539806E+03  0.94741539806E+03  0.00000000000E+00 0.  1.
         23    2    1    2    0    0  0.90419570875E+03 -0.26530548195E+02 -0.15979034543E+03  0.92341614958E+03  0.94290408285E+02 0.  0.
    5000000    2    1    2    0    0 -0.90419570875E+03  0.26530548195E+02  0.32091535007E+03  0.11325396512E+04  0.60115359924E+03 0.  0.
         23    2    4    4    0    0 -0.10352776078E+03  0.25879361473E+02 -0.14507280658E+03  0.20171610908E+03  0.90859951865E+02 0.  0.
         23    2    4    4    0    0 -0.80066794798E+03  0.65118672238E+00  0.46598815665E+03  0.93082354210E+03  0.90652729848E+02 0.  0.
          3    1    3    3  502    0  0.40434847069E+03 -0.55618529893E+02 -0.54581705207E+02  0.41178910763E+03  0.00000000000E+00 0. -1.
         -3    1    3    3    0  502  0.49984723806E+03  0.29087981698E+02 -0.10520864022E+03  0.51162704195E+03  0.00000000000E+00 0.  1.
         11    1    5    5    0    0  0.16718689233E+00 -0.58854016847E+01 -0.68985316471E+02  0.69236116247E+02  0.00000000000E+00 0.  1.
        -11    1    5    5    0    0 -0.10369494767E+03  0.31764763157E+02 -0.76087490110E+02  0.13247999284E+03  0.00000000000E+00 0. -1.
          4    1    6    6  503    0 -0.12544888838E+03 -0.15858529295E+01  0.11326531072E+03  0.16902357569E+03  0.00000000000E+00 0. -1.
         -4    1    6    6    0  503 -0.67521905959E+03  0.22370396519E+01  0.35272284594E+03  0.76179996641E+03  0.00000000000E+00 0.  1.
<mgrwt>
<rscale>  0 0.91193459E+03</rscale>
<asrwt>0</asrwt>
<pdfrwt beam="1">  1        1 0.17054468E+00 0.91193459E+03</pdfrwt>
<pdfrwt beam="2">  1       -1 0.14575621E+00 0.91193459E+03</pdfrwt>
<totfact> 0.47725964E+00</totfact>
</mgrwt>
</event>
<event>
12    1  0.1338445E-007  0.7137895E+03  0.7818608E-02  0.9693937E-01
         -2   -1    0    0    0  501 -0.00000000000E+00  0.00000000000E+00  0.47947634921E+03  0.47947634921E+03  0.00000000000E+00 0. -1.
          2   -1    0    0  501    0  0.00000000000E+00 -0.00000000000E+00 -0.15802956998E+04  0.15802956998E+04  0.00000000000E+00 0.  1.
         23    2    1    2    0    0  0.22943338024E+03 -0.67042220740E+03 -0.14799944973E+03  0.72937947213E+03  0.89358631937E+02 0.  0.
    5000000    2    1    2    0    0 -0.22943338024E+03  0.67042220740E+03 -0.95281990083E+03  0.13303925768E+04  0.59997752704E+03 0.  0.
         23    2    4    4    0    0 -0.17785303013E+03  0.53282696354E+03 -0.10009023491E+04  0.11513754260E+04  0.91233687513E+02 0.  0.
         23    2    4    4    0    0 -0.51580350106E+02  0.13759524387E+03  0.48082448273E+02  0.17901715085E+03  0.90234332801E+02 0.  0.
          4    1    3    3  502    0  0.15043419749E+03 -0.39643271135E+03 -0.45864818432E+02  0.42648906665E+03  0.00000000000E+00 0.  1.
         -4    1    3    3    0  502  0.78999182744E+02 -0.27398949606E+03 -0.10213463130E+03  0.30289040549E+03  0.00000000000E+00 0. -1.
         11    1    5    5    0    0  0.96650173599E+01  0.11358350950E+02 -0.27528111140E+02  0.31308490858E+02  0.00000000000E+00 0.  1.
        -11    1    5    5    0    0 -0.18751804749E+03  0.52146861259E+03 -0.97337423796E+03  0.11200669351E+04  0.00000000000E+00 0. -1.
          1    1    6    6  503    0 -0.54787487328E+02  0.12838728036E+03  0.69168460563E+02  0.15578587376E+03  0.00000000000E+00 0. -1.
         -1    1    6    6    0  503  0.32071372221E+01  0.92079635026E+01 -0.21086012290E+02  0.23231277092E+02  0.00000000000E+00 0.  1.
<mgrwt>
<rscale>  0 0.71378952E+03</rscale>
<asrwt>0</asrwt>
<pdfrwt beam="1">  1        2 0.24312241E+00 0.71378952E+03</pdfrwt>
<pdfrwt beam="2">  1       -2 0.73765594E-01 0.71378952E+03</pdfrwt>
<totfact> 0.19523456E+01</totfact>
</mgrwt>
</event>
<event>
12    1  0.1338445E-007  0.4819258E+03  0.7818608E-02  0.1018607E+00
          2   -1    0    0  501    0  0.00000000000E+00  0.00000000000E+00  0.93149273767E+03  0.93149273767E+03  0.00000000000E+00 0. -1.
         -2   -1    0    0    0  501 -0.00000000000E+00 -0.00000000000E+00 -0.33030712943E+03  0.33030712943E+03  0.00000000000E+00 0.  1.
         23    2    1    2    0    0  0.10433205713E+03  0.37041697357E+03  0.24827109238E+03  0.46636480561E+03  0.88111770770E+02 0.  0.
    5000000    2    1    2    0    0 -0.10433205713E+03 -0.37041697357E+03  0.35291451585E+03  0.79543506149E+03  0.60006197105E+03 0.  0.
         23    2    4    4    0    0 -0.23591020656E+03 -0.10856508736E+03 -0.58406789647E+02  0.28175317247E+03  0.92376909273E+02 0.  0.
         23    2    4    4    0    0  0.13157814943E+03 -0.26185188620E+03  0.41132130550E+03  0.51368188902E+03  0.93833080701E+02 0.  0.
          3    1    3    3  502    0  0.11756867678E+03  0.33141033379E+03  0.23557183944E+03  0.42326031546E+03  0.00000000000E+00 0. -1.
         -3    1    3    3    0  502 -0.13236619645E+02  0.39006639772E+02  0.12699252939E+02  0.43104490151E+02  0.00000000000E+00 0.  1.
         11    1    5    5    0    0 -0.45593788092E+02 -0.63751721117E+02 -0.31150778927E+02  0.84341250202E+02  0.00000000000E+00 0.  1.
        -11    1    5    5    0    0 -0.19031641847E+03 -0.44813366245E+02 -0.27256010719E+02  0.19741192227E+03  0.00000000000E+00 0. -1.
          3    1    6    6  503    0  0.51481134668E+02 -0.15664402623E+03  0.29317019764E+03  0.33635758200E+03  0.00000000000E+00 0. -1.
         -3    1    6    6    0  503  0.80097014765E+02 -0.10520785997E+03  0.11815110786E+03  0.17732430702E+03  0.00000000000E+00 0.  1.
<mgrwt>
<rscale>  0 0.48192578E+03</rscale>
<asrwt>0</asrwt>
<pdfrwt beam="1">  1        2 0.14330657E+00 0.48192578E+03</pdfrwt>
<pdfrwt beam="2">  1       -2 0.50816482E-01 0.48192578E+03</pdfrwt>
<totfact> 0.10598296E+02</totfact>
</mgrwt>
</event>
<event>
12    1  0.1338445E-007  0.7691489E+03  0.7818608E-02  0.9605779E-01
         -2   -1    0    0    0  501 -0.00000000000E+00  0.00000000000E+00  0.16975653525E+04  0.16975653525E+04  0.00000000000E+00 0.  1.
          2   -1    0    0  501    0  0.00000000000E+00 -0.00000000000E+00 -0.40519657145E+03  0.40519657145E+03  0.00000000000E+00 0. -1.
         23    2    1    2    0    0  0.68313106091E+03 -0.12398962407E+03  0.33390034444E+03  0.77577981274E+03  0.91123018976E+02 0.  0.
    5000000    2    1    2    0    0 -0.68313106091E+03  0.12398962407E+03  0.95846843661E+03  0.13269821112E+04  0.60014857013E+03 0.  0.
         23    2    4    4    0    0 -0.15004649466E+03  0.24264487409E+03  0.59295605962E+03  0.66357948015E+03  0.85734195945E+02 0.  0.
         23    2    4    4    0    0 -0.53308456625E+03 -0.11865525002E+03  0.36551237699E+03  0.66340263106E+03  0.90804900896E+02 0.  0.
          1    1    3    3  502    0  0.20829214750E+03  0.28433488862E+01  0.86783045949E+02  0.22566568283E+03  0.00000000000E+00 0.  1.
         -1    1    3    3    0  502  0.47483891341E+03 -0.12683297296E+03  0.24711729849E+03  0.55011412991E+03  0.00000000000E+00 0. -1.
         11    1    5    5    0    0 -0.11091347714E+03  0.19855412488E+03  0.38235597645E+03  0.44488384175E+03  0.00000000000E+00 0. -1.
        -11    1    5    5    0    0 -0.39133017514E+02  0.44090749208E+02  0.21060008317E+03  0.21869563840E+03  0.00000000000E+00 0.  1.
          4    1    6    6  503    0 -0.14708535364E+03 -0.70549870343E+02  0.13077483802E+03  0.20907760214E+03  0.00000000000E+00 0.  1.
         -4    1    6    6    0  503 -0.38599921262E+03 -0.48105379676E+02  0.23473753897E+03  0.45432502891E+03  0.00000000000E+00 0. -1.
<mgrwt>
<rscale>  0 0.76914889E+03</rscale>
<asrwt>0</asrwt>
<pdfrwt beam="1">  1        2 0.62337935E-01 0.76914889E+03</pdfrwt>
<pdfrwt beam="2">  1       -2 0.26116390E+00 0.76914889E+03</pdfrwt>
<totfact> 0.44237377E+00</totfact>
</mgrwt>
</event>
<event>
12    1  0.1338445E-007  0.1102294E+04  0.7818608E-02  0.9202959E-01
         -2   -1    0    0    0  501 -0.00000000000E+00  0.00000000000E+00  0.74871527008E+03  0.74871527008E+03  0.00000000000E+00 0. -1.
          2   -1    0    0  501    0  0.00000000000E+00 -0.00000000000E+00 -0.16852440541E+04  0.16852440541E+04  0.00000000000E+00 0.  1.
         23    2    1    2    0    0 -0.10132388678E+04 -0.16620599610E+03 -0.24880737411E+03  0.10601861974E+04  0.88386806596E+02 0.  0.
    5000000    2    1    2    0    0  0.10132388678E+04  0.16620599610E+03 -0.68772140988E+03  0.13737731267E+04  0.60001202472E+03 0.  0.
         23    2    4    4    0    0  0.19731900168E+03  0.27808637390E+03 -0.13596516229E+03  0.37825047571E+03  0.91214457419E+02 0.  0.
         23    2    4    4    0    0  0.81591986607E+03 -0.11188037780E+03 -0.55175624759E+03  0.99552265100E+03  0.91585725549E+02 0.  0.
          2    1    3    3  502    0 -0.36455448834E+03 -0.10267172201E+03 -0.86292376873E+02  0.38844282948E+03  0.00000000000E+00 0. -1.
         -2    1    3    3    0  502 -0.64868437942E+03 -0.63534274092E+02 -0.16251499724E+03  0.67174336797E+03  0.00000000000E+00 0.  1.
         13    1    5    5    0    0  0.18365952826E+03  0.22080583375E+03 -0.82765637099E+02  0.29889160113E+03  0.00000000000E+00 0. -1.
        -13    1    5    5    0    0  0.13659473420E+02  0.57280540153E+02 -0.53199525193E+02  0.79358874583E+02  0.00000000000E+00 0.  1.
          4    1    6    6  503    0  0.48609038386E+03 -0.10885458109E+03 -0.31243335644E+03  0.58800321710E+03  0.00000000000E+00 0. -1.
         -4    1    6    6    0  503  0.32982948220E+03 -0.30257967159E+01 -0.23932289115E+03  0.40751943390E+03  0.00000000000E+00 0.  1.
<mgrwt>
<rscale>  0 0.11022943E+04</rscale>
<asrwt>0</asrwt>
<pdfrwt beam="1">  1        2 0.25926831E+00 0.11022943E+04</pdfrwt>
<pdfrwt beam="2">  1       -2 0.11518697E+00 0.11022943E+04</pdfrwt>
<totfact> 0.57816744E+00</totfact>
</mgrwt>
</event>
<event>
12    1  0.1338445E-007  0.3630698E+03  0.7818608E-02  0.1057375E+00
         -1   -1    0    0    0  501 -0.00000000000E+00  0.00000000000E+00  0.20529047956E+03  0.20529047956E+03  0.00000000000E+00 0.  1.
          1   -1    0    0  501    0  0.00000000000E+00 -0.00000000000E+00 -0.78857617726E+03  0.78857617726E+03  0.00000000000E+00 0. -1.
         23    2    1    2    0    0 -0.76949502784E+02  0.12713703654E+03 -0.59225087986E+02  0.18346756043E+03  0.89820279696E+02 0.  0.
    5000000    2    1    2    0    0  0.76949502784E+02 -0.12713703654E+03 -0.52406060971E+03  0.81039909638E+03  0.60001843366E+03 0.  0.
         23    2    4    4    0    0  0.17204373814E+03 -0.30357712475E+03 -0.18351115215E+03  0.40526636147E+03  0.93842220092E+02 0.  0.
         23    2    4    4    0    0 -0.95094235354E+02  0.17644008821E+03 -0.34054945756E+03  0.40513273492E+03  0.89356485652E+02 0.  0.
          1    1    3    3  502    0 -0.62786353282E+02  0.72711115759E+02  0.73137447525E+01  0.96345852924E+02  0.00000000000E+00 0. -1.
         -1    1    3    3    0  502 -0.14163149502E+02  0.54425920781E+02 -0.66538832739E+02  0.87121707507E+02  0.00000000000E+00 0.  1.
         13    1    5    5    0    0  0.12724638867E+03 -0.12937913037E+03 -0.91301971311E+02  0.20314195227E+03  0.00000000000E+00 0.  1.
        -13    1    5    5    0    0  0.44797349465E+02 -0.17419799437E+03 -0.92209180838E+02  0.20212440920E+03  0.00000000000E+00 0. -1.
          1    1    6    6  503    0 -0.10627940238E+03  0.15042761787E+03 -0.25177960670E+03  0.31195632697E+03  0.00000000000E+00 0. -1.
         -1    1    6    6    0  503  0.11185167025E+02  0.26012470335E+02 -0.88769850864E+02  0.93176407941E+02  0.00000000000E+00 0.  1.
<mgrwt>
<rscale>  0 0.36306981E+03</rscale>
<asrwt>0</asrwt>
<pdfrwt beam="1">  1        1 0.12131941E+00 0.36306981E+03</pdfrwt>
<pdfrwt beam="2">  1       -1 0.31583151E-01 0.36306981E+03</pdfrwt>
<totfact> 0.21993751E+02</totfact>
</mgrwt>
</event>
<event>
12    1  0.1338445E-007  0.1596206E+04  0.7818608E-02  0.8822882E-01
          1   -1    0    0  501    0  0.00000000000E+00  0.00000000000E+00  0.26901983834E+04  0.26901983834E+04  0.00000000000E+00 0. -1.
         -1   -1    0    0    0  501 -0.00000000000E+00 -0.00000000000E+00 -0.10072851255E+04  0.10072851255E+04  0.00000000000E+00 0.  1.
         23    2    1    2    0    0 -0.29466950742E+03 -0.15621050171E+04  0.77200914237E+03  0.17695318265E+04  0.90788578874E+02 0.  0.
    5000000    2    1    2    0    0  0.29466950742E+03  0.15621050171E+04  0.91090411554E+03  0.19279516825E+04  0.60020761363E+03 0.  0.
         23    2    4    4    0    0  0.16393734423E+03  0.99773724575E+03  0.87519649059E+03  0.13406661658E+04  0.95193521829E+02 0.  0.
         23    2    4    4    0    0  0.13073216319E+03  0.56436777130E+03  0.35707624945E+02  0.58728551670E+03  0.89595557180E+02 0.  0.
          3    1    3    3  502    0 -0.21123548896E+03 -0.91770829652E+03  0.48368713831E+03  0.10586605674E+04  0.00000000000E+00 0. -1.
         -3    1    3    3    0  502 -0.83434018459E+02 -0.64439672053E+03  0.28832200406E+03  0.71087125902E+03  0.00000000000E+00 0.  1.
         11    1    5    5    0    0 -0.12247730957E+02  0.79692168978E+02  0.63157828185E+02  0.10241952925E+03  0.00000000000E+00 0. -1.
        -11    1    5    5    0    0  0.17618507518E+03  0.91804507678E+03  0.81203866241E+03  0.12382466366E+04  0.00000000000E+00 0.  1.
          4    1    6    6  503    0 -0.32391906457E+00  0.16864308322E+03  0.23241813363E+02  0.17023741166E+03  0.00000000000E+00 0. -1.
         -4    1    6    6    0  503  0.13105608226E+03  0.39572468808E+03  0.12465811581E+02  0.41704810503E+03  0.00000000000E+00 0.  1.
<mgrwt>
<rscale>  0 0.15962062E+04</rscale>
<asrwt>0</asrwt>
<pdfrwt beam="1">  1        1 0.41387667E+00 0.15962062E+04</pdfrwt>
<pdfrwt beam="2">  1       -1 0.15496694E+00 0.15962062E+04</pdfrwt>
<totfact> 0.29917290E-01</totfact>
</mgrwt>
</event>
<event>
12    1  0.1338445E-007  0.5680998E+03  0.7818608E-02  0.9973892E-01
          2   -1    0    0  501    0  0.00000000000E+00  0.00000000000E+00  0.44724357147E+03  0.44724357147E+03  0.00000000000E+00 0. -1.
         -2   -1    0    0    0  501 -0.00000000000E+00 -0.00000000000E+00 -0.85954164772E+03  0.85954164772E+03  0.00000000000E+00 0.  1.
         23    2    1    2    0    0  0.41507640346E+03  0.25489886149E+02  0.71188222523E+02  0.43119178053E+03  0.88996817744E+02 0.  0.
    5000000    2    1    2    0    0 -0.41507640346E+03 -0.25489886149E+02 -0.48348629877E+03  0.87559343866E+03  0.59997226080E+03 0.  0.
         23    2    4    4    0    0  0.24323158759E+02  0.20542853147E+03 -0.15204588224E+03  0.27209928904E+03  0.90153065350E+02 0.  0.
         23    2    4    4    0    0 -0.43939956222E+03 -0.23091841762E+03 -0.33144041653E+03  0.60349414963E+03  0.89202847776E+02 0.  0.
          2    1    3    3  502    0  0.20753134468E+03 -0.21858302397E+02  0.68010082449E+01  0.20879008147E+03  0.00000000000E+00 0. -1.
         -2    1    3    3    0  502  0.20754505878E+03  0.47348188546E+02  0.64387214278E+02  0.22240169906E+03  0.00000000000E+00 0.  1.
         11    1    5    5    0    0 -0.22239000612E+02  0.49832407705E+02 -0.73897600721E+02  0.91862382933E+02  0.00000000000E+00 0.  1.
        -11    1    5    5    0    0  0.46562159370E+02  0.15559612377E+03 -0.78148281523E+02  0.18023690610E+03  0.00000000000E+00 0. -1.
          1    1    6    6  503    0 -0.13259151076E+03 -0.51503379346E+02 -0.52258456072E+02  0.15153894892E+03  0.00000000000E+00 0. -1.
         -1    1    6    6    0  503 -0.30680805145E+03 -0.17941503828E+03 -0.27918196046E+03  0.45195520070E+03  0.00000000000E+00 0.  1.
<mgrwt>
<rscale>  0 0.56809983E+03</rscale>
<asrwt>0</asrwt>
<pdfrwt beam="1">  1        2 0.68806704E-01 0.56809983E+03</pdfrwt>
<pdfrwt beam="2">  1       -2 0.13223718E+00 0.56809983E+03</pdfrwt>
<totfact> 0.29952801E+01</totfact>
</mgrwt>
</event>
<event>
12    1  0.1338445E-007  0.5245497E+03  0.7818608E-02  0.1007563E+00
          2   -1    0    0  501    0  0.00000000000E+00  0.00000000000E+00  0.55654752813E+03  0.55654752813E+03  0.00000000000E+00 0.  1.
         -2   -1    0    0    0  501 -0.00000000000E+00 -0.00000000000E+00 -0.58818224853E+03  0.58818224853E+03  0.00000000000E+00 0. -1.
         23    2    1    2    0    0  0.38958488018E+03  0.12205835873E+03 -0.18391473309E+02  0.41880394790E+03  0.91563522691E+02 0.  0.
    5000000    2    1    2    0    0 -0.38958488018E+03 -0.12205835873E+03 -0.13243247097E+02  0.72592582876E+03  0.60009857812E+03 0.  0.
         23    2    4    4    0    0 -0.36135588206E+03 -0.29295959589E+03 -0.13836439656E+03  0.49311894356E+03  0.87282231493E+02 0.  0.
         23    2    4    4    0    0 -0.28228998116E+02  0.17090123716E+03  0.12512114946E+03  0.23280688520E+03  0.92410143150E+02 0.  0.
          3    1    3    3  502    0  0.15321500583E+03  0.56707928759E+02  0.36724138164E+02  0.16744936405E+03  0.00000000000E+00 0. -1.
         -3    1    3    3    0  502  0.23636987434E+03  0.65350429973E+02 -0.55115611473E+02  0.25135458385E+03  0.00000000000E+00 0.  1.
         11    1    5    5    0    0 -0.19609982640E+03 -0.16642510275E+03 -0.12105277141E+03  0.28426436675E+03  0.00000000000E+00 0. -1.
        -11    1    5    5    0    0 -0.16525605567E+03 -0.12653449314E+03 -0.17311625156E+02  0.20885457681E+03  0.00000000000E+00 0.  1.
          3    1    6    6  503    0  0.37592191223E+01  0.53481958867E+01 -0.13190564153E+02  0.14721613713E+02  0.00000000000E+00 0. -1.
         -3    1    6    6    0  503 -0.31988217238E+02  0.16555304127E+03  0.13831171362E+03  0.21808527149E+03  0.00000000000E+00 0.  1.
<mgrwt>
<rscale>  0 0.52454974E+03</rscale>
<asrwt>0</asrwt>
<pdfrwt beam="1">  1        2 0.85622697E-01 0.52454974E+03</pdfrwt>
<pdfrwt beam="2">  1       -2 0.90489576E-01 0.52454974E+03</pdfrwt>
<totfact> 0.58349051E+01</totfact>
</mgrwt>
</event>
<event>
12    1  0.1338445E-007  0.7782139E+03  0.7818608E-02  0.9592098E-01
          1   -1    0    0  501    0  0.00000000000E+00  0.00000000000E+00  0.55510837932E+03  0.55510837932E+03  0.00000000000E+00 0. -1.
         -1   -1    0    0    0  501 -0.00000000000E+00 -0.00000000000E+00 -0.20238878856E+04  0.20238878856E+04  0.00000000000E+00 0.  1.
         23    2    1    2    0    0 -0.27823573823E+03 -0.60798025095E+03 -0.15363750205E+04  0.16780531744E+04  0.91428337507E+02 0.  0.
    5000000    2    1    2    0    0  0.27823573823E+03  0.60798025095E+03  0.67595514213E+02  0.90094309053E+03  0.60006181953E+03 0.  0.
         23    2    4    4    0    0  0.42273108968E+03  0.58366060895E+03  0.45654944649E+02  0.72727598989E+03  0.86514223595E+02 0.  0.
         23    2    4    4    0    0 -0.14449535145E+03  0.24319642004E+02  0.21940569564E+02  0.17366710064E+03  0.90600892247E+02 0.  0.
          3    1    3    3  502    0 -0.27084463500E+03 -0.52031544899E+03 -0.13518297969E+04  0.14736107975E+04  0.00000000000E+00 0. -1.
         -3    1    3    3    0  502 -0.73911032297E+01 -0.87664801961E+02 -0.18454522358E+03  0.20444237686E+03  0.00000000000E+00 0.  1.
         13    1    5    5    0    0  0.33955244093E+03  0.45647956403E+03  0.70574575146E+02  0.57328023093E+03  0.00000000000E+00 0.  1.
        -13    1    5    5    0    0  0.83178648750E+02  0.12718104492E+03 -0.24919630498E+02  0.15399575896E+03  0.00000000000E+00 0. -1.
          1    1    6    6  503    0 -0.30174892972E+02  0.34939678262E+02 -0.21479557691E+02  0.50918333452E+02  0.00000000000E+00 0. -1.
         -1    1    6    6    0  503 -0.11432045847E+03 -0.10620036258E+02  0.43420127255E+02  0.12274876719E+03  0.00000000000E+00 0.  1.
<mgrwt>
<rscale>  0 0.77821391E+03</rscale>
<asrwt>0</asrwt>
<pdfrwt beam="1">  1        1 0.85401291E-01 0.77821391E+03</pdfrwt>
<pdfrwt beam="2">  1       -1 0.31136736E+00 0.77821391E+03</pdfrwt>
<totfact> 0.11215797E+00</totfact>
</mgrwt>
</event>
<event>
12    1  0.1338445E-007  0.4290008E+03  0.7818608E-02  0.1034176E+00
         -1   -1    0    0    0  501 -0.00000000000E+00  0.00000000000E+00  0.68166170949E+03  0.68166170949E+03  0.00000000000E+00 0.  1.
          1   -1    0    0  501    0  0.00000000000E+00 -0.00000000000E+00 -0.39078438016E+03  0.39078438016E+03  0.00000000000E+00 0. -1.
         23    2    1    2    0    0 -0.19427471507E+03 -0.25434795631E+03  0.19511493326E+03  0.38573679586E+03  0.91035656210E+02 0.  0.
    5000000    2    1    2    0    0  0.19427471507E+03  0.25434795631E+03  0.95762396061E+02  0.68670929379E+03  0.59996972413E+03 0.  0.
         23    2    4    4    0    0  0.31103110836E+03  0.18079590948E+03  0.26008976081E+03  0.45309123971E+03  0.90650298237E+02 0.  0.
         23    2    4    4    0    0 -0.11675639329E+03  0.73552046834E+02 -0.16432736475E+03  0.23361805407E+03  0.92368573735E+02 0.  0.
          1    1    3    3  502    0 -0.10378782354E+03 -0.20477325822E+03  0.13454001420E+03  0.26609211754E+03  0.00000000000E+00 0. -1.
         -1    1    3    3    0  502 -0.90486891534E+02 -0.49574698093E+02  0.60574919061E+02  0.11964467832E+03  0.00000000000E+00 0.  1.
         11    1    5    5    0    0  0.19899136055E+03  0.98532031632E+02  0.10756215003E+03  0.24673009332E+03  0.00000000000E+00 0.  1.
        -11    1    5    5    0    0  0.11203974781E+03  0.82263877849E+02  0.15252761079E+03  0.20636114639E+03  0.00000000000E+00 0. -1.
          2    1    6    6  503    0 -0.43417494434E+02  0.79542545495E+02 -0.10779658608E+03  0.14082684168E+03  0.00000000000E+00 0. -1.
         -2    1    6    6    0  503 -0.73338898859E+02 -0.59904986618E+01 -0.56530778673E+02  0.92791212394E+02  0.00000000000E+00 0.  1.
<mgrwt>
<rscale>  0 0.42900079E+03</rscale>
<asrwt>0</asrwt>
<pdfrwt beam="1">  1        1 0.60120674E-01 0.42900079E+03</pdfrwt>
<pdfrwt beam="2">  1       -1 0.10487103E+00 0.42900079E+03</pdfrwt>
<totfact> 0.55725130E+01</totfact>
</mgrwt>
</event>
<event>
12    1  0.1338445E-007  0.2122311E+03  0.7818608E-02  0.1139811E+00
          2   -1    0    0  501    0  0.00000000000E+00  0.00000000000E+00  0.93079708987E+03  0.93079708987E+03  0.00000000000E+00 0. -1.
         -2   -1    0    0    0  501 -0.00000000000E+00 -0.00000000000E+00 -0.22487582334E+03  0.22487582334E+03  0.00000000000E+00 0.  1.
         23    2    1    2    0    0 -0.14292496035E+03  0.31003087449E+02  0.45996563686E+03  0.49102093357E+03  0.90246520104E+02 0.  0.
    5000000    2    1    2    0    0  0.14292496035E+03 -0.31003087449E+02  0.24595562967E+03  0.66465197964E+03  0.59989944704E+03 0.  0.
         23    2    4    4    0    0  0.13913051797E+03 -0.83753756391E+02 -0.15921568732E+03  0.24699803240E+03  0.96365970028E+02 0.  0.
         23    2    4    4    0    0  0.37944423829E+01  0.52750668942E+02  0.40517131699E+03  0.41765394725E+03  0.86452256600E+02 0.  0.
          3    1    3    3  502    0 -0.11119804901E+03 -0.11387157819E+02  0.37117996251E+03  0.38764576360E+03  0.00000000000E+00 0. -1.
         -3    1    3    3    0  502 -0.31726911338E+02  0.42390245269E+02  0.88785674347E+02  0.10337516997E+03  0.00000000000E+00 0.  1.
         13    1    5    5    0    0  0.10111543195E+02 -0.55994007423E+01 -0.71657045502E+02  0.72583254023E+02  0.00000000000E+00 0.  1.
        -13    1    5    5    0    0  0.12901897477E+03 -0.78154355649E+02 -0.87558641818E+02  0.17441477837E+03  0.00000000000E+00 0. -1.
          1    1    6    6  503    0 -0.36851106083E+02  0.96607422546E+01  0.21891735984E+03  0.22220743552E+03  0.00000000000E+00 0. -1.
         -1    1    6    6    0  503  0.40645548466E+02  0.43089926688E+02  0.18625395715E+03  0.19544651173E+03  0.00000000000E+00 0.  1.
<mgrwt>
<rscale>  0 0.21223108E+03</rscale>
<asrwt>0</asrwt>
<pdfrwt beam="1">  1        2 0.14319955E+00 0.21223108E+03</pdfrwt>
<pdfrwt beam="2">  1       -2 0.34596281E-01 0.21223108E+03</pdfrwt>
<totfact> 0.23200911E+02</totfact>
</mgrwt>
</event>
<event>
12    1  0.1338445E-007  0.7805844E+03  0.7818608E-02  0.9588554E-01
          2   -1    0    0  501    0  0.00000000000E+00  0.00000000000E+00  0.11923066278E+04  0.11923066278E+04  0.00000000000E+00 0. -1.
         -2   -1    0    0    0  501 -0.00000000000E+00 -0.00000000000E+00 -0.12256419071E+04  0.12256419071E+04  0.00000000000E+00 0.  1.
         23    2    1    2    0    0 -0.37944783212E+03 -0.57295903795E+03 -0.91583390670E+03  0.11487325293E+04  0.92584894988E+02 0.  0.
    5000000    2    1    2    0    0  0.37944783212E+03  0.57295903795E+03  0.88249862744E+03  0.12692160056E+04  0.59986892310E+03 0.  0.
         23    2    4    4    0    0 -0.13185164051E+03  0.12701513490E+03  0.33642528876E+03  0.39342143124E+03  0.89892981057E+02 0.  0.
         23    2    4    4    0    0  0.51129947263E+03  0.44594390305E+03  0.54607333869E+03  0.87579457434E+03  0.92341376643E+02 0.  0.
          1    1    3    3  502    0 -0.29016148344E+03 -0.45086703076E+03 -0.77261055382E+03  0.94042641061E+03  0.00000000000E+00 0. -1.
         -1    1    3    3    0  502 -0.89286348683E+02 -0.12209200719E+03 -0.14322335288E+03  0.20830611871E+03  0.00000000000E+00 0.  1.
         11    1    5    5    0    0 -0.49554904820E+02  0.12240418579E+02  0.15694809565E+03  0.16504005928E+03  0.00000000000E+00 0.  1.
        -11    1    5    5    0    0 -0.82296735687E+02  0.11477471632E+03  0.17947719310E+03  0.22838137196E+03  0.00000000000E+00 0. -1.
          3    1    6    6  503    0  0.10196328729E+03  0.12502726774E+03  0.94431084722E+02  0.18693731408E+03  0.00000000000E+00 0. -1.
         -3    1    6    6    0  503  0.40933618534E+03  0.32091663531E+03  0.45164225396E+03  0.68885726026E+03  0.00000000000E+00 0.  1.
<mgrwt>
<rscale>  0 0.78058437E+03</rscale>
<asrwt>0</asrwt>
<pdfrwt beam="1">  1        2 0.18343179E+00 0.78058437E+03</pdfrwt>
<pdfrwt beam="2">  1       -2 0.18856029E+00 0.78058437E+03</pdfrwt>
<totfact> 0.30963107E+00</totfact>
</mgrwt>
</event>
<event>
12    1  0.1338445E-007  0.2576890E+04  0.7818608E-02  0.8376094E-01
          1   -1    0    0  501    0  0.00000000000E+00  0.00000000000E+00  0.33203678974E+04  0.33203678974E+04  0.00000000000E+00 0. -1.
         -1   -1    0    0    0  501 -0.00000000000E+00 -0.00000000000E+00 -0.20884350422E+04  0.20884350422E+04  0.00000000000E+00 0.  1.
         23    2    1    2    0    0  0.17395707089E+04  0.18629267918E+04  0.89151792605E+02  0.25520700306E+04  0.92254628912E+02 0.  0.
    5000000    2    1    2    0    0 -0.17395707089E+04 -0.18629267918E+04  0.11427810626E+04  0.28567329090E+04  0.59864169045E+03 0.  0.
         23    2    4    4    0    0 -0.13756072696E+04 -0.17439440154E+04  0.93793548218E+03  0.24127862326E+04  0.90434210954E+02 0.  0.
         23    2    4    4    0    0 -0.36396343925E+03 -0.11898277636E+03  0.20484558038E+03  0.44394667633E+03  0.92198988309E+02 0.  0.
          1    1    3    3  502    0  0.83123845640E+03  0.92522163367E+03  0.40447892446E+01  0.12437880861E+04  0.00000000000E+00 0. -1.
         -1    1    3    3    0  502  0.90833225247E+03  0.93770515809E+03  0.85107003360E+02  0.13082819445E+04  0.00000000000E+00 0.  1.
         11    1    5    5    0    0 -0.85681846260E+03 -0.10670857407E+04  0.53170767036E+03  0.14681699161E+04  0.00000000000E+00 0. -1.
        -11    1    5    5    0    0 -0.51878880703E+03 -0.67685827476E+03  0.40622781182E+03  0.94461631656E+03  0.00000000000E+00 0.  1.
          1    1    6    6  503    0 -0.34256759017E+03 -0.11538891867E+03  0.16241273955E+03  0.39628910451E+03  0.00000000000E+00 0. -1.
         -1    1    6    6    0  503 -0.21395849076E+02 -0.35938576880E+01  0.42432840827E+02  0.47657571816E+02  0.00000000000E+00 0.  1.
<mgrwt>
<rscale>  0 0.25768900E+04</rscale>
<asrwt>0</asrwt>
<pdfrwt beam="1">  1        1 0.51082583E+00 0.25768900E+04</pdfrwt>
<pdfrwt beam="2">  1       -1 0.32129770E+00 0.25768900E+04</pdfrwt>
<totfact> 0.68827340E-03</totfact>
</mgrwt>
</event>
<event>
12    1  0.1338445E-007  0.1441305E+04  0.7818608E-02  0.8924451E-01
          1   -1    0    0  501    0  0.00000000000E+00  0.00000000000E+00  0.41055215034E+04  0.41055215034E+04  0.00000000000E+00 0. -1.
         -1   -1    0    0    0  501 -0.00000000000E+00 -0.00000000000E+00 -0.54007328172E+03  0.54007328172E+03  0.00000000000E+00 0.  1.
         23    2    1    2    0    0  0.13622782290E+04 -0.29819369490E+03  0.21848928583E+04  0.25936026427E+04  0.91084647854E+02 0.  0.
    5000000    2    1    2    0    0 -0.13622782290E+04  0.29819369490E+03  0.13805553633E+04  0.20519921424E+04  0.60001432342E+03 0.  0.
         23    2    4    4    0    0 -0.70510132005E+03 -0.98228687879E+02  0.85962144249E+03  0.11199076167E+04  0.91800320894E+02 0.  0.
         23    2    4    4    0    0 -0.65717690895E+03  0.39642238278E+03  0.52093392082E+03  0.93208452566E+03  0.91527142941E+02 0.  0.
          2    1    3    3  502    0  0.70570852120E+03 -0.16304443831E+03  0.12175603812E+04  0.14167079048E+04  0.00000000000E+00 0. -1.
         -2    1    3    3    0  502  0.65656970779E+03 -0.13514925659E+03  0.96733247715E+03  0.11768947379E+04  0.00000000000E+00 0.  1.
         11    1    5    5    0    0 -0.41612769099E+01 -0.10486524742E+02  0.16117368557E+02  0.19673662493E+02  0.00000000000E+00 0. -1.
        -11    1    5    5    0    0 -0.70094004314E+03 -0.87742163137E+02  0.84350407393E+03  0.11002339542E+04  0.00000000000E+00 0.  1.
          2    1    6    6  503    0 -0.43683481912E+03  0.22671502589E+03  0.29537801934E+03  0.57399698297E+03  0.00000000000E+00 0. -1.
         -2    1    6    6    0  503 -0.22034208983E+03  0.16970735689E+03  0.22555590149E+03  0.35808754269E+03  0.00000000000E+00 0.  1.
<mgrwt>
<rscale>  0 0.14413048E+04</rscale>
<asrwt>0</asrwt>
<pdfrwt beam="1">  1        1 0.63161867E+00 0.14413048E+04</pdfrwt>
<pdfrwt beam="2">  1       -1 0.83088200E-01 0.14413048E+04</pdfrwt>
<totfact> 0.10908756E-01</totfact>
</mgrwt>
</event>
<event>
12    1  0.1338445E-007  0.9838090E+03  0.7818608E-02  0.9326483E-01
         -2   -1    0    0    0  501 -0.00000000000E+00  0.00000000000E+00  0.49184838600E+03  0.49184838600E+03  0.00000000000E+00 0.  1.
          2   -1    0    0  501    0  0.00000000000E+00 -0.00000000000E+00 -0.21485929343E+04  0.21485929343E+04  0.00000000000E+00 0. -1.
         23    2    1    2    0    0  0.52141622204E+03  0.75374985698E+03 -0.10157148412E+04  0.13711770545E+04  0.91848531845E+02 0.  0.
    5000000    2    1    2    0    0 -0.52141622204E+03 -0.75374985698E+03 -0.64102970716E+03  0.12692642658E+04  0.60008246719E+03 0.  0.
         23    2    4    4    0    0 -0.55256170538E+03 -0.80910187416E+03 -0.57578831779E+03  0.11401149308E+04  0.91430780472E+02 0.  0.
         23    2    4    4    0    0  0.31145483341E+02  0.55352017174E+02 -0.65241389370E+02  0.12914933494E+03  0.91592711995E+02 0.  0.
          1    1    3    3  502    0  0.33497611169E+03  0.52594367735E+03 -0.63555665365E+03  0.89036959020E+03  0.00000000000E+00 0. -1.
         -1    1    3    3    0  502  0.18644011035E+03  0.22780617963E+03 -0.38015818750E+03  0.48080746432E+03  0.00000000000E+00 0.  1.
         11    1    5    5    0    0 -0.18981639091E+03 -0.35006527712E+03 -0.25524277657E+03  0.47299559775E+03  0.00000000000E+00 0. -1.
        -11    1    5    5    0    0 -0.36274531448E+03 -0.45903659704E+03 -0.32054554122E+03  0.66711933310E+03  0.00000000000E+00 0.  1.
          3    1    6    6  503    0  0.13263800225E+02  0.73098935788E+01 -0.75386763844E+02  0.76892958737E+02  0.00000000000E+00 0. -1.
         -3    1    6    6    0  503  0.17881683115E+02  0.48042123595E+02  0.10145374473E+02  0.52256376202E+02  0.00000000000E+00 0.  1.
<mgrwt>
<rscale>  0 0.98380897E+03</rscale>
<asrwt>0</asrwt>
<pdfrwt beam="1">  1        2 0.33055275E+00 0.98380897E+03</pdfrwt>
<pdfrwt beam="2">  1       -2 0.75668984E-01 0.98380897E+03</pdfrwt>
<totfact> 0.86971260E+00</totfact>
</mgrwt>
</event>
<event>
12    1  0.1338445E-007  0.8578306E+03  0.7818608E-02  0.9479887E-01
          1   -1    0    0  501    0  0.00000000000E+00  0.00000000000E+00  0.10901168828E+04  0.10901168828E+04  0.00000000000E+00 0. -1.
         -1   -1    0    0    0  501 -0.00000000000E+00 -0.00000000000E+00 -0.74817188727E+03  0.74817188727E+03  0.00000000000E+00 0.  1.
         23    2    1    2    0    0  0.60836792509E+03  0.48964083896E+03  0.33170317255E+03  0.85341845090E+03  0.91849737118E+02 0.  0.
    5000000    2    1    2    0    0 -0.60836792509E+03 -0.48964083896E+03  0.10241822955E+02  0.98487031914E+03  0.60000413926E+03 0.  0.
         23    2    4    4    0    0  0.53575350708E+02 -0.19864991957E+03 -0.10065221988E+03  0.24731026101E+03  0.93270504896E+02 0.  0.
         23    2    4    4    0    0 -0.66194327580E+03 -0.29099091939E+03  0.11089404283E+03  0.73756005813E+03  0.94088974247E+02 0.  0.
          3    1    3    3  502    0  0.29361247494E+03  0.19760234599E+03  0.18728331285E+03  0.40041230233E+03  0.00000000000E+00 0. -1.
         -3    1    3    3    0  502  0.31475545015E+03  0.29203849296E+03  0.14441985970E+03  0.45300614858E+03  0.00000000000E+00 0.  1.
         11    1    5    5    0    0  0.55495359543E+02 -0.15966397584E+03 -0.11638447685E+03  0.20522589155E+03  0.00000000000E+00 0. -1.
        -11    1    5    5    0    0 -0.19200088349E+01 -0.38985943737E+02  0.15732256976E+02  0.42084369457E+02  0.00000000000E+00 0.  1.
          1    1    6    6  503    0 -0.13995920684E+03 -0.80715502441E+02  0.60653299548E+02  0.17257576499E+03  0.00000000000E+00 0.  1.
         -1    1    6    6    0  503 -0.52198406896E+03 -0.21027541694E+03  0.50240743283E+02  0.56498429314E+03  0.00000000000E+00 0. -1.
<mgrwt>
<rscale>  0 0.85783061E+03</rscale>
<asrwt>0</asrwt>
<pdfrwt beam="1">  1        1 0.16771029E+00 0.85783061E+03</pdfrwt>
<pdfrwt beam="2">  1       -1 0.11510337E+00 0.85783061E+03</pdfrwt>
<totfact> 0.90042109E+00</totfact>
</mgrwt>
</event>
<event>
12    1  0.1338445E-007  0.2746387E+03  0.7818608E-02  0.1098654E+00
         -1   -1    0    0    0  501 -0.00000000000E+00  0.00000000000E+00  0.58335733722E+03  0.58335733722E+03  0.00000000000E+00 0.  1.
          1   -1    0    0  501    0  0.00000000000E+00 -0.00000000000E+00 -0.28893812985E+03  0.28893812985E+03  0.00000000000E+00 0. -1.
         23    2    1    2    0    0 -0.16439860672E+03 -0.88784343237E+01  0.12500356764E+03  0.22748115047E+03  0.94952901003E+02 0.  0.
    5000000    2    1    2    0    0  0.16439860672E+03  0.88784343237E+01  0.16941563973E+03  0.64481431659E+03  0.59998176257E+03 0.  0.
         23    2    4    4    0    0 -0.81007374141E+02  0.27569642478E+02  0.32010013252E+03  0.34360331128E+03  0.90977254492E+02 0.  0.
         23    2    4    4    0    0  0.24540598086E+03 -0.18691208154E+02 -0.15068449279E+03  0.30121100531E+03  0.86306411388E+02 0.  0.
          2    1    3    3  502    0 -0.98013575598E+02 -0.39527742874E+02  0.11056573339E+03  0.15295059613E+03  0.00000000000E+00 0. -1.
         -2    1    3    3    0  502 -0.66385031123E+02  0.30649308550E+02  0.14437834251E+02  0.74530554336E+02  0.00000000000E+00 0.  1.
         13    1    5    5    0    0  0.18590447994E+02 -0.55410950193E+01  0.62515593272E+02  0.65456152444E+02  0.00000000000E+00 0.  1.
        -13    1    5    5    0    0 -0.99597822135E+02  0.33110737497E+02  0.25758453925E+03  0.27814715884E+03  0.00000000000E+00 0. -1.
          4    1    6    6  503    0  0.32826604779E+02 -0.21761783236E+01 -0.62190784552E+02  0.70356345958E+02  0.00000000000E+00 0. -1.
         -4    1    6    6    0  503  0.21257937608E+03 -0.16515029831E+02 -0.88493708240E+02  0.23085465935E+03  0.00000000000E+00 0.  1.
<mgrwt>
<rscale>  0 0.27463868E+03</rscale>
<asrwt>0</asrwt>
<pdfrwt beam="1">  1        1 0.44452020E-01 0.27463868E+03</pdfrwt>
<pdfrwt beam="2">  1       -1 0.89747283E-01 0.27463868E+03</pdfrwt>
<totfact> 0.11853831E+02</totfact>
</mgrwt>
</event>
<event>
12    1  0.1338445E-007  0.8702992E+03  0.7818608E-02  0.9463490E-01
          2   -1    0    0  501    0  0.00000000000E+00  0.00000000000E+00  0.30412248013E+04  0.30412248013E+04  0.00000000000E+00 0. -1.
         -2   -1    0    0    0  501 -0.00000000000E+00 -0.00000000000E+00 -0.53123647834E+03  0.53123647834E+03  0.00000000000E+00 0.  1.
         23    2    1    2    0    0 -0.20971399547E+02 -0.81849758633E+03  0.24165259866E+04  0.25530950743E+04  0.91205900937E+02 0.  0.
    5000000    2    1    2    0    0  0.20971399547E+02  0.81849758633E+03  0.93462336366E+02  0.10193662053E+04  0.59999512811E+03 0.  0.
         23    2    4    4    0    0 -0.82138001699E+02  0.77871688769E+03 -0.82821593032E+02  0.79244500447E+03  0.89235790655E+02 0.  0.
         23    2    4    4    0    0  0.10310940125E+03  0.39780698634E+02  0.17628392940E+03  0.22692120083E+03  0.90571270342E+02 0.  0.
          1    1    3    3  502    0  0.17321917777E+02 -0.24592325158E+03  0.83722036681E+03  0.87276356312E+03  0.00000000000E+00 0. -1.
         -1    1    3    3    0  502 -0.38293317324E+02 -0.57257433474E+03  0.15793056198E+04  0.16803315112E+04  0.00000000000E+00 0.  1.
         11    1    5    5    0    0 -0.42006242808E+02  0.62324035383E+03 -0.93051472910E+02  0.63154702097E+03  0.00000000000E+00 0. -1.
        -11    1    5    5    0    0 -0.40131758892E+02  0.15547653386E+03  0.10229879878E+02  0.16089798350E+03  0.00000000000E+00 0.  1.
          1    1    6    6  503    0  0.11306433864E+03  0.47249906560E+02  0.17601853600E+03  0.21447289656E+03  0.00000000000E+00 0. -1.
         -1    1    6    6    0  503 -0.99549373917E+01 -0.74692079266E+01  0.26539339664E+00  0.12448304269E+02  0.00000000000E+00 0.  1.
<mgrwt>
<rscale>  0 0.87029921E+03</rscale>
<asrwt>0</asrwt>
<pdfrwt beam="1">  1        2 0.46788073E+00 0.87029921E+03</pdfrwt>
<pdfrwt beam="2">  1       -2 0.81728691E-01 0.87029921E+03</pdfrwt>
<totfact> 0.22559602E+00</totfact>
</mgrwt>
</event>
<event>
12    1  0.1338445E-007  0.5749521E+03  0.7818608E-02  0.9958780E-01
          2   -1    0    0  501    0  0.00000000000E+00  0.00000000000E+00  0.40276597935E+03  0.40276597935E+03  0.00000000000E+00 0. -1.
         -2   -1    0    0    0  501 -0.00000000000E+00 -0.00000000000E+00 -0.11092469698E+04  0.11092469698E+04  0.00000000000E+00 0.  1.
         23    2    1    2    0    0 -0.46914779629E+03  0.23430393638E+03 -0.36362479373E+03  0.64448679678E+03  0.90234423828E+02 0.  0.
    5000000    2    1    2    0    0  0.46914779629E+03 -0.23430393638E+03 -0.34285619670E+03  0.86752615234E+03  0.60004438504E+03 0.  0.
         23    2    4    4    0    0  0.48394147811E+03 -0.21710911339E+03 -0.27599310898E+02  0.53917446273E+03  0.92799019138E+02 0.  0.
         23    2    4    4    0    0 -0.14793681820E+02 -0.17194822997E+02 -0.31525688580E+03  0.32835168961E+03  0.88957366566E+02 0.  0.
          2    1    3    3  502    0 -0.24563219993E+03  0.15037645620E+03 -0.24385228760E+03  0.37737540247E+03  0.00000000000E+00 0. -1.
         -2    1    3    3    0  502 -0.22351559636E+03  0.83927480184E+02 -0.11977250612E+03  0.26711139431E+03  0.00000000000E+00 0.  1.
         13    1    5    5    0    0  0.10629669378E+03 -0.63660442072E+02  0.30035568018E+02  0.12749029116E+03  0.00000000000E+00 0.  1.
        -13    1    5    5    0    0  0.37764478432E+03 -0.15344867131E+03 -0.57634878916E+02  0.41168417157E+03  0.00000000000E+00 0. -1.
          2    1    6    6  503    0  0.26041878282E+02 -0.37776592415E+02 -0.14729007284E+03  0.15427124138E+03  0.00000000000E+00 0. -1.
         -2    1    6    6    0  503 -0.40835560103E+02  0.20581769418E+02 -0.16796681296E+03  0.17408044823E+03  0.00000000000E+00 0.  1.
<mgrwt>
<rscale>  0 0.57495209E+03</rscale>
<asrwt>0</asrwt>
<pdfrwt beam="1">  1        2 0.61963996E-01 0.57495209E+03</pdfrwt>
<pdfrwt beam="2">  1       -2 0.17065338E+00 0.57495209E+03</pdfrwt>
<totfact> 0.17182389E+01</totfact>
</mgrwt>
</event>
<event>
12    1  0.1338445E-007  0.9055601E+03  0.7818608E-02  0.9418658E-01
          2   -1    0    0  501    0  0.00000000000E+00  0.00000000000E+00  0.21930890111E+04  0.21930890111E+04  0.00000000000E+00 0. -1.
         -2   -1    0    0    0  501 -0.00000000000E+00 -0.00000000000E+00 -0.46856071138E+03  0.46856071138E+03  0.00000000000E+00 0.  1.
         23    2    1    2    0    0 -0.72980184812E+03 -0.37632050356E+03  0.23656041411E+03  0.85934079560E+03  0.90983045355E+02 0.  0.
    5000000    2    1    2    0    0  0.72980184812E+03  0.37632050356E+03  0.14879678856E+04  0.18023089268E+04  0.60003431594E+03 0.  0.
         23    2    4    4    0    0  0.74227776852E+03  0.15576031065E+03  0.12493489733E+04  0.14643954208E+04  0.91342932491E+02 0.  0.
         23    2    4    4    0    0 -0.12475920398E+02  0.22056019292E+03  0.23861891226E+03  0.33791350603E+03  0.91891811291E+02 0.  0.
          1    1    3    3  502    0 -0.24487386410E+03 -0.94220907080E+02  0.10833234087E+03  0.28386032609E+03  0.00000000000E+00 0. -1.
         -1    1    3    3    0  502 -0.48492798402E+03 -0.28209959648E+03  0.12822807323E+03  0.57548046951E+03  0.00000000000E+00 0.  1.
         11    1    5    5    0    0  0.44657724490E+03  0.97554815467E+02  0.66570706213E+03  0.80753580122E+03  0.00000000000E+00 0. -1.
        -11    1    5    5    0    0  0.29570052362E+03  0.58205495181E+02  0.58364191119E+03  0.65685961959E+03  0.00000000000E+00 0.  1.
          3    1    6    6  503    0 -0.34177311375E+02  0.79586313666E+02  0.13956723602E+03  0.16425919550E+03  0.00000000000E+00 0. -1.
         -3    1    6    6    0  503  0.21701390977E+02  0.14097387925E+03  0.99051676241E+02  0.17365431054E+03  0.00000000000E+00 0.  1.
<mgrwt>
<rscale>  0 0.90556007E+03</rscale>
<asrwt>0</asrwt>
<pdfrwt beam="1">  1        2 0.33739830E+00 0.90556007E+03</pdfrwt>
<pdfrwt beam="2">  1       -2 0.72086265E-01 0.90556007E+03</pdfrwt>
<totfact> 0.92389628E+00</totfact>
</mgrwt>
</event>
<event>
12    1  0.1338445E-007  0.1776706E+04  0.7818608E-02  0.8718786E-01
         -1   -1    0    0    0  501 -0.00000000000E+00  0.00000000000E+00  0.20337139376E+04  0.20337139376E+04  0.00000000000E+00 0.  1.
          1   -1    0    0  501    0  0.00000000000E+00 -0.00000000000E+00 -0.19161246996E+04  0.19161246996E+04  0.00000000000E+00 0. -1.
         23    2    1    2    0    0  0.16889682786E+04 -0.37566444758E+03 -0.79199947878E+03  0.19050726862E+04  0.91110603079E+02 0.  0.
    5000000    2    1    2    0    0 -0.16889682786E+04  0.37566444758E+03  0.90958871679E+03  0.20447659510E+04  0.59998211410E+03 0.  0.
         23    2    4    4    0    0 -0.15206585556E+04  0.14979863996E+03  0.69803388122E+03  0.16824004009E+04  0.91529964245E+02 0.  0.
         23    2    4    4    0    0 -0.16830972304E+03  0.22586580762E+03  0.21155483556E+03  0.36236555010E+03  0.84910644383E+02 0.  0.
          1    1    3    3  502    0  0.34517953151E+03 -0.64325700173E+02 -0.12324473879E+03  0.37212359549E+03  0.00000000000E+00 0. -1.
         -1    1    3    3    0  502  0.13437887471E+04 -0.31133874741E+03 -0.66875473999E+03  0.15329490907E+04  0.00000000000E+00 0.  1.
         11    1    5    5    0    0 -0.22852209719E+03 -0.88856821667E+01  0.94217273228E+02  0.24734227060E+03  0.00000000000E+00 0. -1.
        -11    1    5    5    0    0 -0.12921364584E+04  0.15868432213E+03  0.60381660800E+03  0.14350581303E+04  0.00000000000E+00 0.  1.
          4    1    6    6  503    0 -0.70661000549E+02  0.15907267046E+03  0.10587772404E+03  0.20373311939E+03  0.00000000000E+00 0. -1.
         -4    1    6    6    0  503 -0.97648722489E+02  0.66793137154E+02  0.10567711152E+03  0.15863243071E+03  0.00000000000E+00 0.  1.
<mgrwt>
<rscale>  0 0.17767062E+04</rscale>
<asrwt>0</asrwt>
<pdfrwt beam="1">  1        1 0.29478842E+00 0.17767062E+04</pdfrwt>
<pdfrwt beam="2">  1       -1 0.31287906E+00 0.17767062E+04</pdfrwt>
<totfact> 0.84490259E-02</totfact>
</mgrwt>
</event>
<event>
12    1  0.1338445E-007  0.4993962E+03  0.7818608E-02  0.1013937E+00
         -2   -1    0    0    0  501 -0.00000000000E+00  0.00000000000E+00  0.86827517043E+03  0.86827517043E+03  0.00000000000E+00 0.  1.
          2   -1    0    0  501    0  0.00000000000E+00 -0.00000000000E+00 -0.44171699480E+03  0.44171699480E+03  0.00000000000E+00 0. -1.
         23    2    1    2    0    0  0.36927982350E+03 -0.21216893095E+03 -0.42299266221E+02  0.43799613980E+03  0.93102885304E+02 0.  0.
    5000000    2    1    2    0    0 -0.36927982350E+03  0.21216893095E+03  0.46885744185E+03  0.87199602542E+03  0.59930503441E+03 0.  0.
         23    2    4    4    0    0  0.43812287267E+02 -0.93435382190E+00  0.37549664340E+03  0.38904823093E+03  0.91871689042E+02 0.  0.
         23    2    4    4    0    0 -0.41309211077E+03  0.21310328477E+03  0.93360798445E+02  0.48294779450E+03  0.92001258479E+02 0.  0.
          3    1    3    3  502    0  0.17359645917E+03 -0.61394250878E+02 -0.50145938210E+02  0.19083919879E+03  0.00000000000E+00 0. -1.
         -3    1    3    3    0  502  0.19568336433E+03 -0.15077468007E+03  0.78466719890E+01  0.24715694101E+03  0.00000000000E+00 0.  1.
         11    1    5    5    0    0 -0.15100830155E+02 -0.26676692513E+02  0.63698698398E+02  0.70690912941E+02  0.00000000000E+00 0. -1.
        -11    1    5    5    0    0  0.58913117422E+02  0.25742338691E+02  0.31179794501E+03  0.31835731799E+03  0.00000000000E+00 0.  1.
          3    1    6    6  503    0 -0.13473427082E+03  0.25824587249E+02  0.11876834436E+02  0.13770000812E+03  0.00000000000E+00 0. -1.
         -3    1    6    6    0  503 -0.27835783995E+03  0.18727869752E+03  0.81483964010E+02  0.34524778638E+03  0.00000000000E+00 0.  1.
<mgrwt>
<rscale>  0 0.49939623E+03</rscale>
<asrwt>0</asrwt>
<pdfrwt beam="1">  1        2 0.67956461E-01 0.49939623E+03</pdfrwt>
<pdfrwt beam="2">  1       -2 0.13358079E+00 0.49939623E+03</pdfrwt>
<totfact> 0.29826063E+01</totfact>
</mgrwt>
</event>
<event>
12    1  0.1338445E-007  0.8710509E+03  0.7818608E-02  0.9462511E-01
         -1   -1    0    0    0  501 -0.00000000000E+00  0.00000000000E+00  0.41425496834E+03  0.41425496834E+03  0.00000000000E+00 0.  1.
          1   -1    0    0  501    0  0.00000000000E+00 -0.00000000000E+00 -0.18572669278E+04  0.18572669278E+04  0.00000000000E+00 0. -1.
         23    2    1    2    0    0  0.32707285592E+03 -0.69867549740E+03 -0.64644051750E+03  0.10105555008E+04  0.90625458297E+02 0.  0.
    5000000    2    1    2    0    0 -0.32707285592E+03  0.69867549740E+03 -0.79657144194E+03  0.12609663954E+04  0.60032165078E+03 0.  0.
         23    2    4    4    0    0 -0.46645778453E+03  0.35955986183E+03 -0.42975718944E+03  0.73445099569E+03  0.88661514808E+02 0.  0.
         23    2    4    4    0    0  0.13938492862E+03  0.33911563558E+03 -0.36681425249E+03  0.52651539968E+03  0.90764517556E+02 0.  0.
          4    1    3    3  502    0  0.25906772351E+03 -0.49042214068E+03 -0.50251073470E+03  0.74842968937E+03  0.00000000000E+00 0. -1.
         -4    1    3    3    0  502  0.68005132403E+02 -0.20825335672E+03 -0.14392978280E+03  0.26212581138E+03  0.00000000000E+00 0.  1.
         11    1    5    5    0    0 -0.38715443396E+03  0.31888457509E+03 -0.39633861515E+03  0.63926537981E+03  0.00000000000E+00 0. -1.
        -11    1    5    5    0    0 -0.79303350577E+02  0.40675286739E+02 -0.33418574297E+02  0.95185615888E+02  0.00000000000E+00 0.  1.
          3    1    6    6  503    0  0.90566047963E+02  0.30490161105E+03 -0.30652305895E+03  0.44172795602E+03  0.00000000000E+00 0. -1.
         -3    1    6    6    0  503  0.48818880656E+02  0.34214024530E+02 -0.60291193543E+02  0.84787443657E+02  0.00000000000E+00 0.  1.
<mgrwt>
<rscale>  0 0.87105091E+03</rscale>
<asrwt>0</asrwt>
<pdfrwt beam="1">  1        1 0.28573338E+00 0.87105091E+03</pdfrwt>
<pdfrwt beam="2">  1       -1 0.63731533E-01 0.87105091E+03</pdfrwt>
<totfact> 0.95401736E+00</totfact>
</mgrwt>
</event>
<event>
12    1  0.1338445E-007  0.6693394E+03  0.7818608E-02  0.9771152E-01
         -1   -1    0    0    0  501 -0.00000000000E+00  0.00000000000E+00  0.15263825761E+04  0.15263825761E+04  0.00000000000E+00 0.  1.
          1   -1    0    0  501    0  0.00000000000E+00 -0.00000000000E+00 -0.33171442463E+03  0.33171442463E+03  0.00000000000E+00 0. -1.
         23    2    1    2    0    0 -0.92820230206E+02  0.57354517677E+03  0.48559510908E+03  0.76245619440E+03  0.89259024710E+02 0.  0.
    5000000    2    1    2    0    0  0.92820230206E+02 -0.57354517677E+03  0.70907304237E+03  0.10956408063E+04  0.60006210688E+03 0.  0.
         23    2    4    4    0    0 -0.12328247581E+03 -0.47950661781E+03  0.22932853531E+03  0.55325734424E+03  0.91525660215E+02 0.  0.
         23    2    4    4    0    0  0.21610270602E+03 -0.94038558958E+02  0.47974450706E+03  0.54238346207E+03  0.92094504527E+02 0.  0.
          4    1    3    3  502    0  0.88816185127E+01  0.20746001425E+03  0.16158966101E+03  0.26311548644E+03  0.00000000000E+00 0. -1.
         -4    1    3    3    0  502 -0.10170184872E+03  0.36608516252E+03  0.32400544807E+03  0.49934070796E+03  0.00000000000E+00 0.  1.
         11    1    5    5    0    0 -0.13989750716E+02 -0.21463737700E+03  0.74907468245E+02  0.22776313471E+03  0.00000000000E+00 0.  1.
        -11    1    5    5    0    0 -0.10929272509E+03 -0.26486924081E+03  0.15442106707E+03  0.32549420953E+03  0.00000000000E+00 0. -1.
          3    1    6    6  503    0  0.10650789696E+03 -0.23022882738E+01  0.16089533796E+03  0.19296772379E+03  0.00000000000E+00 0. -1.
         -3    1    6    6    0  503  0.10959480906E+03 -0.91736270684E+02  0.31884916909E+03  0.34941573829E+03  0.00000000000E+00 0.  1.
<mgrwt>
<rscale>  0 0.66933935E+03</rscale>
<asrwt>0</asrwt>
<pdfrwt beam="1">  1        1 0.51032989E-01 0.66933935E+03</pdfrwt>
<pdfrwt beam="2">  1       -1 0.23482808E+00 0.66933935E+03</pdfrwt>
<totfact> 0.70610319E+00</totfact>
</mgrwt>
</event>
<event>
12    1  0.1338445E-007  0.8767133E+03  0.7818608E-02  0.9455168E-01
          2   -1    0    0  501    0  0.00000000000E+00  0.00000000000E+00  0.28600678116E+04  0.28600678116E+04  0.00000000000E+00 0. -1.
         -2   -1    0    0    0  501 -0.00000000000E+00 -0.00000000000E+00 -0.35147686777E+03  0.35147686777E+03  0.00000000000E+00 0.  1.
         23    2    1    2    0    0 -0.84534278301E+03  0.91679832882E+02  0.62233322857E+03  0.10572105464E+04  0.85941139848E+02 0.  0.
    5000000    2    1    2    0    0  0.84534278301E+03 -0.91679832882E+02  0.18862577153E+04  0.21543341329E+04  0.60014812792E+03 0.  0.
         23    2    4    4    0    0  0.68932394814E+03  0.33264988164E+02  0.17753906587E+04  0.19070947759E+04  0.93404649217E+02 0.  0.
         23    2    4    4    0    0  0.15601883488E+03 -0.12494482105E+03  0.11086705656E+03  0.24723935701E+03  0.94248131448E+02 0.  0.
          3    1    3    3  502    0 -0.16059458233E+03  0.48857160254E+02  0.10582264784E+03  0.19843405649E+03  0.00000000000E+00 0. -1.
         -3    1    3    3    0  502 -0.68474820069E+03  0.42822672629E+02  0.51651058073E+03  0.85877648993E+03  0.00000000000E+00 0.  1.
         11    1    5    5    0    0  0.59410437798E+03  0.32308013030E+02  0.14305335102E+04  0.15493320959E+04  0.00000000000E+00 0. -1.
        -11    1    5    5    0    0  0.95219570157E+02  0.95697513359E+00  0.34485714849E+03  0.35776268001E+03  0.00000000000E+00 0.  1.
          3    1    6    6  503    0  0.23099675921E+02 -0.53712509584E+02  0.69584165365E+02  0.90887759259E+02  0.00000000000E+00 0. -1.
         -3    1    6    6    0  503  0.13291915896E+03 -0.71232311462E+02  0.41282891195E+02  0.15635159775E+03  0.00000000000E+00 0.  1.
<mgrwt>
<rscale>  0 0.87671325E+03</rscale>
<asrwt>0</asrwt>
<pdfrwt beam="1">  1        2 0.44001042E+00 0.87671325E+03</pdfrwt>
<pdfrwt beam="2">  1       -2 0.54073366E-01 0.87671325E+03</pdfrwt>
<totfact> 0.71057753E+00</totfact>
</mgrwt>
</event>
<event>
12    1  0.1338445E-007  0.8485249E+03  0.7818608E-02  0.9492319E-01
          2   -1    0    0  501    0  0.00000000000E+00  0.00000000000E+00  0.67952254258E+03  0.67952254258E+03  0.00000000000E+00 0. -1.
         -2   -1    0    0    0  501 -0.00000000000E+00 -0.00000000000E+00 -0.14150967298E+04  0.14150967298E+04  0.00000000000E+00 0.  1.
         23    2    1    2    0    0  0.57503061618E+03 -0.55405744534E+03 -0.74568514869E+03  0.10956884851E+04  0.82746922664E+02 0.  0.
    5000000    2    1    2    0    0 -0.57503061618E+03  0.55405744534E+03  0.10110961480E+02  0.99893078722E+03  0.60010051144E+03 0.  0.
         23    2    4    4    0    0 -0.58512513684E+03  0.55496420109E+03 -0.13993708085E+03  0.82344606737E+03  0.90135170801E+02 0.  0.
         23    2    4    4    0    0  0.10094520655E+02 -0.90675574681E+00  0.15004804233E+03  0.17548471985E+03  0.90430914748E+02 0.  0.
          2    1    3    3  502    0  0.98533256364E+02 -0.11825690755E+03 -0.18358035091E+03  0.23957304530E+03  0.00000000000E+00 0. -1.
         -2    1    3    3    0  502  0.47649735982E+03 -0.43580053779E+03 -0.56210479779E+03  0.85611543985E+03  0.00000000000E+00 0.  1.
         11    1    5    5    0    0 -0.31669733377E+03  0.29419937220E+03 -0.29552561745E+02  0.43327107650E+03  0.00000000000E+00 0.  1.
        -11    1    5    5    0    0 -0.26842780306E+03  0.26076482889E+03 -0.11038451910E+03  0.39017499087E+03  0.00000000000E+00 0. -1.
          2    1    6    6  503    0 -0.21694488103E+02 -0.36940926407E+02  0.66528709713E+02  0.79128705752E+02  0.00000000000E+00 0. -1.
         -2    1    6    6    0  503  0.31789008758E+02  0.36034170660E+02  0.83519332614E+02  0.96356014101E+02  0.00000000000E+00 0.  1.
<mgrwt>
<rscale>  0 0.84852487E+03</rscale>
<asrwt>0</asrwt>
<pdfrwt beam="1">  1        2 0.10454193E+00 0.84852487E+03</pdfrwt>
<pdfrwt beam="2">  1       -2 0.21770719E+00 0.84852487E+03</pdfrwt>
<totfact> 0.43967324E+00</totfact>
</mgrwt>
</event>
<event>
12    1  0.1338445E-007  0.6908900E+03  0.7818608E-02  0.9732940E-01
         -1   -1    0    0    0  501 -0.00000000000E+00  0.00000000000E+00  0.66874592125E+03  0.66874592125E+03  0.00000000000E+00 0.  1.
          1   -1    0    0  501    0  0.00000000000E+00 -0.00000000000E+00 -0.99037582377E+03  0.99037582377E+03  0.00000000000E+00 0. -1.
         23    2    1    2    0    0  0.13268655999E+03 -0.62595400240E+03 -0.42842436963E+03  0.77539603145E+03  0.90925402259E+02 0.  0.
    5000000    2    1    2    0    0 -0.13268655999E+03  0.62595400240E+03  0.10679446711E+03  0.88372571358E+03  0.60011827361E+03 0.  0.
         23    2    4    4    0    0  0.67762423459E+02  0.45746344507E+02  0.22304648903E+03  0.25352797336E+03  0.88556326369E+02 0.  0.
         23    2    4    4    0    0 -0.20044898345E+03  0.58020765789E+03 -0.11625202192E+03  0.63019774022E+03  0.82546580398E+02 0.  0.
          1    1    3    3  502    0  0.35469693768E+02 -0.34730234947E+03 -0.26285759721E+03  0.43700244569E+03  0.00000000000E+00 0. -1.
         -1    1    3    3    0  502  0.97216866220E+02 -0.27865165292E+03 -0.16556677241E+03  0.33839358576E+03  0.00000000000E+00 0.  1.
         13    1    5    5    0    0 -0.11545201600E+02  0.38964365372E+02  0.67233407728E+02  0.78561088101E+02  0.00000000000E+00 0.  1.
        -13    1    5    5    0    0  0.79307625059E+02  0.67819791350E+01  0.15581308130E+03  0.17496688526E+03  0.00000000000E+00 0. -1.
          1    1    6    6  503    0 -0.12738210070E+03  0.45345678297E+03 -0.66572922070E+02  0.47569024328E+03  0.00000000000E+00 0. -1.
         -1    1    6    6    0  503 -0.73066882750E+02  0.12675087492E+03 -0.49679099850E+02  0.15450749694E+03  0.00000000000E+00 0.  1.
<mgrwt>
<rscale>  0 0.69088999E+03</rscale>
<asrwt>0</asrwt>
<pdfrwt beam="1">  1        1 0.15236551E+00 0.69088999E+03</pdfrwt>
<pdfrwt beam="2">  1       -1 0.10288399E+00 0.69088999E+03</pdfrwt>
<totfact> 0.14279294E+01</totfact>
</mgrwt>
</event>
<event>
12    1  0.1338445E-007  0.4798089E+03  0.7818608E-02  0.1019188E+00
          1   -1    0    0  501    0  0.00000000000E+00  0.00000000000E+00  0.14316763825E+04  0.14316763825E+04  0.00000000000E+00 0. -1.
         -1   -1    0    0    0  501 -0.00000000000E+00 -0.00000000000E+00 -0.27353057471E+03  0.27353057471E+03  0.00000000000E+00 0.  1.
         23    2    1    2    0    0 -0.38265358054E+03 -0.21863916712E+03  0.20159894680E+03  0.49313915963E+03  0.91198943610E+02 0.  0.
    5000000    2    1    2    0    0  0.38265358054E+03  0.21863916712E+03  0.95654686098E+03  0.12120677976E+04  0.59991632799E+03 0.  0.
         23    2    4    4    0    0  0.21313798996E+03  0.23684957830E+03  0.12024318955E+03  0.35239375953E+03  0.90539558320E+02 0.  0.
         23    2    4    4    0    0  0.16951559058E+03 -0.18210411182E+02  0.83630367143E+03  0.85967403805E+03  0.10280304627E+03 0.  0.
          4    1    3    3  502    0 -0.17890581321E+03 -0.79350984415E+02  0.44930768301E+02  0.20080498667E+03  0.00000000000E+00 0. -1.
         -4    1    3    3    0  502 -0.20374776732E+03 -0.13928818270E+03  0.15666817850E+03  0.29233417297E+03  0.00000000000E+00 0.  1.
         13    1    5    5    0    0  0.13271363555E+02  0.27886615711E+02  0.43279668599E+02  0.53168807965E+02  0.00000000000E+00 0.  1.
        -13    1    5    5    0    0  0.19986662640E+03  0.20896296259E+03  0.76963520953E+02  0.29922495157E+03  0.00000000000E+00 0. -1.
          1    1    6    6  503    0  0.17701721731E+03 -0.33374864995E+02  0.79254531330E+03  0.81275891289E+03  0.00000000000E+00 0. -1.
         -1    1    6    6    0  503 -0.75016267299E+01  0.15164453813E+02  0.43758358125E+02  0.46915125161E+02  0.00000000000E+00 0.  1.
<mgrwt>
<rscale>  0 0.47980890E+03</rscale>
<asrwt>0</asrwt>
<pdfrwt beam="1">  1        1 0.22025790E+00 0.47980890E+03</pdfrwt>
<pdfrwt beam="2">  1       -1 0.42081628E-01 0.47980890E+03</pdfrwt>
<totfact> 0.43268925E+01</totfact>
</mgrwt>
</event>
<event>
12    1  0.1338445E-007  0.4008582E+03  0.7818608E-02  0.1043483E+00
          1   -1    0    0  501    0  0.00000000000E+00  0.00000000000E+00  0.43550888197E+03  0.43550888197E+03  0.00000000000E+00 0.  1.
         -1   -1    0    0    0  501 -0.00000000000E+00 -0.00000000000E+00 -0.39371415930E+03  0.39371415930E+03  0.00000000000E+00 0. -1.
         23    2    1    2    0    0  0.55945195838E+01 -0.17746522873E+03 -0.22863821263E+02  0.20018580876E+03  0.89590164908E+02 0.  0.
    5000000    2    1    2    0    0 -0.55945195838E+01  0.17746522873E+03  0.64658543927E+02  0.62903723251E+03  0.59998492191E+03 0.  0.
         23    2    4    4    0    0 -0.27786535168E+03  0.10136713317E+02  0.48319557170E+02  0.29620205595E+03  0.89938710930E+02 0.  0.
         23    2    4    4    0    0  0.27227083210E+03  0.16732851542E+03  0.16338986757E+02  0.33283517656E+03  0.91553559094E+02 0.  0.
          3    1    3    3  502    0  0.40872358994E+02 -0.83261067065E+02 -0.34416624234E+02  0.98931587687E+02  0.00000000000E+00 0. -1.
         -3    1    3    3    0  502 -0.35277839410E+02 -0.94204161667E+02  0.11552802971E+02  0.10125422107E+03  0.00000000000E+00 0.  1.
         11    1    5    5    0    0 -0.62720247852E+02  0.18461184607E+02 -0.23127914531E+02  0.69350885058E+02  0.00000000000E+00 0.  1.
        -11    1    5    5    0    0 -0.21514510383E+03 -0.83244712900E+01  0.71447471702E+02  0.22685117089E+03  0.00000000000E+00 0. -1.
          3    1    6    6  503    0  0.75892931380E+02  0.11010877383E+02  0.27814844624E+02  0.81575989333E+02  0.00000000000E+00 0. -1.
         -3    1    6    6    0  503  0.19637790072E+03  0.15631763803E+03 -0.11475857868E+02  0.25125918722E+03  0.00000000000E+00 0.  1.
<mgrwt>
<rscale>  0 0.40085824E+03</rscale>
<asrwt>0</asrwt>
<pdfrwt beam="1">  1        1 0.67001366E-01 0.40085824E+03</pdfrwt>
<pdfrwt beam="2">  1       -1 0.60571409E-01 0.40085824E+03</pdfrwt>
<totfact> 0.15402359E+02</totfact>
</mgrwt>
</event>
<event>
12    1  0.1338445E-007  0.6082688E+03  0.7818608E-02  0.9888398E-01
          2   -1    0    0  501    0  0.00000000000E+00  0.00000000000E+00  0.82363422916E+03  0.82363422916E+03  0.00000000000E+00 0. -1.
         -2   -1    0    0    0  501 -0.00000000000E+00 -0.00000000000E+00 -0.62728815835E+03  0.62728815835E+03  0.00000000000E+00 0.  1.
         23    2    1    2    0    0  0.44104834923E+03 -0.38107557118E+03  0.17206189946E+03  0.61399411539E+03  0.87414181776E+02 0.  0.
    5000000    2    1    2    0    0 -0.44104834923E+03  0.38107557118E+03  0.24284171345E+02  0.83692827213E+03  0.60009747075E+03 0.  0.
         23    2    4    4    0    0 -0.30637926851E+03  0.12989376667E+03  0.27814435668E+03  0.44301398484E+03  0.90313126504E+02 0.  0.
         23    2    4    4    0    0 -0.13466908072E+03  0.25118180451E+03 -0.25386018534E+03  0.39391428729E+03  0.97444403681E+02 0.  0.
          2    1    3    3  502    0  0.39936126190E+03 -0.37376685296E+03  0.16239094746E+03  0.57058031661E+03  0.00000000000E+00 0. -1.
         -2    1    3    3    0  502  0.41687087329E+02 -0.73087182137E+01  0.96709520051E+01  0.43413798781E+02  0.00000000000E+00 0.  1.
         13    1    5    5    0    0 -0.91954386676E+02  0.83930352080E+00  0.51627178612E+02  0.10545937242E+03  0.00000000000E+00 0. -1.
        -13    1    5    5    0    0 -0.21442488184E+03  0.12905446314E+03  0.22651717807E+03  0.33755461242E+03  0.00000000000E+00 0.  1.
          3    1    6    6  503    0 -0.49543514209E+02  0.93352502283E+02 -0.15934979733E+03  0.19121089768E+03  0.00000000000E+00 0. -1.
         -3    1    6    6    0  503 -0.85125566511E+02  0.15782930223E+03 -0.94510388004E+02  0.20270338960E+03  0.00000000000E+00 0.  1.
<mgrwt>
<rscale>  0 0.60826883E+03</rscale>
<asrwt>0</asrwt>
<pdfrwt beam="1">  1        2 0.12671296E+00 0.60826883E+03</pdfrwt>
<pdfrwt beam="2">  1       -2 0.96505870E-01 0.60826883E+03</pdfrwt>
<totfact> 0.30613658E+01</totfact>
</mgrwt>
</event>
<event>
12    1  0.1338445E-007  0.6953390E+03  0.7818608E-02  0.9725236E-01
          2   -1    0    0  501    0  0.00000000000E+00  0.00000000000E+00  0.27181129901E+04  0.27181129901E+04  0.00000000000E+00 0.  1.
         -2   -1    0    0    0  501 -0.00000000000E+00 -0.00000000000E+00 -0.22904164667E+03  0.22904164667E+03  0.00000000000E+00 0. -1.
         23    2    1    2    0    0 -0.53131202332E+03 -0.33396732336E+03  0.62305882897E+03  0.88902731229E+03  0.91326986399E+02 0.  0.
    5000000    2    1    2    0    0  0.53131202332E+03  0.33396732336E+03  0.18660125145E+04  0.20581273245E+04  0.60004894838E+03 0.  0.
         23    2    4    4    0    0  0.55905899869E+03  0.17030436423E+03  0.92544649997E+03  0.10987217536E+04  0.95852632134E+02 0.  0.
         23    2    4    4    0    0 -0.27746975369E+02  0.16366295912E+03  0.94056601450E+03  0.95940557086E+03  0.90769834993E+02 0.  0.
          3    1    3    3  502    0 -0.29190766034E+03 -0.22730431528E+03  0.40002274997E+03  0.54488121128E+03  0.00000000000E+00 0. -1.
         -3    1    3    3    0  502 -0.23940436297E+03 -0.10666300807E+03  0.22303607900E+03  0.34414610100E+03  0.00000000000E+00 0.  1.
         11    1    5    5    0    0  0.34612781885E+03  0.56754935531E+02  0.53541743907E+03  0.64007610778E+03  0.00000000000E+00 0.  1.
        -11    1    5    5    0    0  0.21293117984E+03  0.11354942870E+03  0.39002906090E+03  0.45864564585E+03  0.00000000000E+00 0. -1.
          1    1    6    6  503    0 -0.24366811771E+02  0.10491213563E+03  0.35735324944E+03  0.37323135265E+03  0.00000000000E+00 0. -1.
         -1    1    6    6    0  503 -0.33801635989E+01  0.58750823492E+02  0.58321276506E+03  0.58617421821E+03  0.00000000000E+00 0.  1.
<mgrwt>
<rscale>  0 0.69533904E+03</rscale>
<asrwt>0</asrwt>
<pdfrwt beam="1">  1        2 0.41817121E+00 0.69533904E+03</pdfrwt>
<pdfrwt beam="2">  1       -2 0.35237178E-01 0.69533904E+03</pdfrwt>
<totfact> 0.20774162E+01</totfact>
</mgrwt>
</event>
<event>
12    1  0.1338445E-007  0.9855991E+03  0.7818608E-02  0.9324482E-01
         -2   -1    0    0    0  501 -0.00000000000E+00  0.00000000000E+00  0.13471700206E+04  0.13471700206E+04  0.00000000000E+00 0.  1.
          2   -1    0    0  501    0  0.00000000000E+00 -0.00000000000E+00 -0.22388358995E+04  0.22388358995E+04  0.00000000000E+00 0. -1.
         23    2    1    2    0    0 -0.79135599187E+03 -0.51179351546E+03  0.10072567511E+04  0.13825786337E+04  0.93704895497E+02 0.  0.
    5000000    2    1    2    0    0  0.79135599187E+03  0.51179351546E+03 -0.18989226300E+04  0.22034272863E+04  0.60083919894E+03 0.  0.
         23    2    4    4    0    0  0.18808278013E+03  0.32997016039E+03 -0.33585484283E+03  0.51499488682E+03  0.90364921649E+02 0.  0.
         23    2    4    4    0    0  0.60327321174E+03  0.18182335507E+03 -0.15630677872E+04  0.16884323995E+04  0.10307647602E+03 0.  0.
          4    1    3    3  502    0 -0.30307664536E+03 -0.23788472156E+03  0.45438078303E+03  0.59574028712E+03  0.00000000000E+00 0. -1.
         -4    1    3    3    0  502 -0.48827934651E+03 -0.27390879391E+03  0.55287596808E+03  0.78683834661E+03  0.00000000000E+00 0.  1.
         11    1    5    5    0    0  0.55638733632E+02  0.18789282190E+03 -0.17728415311E+03  0.26425187255E+03  0.00000000000E+00 0. -1.
        -11    1    5    5    0    0  0.13244404650E+03  0.14207733849E+03 -0.15857068972E+03  0.25074301427E+03  0.00000000000E+00 0.  1.
          3    1    6    6  503    0  0.93930253549E+02 -0.31150065847E+01 -0.28965637558E+03  0.30452161124E+03  0.00000000000E+00 0. -1.
         -3    1    6    6    0  503  0.50934295819E+03  0.18493836166E+03 -0.12734114116E+04  0.13839107883E+04  0.00000000000E+00 0.  1.
<mgrwt>
<rscale>  0 0.98559910E+03</rscale>
<asrwt>0</asrwt>
<pdfrwt beam="1">  1        2 0.34443629E+00 0.98559910E+03</pdfrwt>
<pdfrwt beam="2">  1       -2 0.20725692E+00 0.98559910E+03</pdfrwt>
<totfact> 0.58854077E-01</totfact>
</mgrwt>
</event>
<event>
12    1  0.1338445E-007  0.1461664E+04  0.7818608E-02  0.8910354E-01
         -1   -1    0    0    0  501 -0.00000000000E+00  0.00000000000E+00  0.14642486541E+04  0.14642486541E+04  0.00000000000E+00 0.  1.
          1   -1    0    0  501    0  0.00000000000E+00 -0.00000000000E+00 -0.15925842559E+04  0.15925842559E+04  0.00000000000E+00 0. -1.
         23    2    1    2    0    0  0.48561353668E+03  0.13687796949E+04  0.14245697898E+03  0.14622391503E+04  0.92037936044E+02 0.  0.
    5000000    2    1    2    0    0 -0.48561353668E+03 -0.13687796949E+04 -0.27079258075E+03  0.15945937597E+04  0.60001856330E+03 0.  0.
         23    2    4    4    0    0 -0.28090607486E+03 -0.55116274006E+03 -0.39238327041E+03  0.73805501628E+03  0.89844238756E+02 0.  0.
         23    2    4    4    0    0 -0.20470746182E+03 -0.81761695487E+03  0.12159068966E+03  0.85653874338E+03  0.92041801816E+02 0.  0.
          4    1    3    3  502    0  0.16468161402E+03  0.54681449501E+03  0.20381754197E+02  0.57143813475E+03  0.00000000000E+00 0. -1.
         -4    1    3    3    0  502  0.32093192267E+03  0.82196519993E+03  0.12207522478E+03  0.89080101559E+03  0.00000000000E+00 0.  1.
         13    1    5    5    0    0 -0.15609755923E+02 -0.89135631499E+02 -0.77779554446E+02  0.11932512046E+03  0.00000000000E+00 0. -1.
        -13    1    5    5    0    0 -0.26529631894E+03 -0.46202710856E+03 -0.31460371596E+03  0.61872989583E+03  0.00000000000E+00 0.  1.
          1    1    6    6  503    0 -0.44675568642E+02 -0.33884887982E+03  0.26063060240E+02  0.34277361756E+03  0.00000000000E+00 0. -1.
         -1    1    6    6    0  503 -0.16003189318E+03 -0.47876807505E+03  0.95527629421E+02  0.51376512582E+03  0.00000000000E+00 0.  1.
<mgrwt>
<rscale>  0 0.14616638E+04</rscale>
<asrwt>0</asrwt>
<pdfrwt beam="1">  1        1 0.24501296E+00 0.14616638E+04</pdfrwt>
<pdfrwt beam="2">  1       -1 0.22526902E+00 0.14616638E+04</pdfrwt>
<totfact> 0.54418597E-01</totfact>
</mgrwt>
</event>
<event>
12    1  0.1338445E-007  0.1958745E+04  0.7818608E-02  0.8626155E-01
         -1   -1    0    0    0  501 -0.00000000000E+00  0.00000000000E+00  0.11882398957E+04  0.11882398957E+04  0.00000000000E+00 0.  1.
          1   -1    0    0  501    0  0.00000000000E+00 -0.00000000000E+00 -0.33087706476E+04  0.33087706476E+04  0.00000000000E+00 0. -1.
         23    2    1    2    0    0  0.16406207037E+04  0.10278072039E+04 -0.10769969634E+04  0.22173410554E+04  0.93032010256E+02 0.  0.
    5000000    2    1    2    0    0 -0.16406207037E+04 -0.10278072039E+04 -0.10435337885E+04  0.22796694878E+04  0.59992188157E+03 0.  0.
         23    2    4    4    0    0 -0.87793817609E+03 -0.77759669657E+03 -0.84274131455E+03  0.14470491013E+04  0.91137888813E+02 0.  0.
         23    2    4    4    0    0 -0.76268252765E+03 -0.25021050735E+03 -0.20079247397E+03  0.83262038653E+03  0.93000830571E+02 0.  0.
          2    1    3    3  502    0  0.92206365927E+03  0.54110046232E+03 -0.63368757467E+03  0.12427996799E+04  0.00000000000E+00 0.  1.
         -2    1    3    3    0  502  0.71855704448E+03  0.48670674160E+03 -0.44330938876E+03  0.97454137555E+03  0.00000000000E+00 0. -1.
         11    1    5    5    0    0 -0.33942653890E+03 -0.32266399783E+03 -0.28580194246E+03  0.54863939079E+03  0.00000000000E+00 0. -1.
        -11    1    5    5    0    0 -0.53851163719E+03 -0.45493269874E+03 -0.55693937208E+03  0.89840971051E+03  0.00000000000E+00 0.  1.
          1    1    6    6  503    0 -0.19122704998E+03 -0.10264566060E+03 -0.70623332332E+02  0.22823578018E+03  0.00000000000E+00 0. -1.
         -1    1    6    6    0  503 -0.57145547767E+03 -0.14756484675E+03 -0.13016914164E+03  0.60438460635E+03  0.00000000000E+00 0.  1.
<mgrwt>
<rscale>  0 0.19587448E+04</rscale>
<asrwt>0</asrwt>
<pdfrwt beam="1">  1        1 0.50904164E+00 0.19587448E+04</pdfrwt>
<pdfrwt beam="2">  1       -1 0.18280614E+00 0.19587448E+04</pdfrwt>
<totfact> 0.62937644E-02</totfact>
</mgrwt>
</event>
<event>
12    1  0.1620446E-007  0.6015854E+03  0.7818608E-02  0.9902122E-01
          2   -1    0    0  501    0  0.00000000000E+00  0.00000000000E+00  0.13551800425E+04  0.13551800425E+04  0.00000000000E+00 0. -1.
         -2   -1    0    0    0  501 -0.00000000000E+00 -0.00000000000E+00 -0.39199358524E+03  0.39199358524E+03  0.00000000000E+00 0.  1.
         23    2    1    2    0    0  0.36566525854E+03  0.46641314106E+03  0.27953720114E+03  0.66151980101E+03  0.90637193492E+02 0.  0.
    5000000    2    1    2    0    0 -0.36566525854E+03 -0.46641314106E+03  0.68364925612E+03  0.10856538267E+04  0.60001302206E+03 0.  0.
         23    2    4    4    0    0 -0.27858541162E+03 -0.35326114203E+03  0.89619836343E+02  0.46771294155E+03  0.91216306622E+02 0.  0.
         23    2    4    4    0    0 -0.87079846921E+02 -0.11315199903E+03  0.59402941978E+03  0.61794088518E+03  0.92702272829E+02 0.  0.
          4    1    3    3  502    0  0.20461625596E+03  0.27312885476E+03  0.20918685823E+03  0.40028280647E+03  0.00000000000E+00 0. -1.
         -4    1    3    3    0  502  0.16104900258E+03  0.19328428630E+03  0.70350342915E+02  0.26123699453E+03  0.00000000000E+00 0.  1.
         13    1    5    5    0    0 -0.16317153878E+03 -0.22792476415E+03  0.98465405828E+02  0.29710281945E+03  0.00000000000E+00 0. -1.
        -13    1    5    5    0    0 -0.11541387284E+03 -0.12533637788E+03 -0.88455694854E+01  0.17061012210E+03  0.00000000000E+00 0.  1.
          2    1    6    6  503    0 -0.85680107116E+02 -0.55795473595E+02  0.26682150811E+03  0.28574102404E+03  0.00000000000E+00 0. -1.
         -2    1    6    6    0  503 -0.13997398049E+01 -0.57356525439E+02  0.32720791168E+03  0.33219986115E+03  0.00000000000E+00 0.  1.
<mgrwt>
<rscale>  0 0.60158544E+03</rscale>
<asrwt>0</asrwt>
<pdfrwt beam="1">  1        2 0.20848923E+00 0.60158544E+03</pdfrwt>
<pdfrwt beam="2">  1       -2 0.60306706E-01 0.60158544E+03</pdfrwt>
<totfact> 0.40839663E+01</totfact>
</mgrwt>
</event>
<event>
12    1  0.1338445E-007  0.4910909E+03  0.7818608E-02  0.1016131E+00
         -1   -1    0    0    0  501 -0.00000000000E+00  0.00000000000E+00  0.53883724335E+03  0.53883724335E+03  0.00000000000E+00 0. -1.
          1   -1    0    0  501    0  0.00000000000E+00 -0.00000000000E+00 -0.73195290104E+03  0.73195290104E+03  0.00000000000E+00 0.  1.
         23    2    1    2    0    0 -0.40436500614E+03 -0.20747004234E+03  0.75267628431E+02  0.47174826471E+03  0.10161856481E+03 0.  0.
    5000000    2    1    2    0    0  0.40436500614E+03  0.20747004234E+03 -0.26838328613E+03  0.79904187968E+03  0.59990287593E+03 0.  0.
         23    2    4    4    0    0  0.20468214607E+03  0.19510874948E+03 -0.43100011954E+03  0.52386592295E+03  0.93339151167E+02 0.  0.
         23    2    4    4    0    0  0.19968286007E+03  0.12361292857E+02  0.16261683341E+03  0.27517595673E+03  0.96184855830E+02 0.  0.
          3    1    3    3  502    0 -0.57111167287E+02 -0.71789782914E+02  0.17682734261E+01  0.91752848189E+02  0.00000000000E+00 0. -1.
         -3    1    3    3    0  502 -0.34725383885E+03 -0.13568025942E+03  0.73499355005E+02  0.37999541652E+03  0.00000000000E+00 0.  1.
         13    1    5    5    0    0  0.19647960733E+03  0.14067190140E+03 -0.33263310288E+03  0.41114182599E+03  0.00000000000E+00 0. -1.
        -13    1    5    5    0    0  0.82025387397E+01  0.54436848078E+02 -0.98367016652E+02  0.11272409696E+03  0.00000000000E+00 0.  1.
          3    1    6    6  503    0  0.19526501700E+03  0.34555930738E+02  0.15354222402E+03  0.25079424589E+03  0.00000000000E+00 0. -1.
         -3    1    6    6    0  503  0.44178430606E+01 -0.22194637881E+02  0.90746093854E+01  0.24381710840E+02  0.00000000000E+00 0.  1.
<mgrwt>
<rscale>  0 0.49109094E+03</rscale>
<asrwt>0</asrwt>
<pdfrwt beam="1">  1        1 0.11260814E+00 0.49109094E+03</pdfrwt>
<pdfrwt beam="2">  1       -1 0.82898037E-01 0.49109094E+03</pdfrwt>
<totfact> 0.38841002E+01</totfact>
</mgrwt>
</event>
<event>
12    1  0.1338445E-007  0.7695563E+03  0.7818608E-02  0.9605160E-01
         -2   -1    0    0    0  501 -0.00000000000E+00  0.00000000000E+00  0.25570867486E+03  0.25570867486E+03  0.00000000000E+00 0.  1.
          2   -1    0    0  501    0  0.00000000000E+00 -0.00000000000E+00 -0.26127470194E+04  0.26127470194E+04  0.00000000000E+00 0. -1.
         23    2    1    2    0    0  0.44939159153E+03 -0.49799184699E+03 -0.64681946359E+03  0.93588975458E+03  0.86980066929E+02 0.  0.
    5000000    2    1    2    0    0 -0.44939159153E+03  0.49799184699E+03 -0.17102188810E+04  0.19325659397E+04  0.60001150679E+03 0.  0.
         23    2    4    4    0    0 -0.44443402469E+03  0.93765124327E+02 -0.11137304901E+04  0.12062078987E+04  0.90710470268E+02 0.  0.
         23    2    4    4    0    0 -0.49575668416E+01  0.40422672267E+03 -0.59648839083E+03  0.72635804099E+03  0.91508374099E+02 0.  0.
          1    1    3    3  502    0  0.11562339606E+03 -0.13557939272E+03 -0.12143945315E+03  0.21563413975E+03  0.00000000000E+00 0. -1.
         -1    1    3    3    0  502  0.33376819547E+03 -0.36241245428E+03 -0.52538001044E+03  0.72025561483E+03  0.00000000000E+00 0.  1.
         11    1    5    5    0    0 -0.15826199796E+03  0.70544762468E+01 -0.29968209420E+03  0.33897785063E+03  0.00000000000E+00 0. -1.
        -11    1    5    5    0    0 -0.28617202673E+03  0.86710648080E+02 -0.81404839592E+03  0.86723004807E+03  0.00000000000E+00 0.  1.
          1    1    6    6  503    0 -0.38895404810E+02  0.23537522170E+03 -0.29782958375E+03  0.38159770500E+03  0.00000000000E+00 0. -1.
         -1    1    6    6    0  503  0.33937837968E+02  0.16885150096E+03 -0.29865880709E+03  0.34476033599E+03  0.00000000000E+00 0.  1.
<mgrwt>
<rscale>  0 0.76955625E+03</rscale>
<asrwt>0</asrwt>
<pdfrwt beam="1">  1        2 0.40196106E+00 0.76955625E+03</pdfrwt>
<pdfrwt beam="2">  1       -2 0.39339798E-01 0.76955625E+03</pdfrwt>
<totfact> 0.19111113E+01</totfact>
</mgrwt>
</event>
<event>
12    1  0.1338445E-007  0.8839289E+03  0.7818608E-02  0.9445897E-01
          2   -1    0    0  501    0  0.00000000000E+00  0.00000000000E+00  0.40270813708E+04  0.40270813708E+04  0.00000000000E+00 0.  1.
         -2   -1    0    0    0  501 -0.00000000000E+00 -0.00000000000E+00 -0.37435937374E+03  0.37435937374E+03  0.00000000000E+00 0. -1.
         23    2    1    2    0    0  0.40545240642E+03 -0.76817876810E+03  0.36065340158E+03  0.94425014671E+03  0.83947542311E+02 0.  0.
    5000000    2    1    2    0    0 -0.40545240642E+03  0.76817876810E+03  0.32920685955E+04  0.34571905978E+04  0.59996743146E+03 0.  0.
         23    2    4    4    0    0 -0.15229962636E+03  0.47199864537E+03  0.89496578686E+03  0.10269462234E+04  0.87617855904E+02 0.  0.
         23    2    4    4    0    0 -0.25315278007E+03  0.29618012272E+03  0.23971028086E+04  0.24302443744E+04  0.90425932511E+02 0.  0.
          2    1    3    3  502    0  0.15441765389E+03 -0.33180161931E+03  0.11179570878E+03  0.38266879533E+03  0.00000000000E+00 0.  1.
         -2    1    3    3    0  502  0.25103475253E+03 -0.43637714878E+03  0.24885769280E+03  0.56158135138E+03  0.00000000000E+00 0. -1.
         11    1    5    5    0    0 -0.79092003134E+02  0.36824384762E+03  0.66555366599E+03  0.76473574429E+03  0.00000000000E+00 0. -1.
        -11    1    5    5    0    0 -0.73207623221E+02  0.10375479775E+03  0.22941212086E+03  0.26221047911E+03  0.00000000000E+00 0.  1.
          2    1    6    6  503    0 -0.13603595836E+03  0.20666690573E+03  0.13061151699E+04  0.13293433826E+04  0.00000000000E+00 0. -1.
         -2    1    6    6    0  503 -0.11711682170E+03  0.89513216995E+02  0.10909876388E+04  0.11009009919E+04  0.00000000000E+00 0.  1.
<mgrwt>
<rscale>  0 0.88392892E+03</rscale>
<asrwt>0</asrwt>
<pdfrwt beam="1">  1        2 0.61955095E+00 0.88392892E+03</pdfrwt>
<pdfrwt beam="2">  1       -2 0.57593752E-01 0.88392892E+03</pdfrwt>
<totfact> 0.99156215E-01</totfact>
</mgrwt>
</event>
<event>
12    1  0.1338445E-007  0.7535239E+03  0.7818608E-02  0.9629838E-01
          2   -1    0    0  501    0  0.00000000000E+00  0.00000000000E+00  0.39060367459E+04  0.39060367459E+04  0.00000000000E+00 0. -1.
         -2   -1    0    0    0  501 -0.00000000000E+00 -0.00000000000E+00 -0.27541416063E+03  0.27541416063E+03  0.00000000000E+00 0.  1.
         23    2    1    2    0    0  0.58023417942E+03  0.47032923176E+03  0.48980342638E+03  0.89775871004E+03  0.90454495491E+02 0.  0.
    5000000    2    1    2    0    0 -0.58023417942E+03 -0.47032923176E+03  0.31408191589E+04  0.32836921965E+04  0.60000680260E+03 0.  0.
         23    2    4    4    0    0 -0.41020652226E+03 -0.38983527284E+03  0.29307320633E+04  0.29861686756E+04  0.88158953985E+02 0.  0.
         23    2    4    4    0    0 -0.17002765716E+03 -0.80493958914E+02  0.21008709557E+03  0.29752352090E+03  0.94841848059E+02 0.  0.
          3    1    3    3  502    0  0.32476882492E+03  0.28906969938E+03  0.33181285273E+03  0.54693313117E+03  0.00000000000E+00 0. -1.
         -3    1    3    3    0  502  0.25546535450E+03  0.18125953238E+03  0.15799057365E+03  0.35082557887E+03  0.00000000000E+00 0.  1.
         11    1    5    5    0    0 -0.13404861916E+03 -0.88331973722E+02  0.68886724436E+03  0.70732570307E+03  0.00000000000E+00 0.  1.
        -11    1    5    5    0    0 -0.27615790310E+03 -0.30150329912E+03  0.22418648190E+04  0.22788429725E+04  0.00000000000E+00 0. -1.
          4    1    6    6  503    0 -0.46516185636E+02 -0.10576425094E+02  0.47904377093E+01  0.47943347686E+02  0.00000000000E+00 0.  1.
         -4    1    6    6    0  503 -0.12351147153E+03 -0.69917533820E+02  0.20529665786E+03  0.24958017321E+03  0.00000000000E+00 0. -1.
<mgrwt>
<rscale>  0 0.75352390E+03</rscale>
<asrwt>0</asrwt>
<pdfrwt beam="1">  1        2 0.60092869E+00 0.75352390E+03</pdfrwt>
<pdfrwt beam="2">  1       -2 0.42371412E-01 0.75352390E+03</pdfrwt>
<totfact> 0.23691254E+00</totfact>
</mgrwt>
</event>
<event>
12    1  0.1338445E-007  0.1050611E+04  0.7818608E-02  0.9254713E-01
         -2   -1    0    0    0  501 -0.00000000000E+00  0.00000000000E+00  0.10731032428E+04  0.10731032428E+04  0.00000000000E+00 0.  1.
          2   -1    0    0  501    0  0.00000000000E+00 -0.00000000000E+00 -0.13493909724E+04  0.13493909724E+04  0.00000000000E+00 0. -1.
         23    2    1    2    0    0 -0.88054297471E+03  0.44010489196E+03 -0.68117200858E+03  0.12006075785E+04  0.91733342157E+02 0.  0.
    5000000    2    1    2    0    0  0.88054297471E+03 -0.44010489196E+03  0.40488427895E+03  0.12218866367E+04  0.60002285578E+03 0.  0.
         23    2    4    4    0    0  0.59654731062E+03 -0.52976874993E+03  0.42698386639E+03  0.90948619983E+03  0.91248579697E+02 0.  0.
         23    2    4    4    0    0  0.28399566408E+03  0.89663857971E+02 -0.22099587445E+02  0.31240043691E+03  0.91719662950E+02 0.  0.
          3    1    3    3  502    0 -0.58170381496E+03  0.33849604539E+03 -0.46205646822E+03  0.81636700136E+03  0.00000000000E+00 0. -1.
         -3    1    3    3    0  502 -0.29883915975E+03  0.10160884657E+03 -0.21911554036E+03  0.38424057715E+03  0.00000000000E+00 0.  1.
         13    1    5    5    0    0  0.24501767762E+03 -0.27726259912E+03  0.20679347492E+03  0.42387704878E+03  0.00000000000E+00 0.  1.
        -13    1    5    5    0    0  0.35152963300E+03 -0.25250615081E+03  0.22019039148E+03  0.48560915104E+03  0.00000000000E+00 0. -1.
          2    1    6    6  503    0  0.16153769522E+03  0.94549721769E+02  0.34699368480E+01  0.18720608250E+03  0.00000000000E+00 0. -1.
         -2    1    6    6    0  503  0.12245796886E+03 -0.48858637980E+01 -0.25569524293E+02  0.12519435441E+03  0.00000000000E+00 0.  1.
<mgrwt>
<rscale>  0 0.10506114E+04</rscale>
<asrwt>0</asrwt>
<pdfrwt beam="1">  1        2 0.20759861E+00 0.10506114E+04</pdfrwt>
<pdfrwt beam="2">  1       -2 0.16509281E+00 0.10506114E+04</pdfrwt>
<totfact> 0.35274065E+00</totfact>
</mgrwt>
</event>
<event>
12    1  0.1338445E-007  0.1038399E+04  0.7818608E-02  0.9267404E-01
          2   -1    0    0  501    0  0.00000000000E+00  0.00000000000E+00  0.21153455687E+04  0.21153455687E+04  0.00000000000E+00 0. -1.
         -2   -1    0    0    0  501 -0.00000000000E+00 -0.00000000000E+00 -0.52853523907E+03  0.52853523907E+03  0.00000000000E+00 0.  1.
         23    2    1    2    0    0 -0.65615104549E+03  0.70187941284E+03  0.56549445520E+03  0.11186889386E+04  0.92260813593E+02 0.  0.
    5000000    2    1    2    0    0  0.65615104549E+03 -0.70187941284E+03  0.10213158745E+04  0.15251918693E+04  0.59996268043E+03 0.  0.
         23    2    4    4    0    0  0.67171231069E+03 -0.34491183629E+03  0.74048635580E+03  0.10617548900E+04  0.94030846631E+02 0.  0.
         23    2    4    4    0    0 -0.15561265200E+02 -0.35696757655E+03  0.28082951867E+03  0.46343697927E+03  0.90777814012E+02 0.  0.
          3    1    3    3  502    0 -0.31971379997E+03  0.33474619234E+03  0.21939851972E+03  0.51225739392E+03  0.00000000000E+00 0. -1.
         -3    1    3    3    0  502 -0.33643724553E+03  0.36713322049E+03  0.34609593549E+03  0.60643154463E+03  0.00000000000E+00 0.  1.
         13    1    5    5    0    0  0.58542894921E+03 -0.31564217085E+03  0.68652011410E+03  0.95585924782E+03  0.00000000000E+00 0.  1.
        -13    1    5    5    0    0  0.86283361484E+02 -0.29269665435E+02  0.53966241708E+02  0.10589564216E+03  0.00000000000E+00 0. -1.
          1    1    6    6  503    0  0.15928202313E+01 -0.30477063918E+03  0.27056027806E+03  0.40754207592E+03  0.00000000000E+00 0. -1.
         -1    1    6    6    0  503 -0.17154085432E+02 -0.52196937372E+02  0.10269240612E+02  0.55894903353E+02  0.00000000000E+00 0.  1.
<mgrwt>
<rscale>  0 0.10383991E+04</rscale>
<asrwt>0</asrwt>
<pdfrwt beam="1">  1        2 0.32543778E+00 0.10383991E+04</pdfrwt>
<pdfrwt beam="2">  1       -2 0.81313115E-01 0.10383991E+04</pdfrwt>
<totfact> 0.76697640E+00</totfact>
</mgrwt>
</event>
<event>
12    1  0.1338445E-007  0.1035956E+04  0.7818608E-02  0.9269965E-01
          1   -1    0    0  501    0  0.00000000000E+00  0.00000000000E+00  0.64592965921E+03  0.64592965921E+03  0.00000000000E+00 0. -1.
         -1   -1    0    0    0  501 -0.00000000000E+00 -0.00000000000E+00 -0.18899656493E+04  0.18899656493E+04  0.00000000000E+00 0.  1.
         23    2    1    2    0    0  0.74075260658E+03 -0.68709720069E+03 -0.74749605515E+03  0.12602516655E+04  0.93096297631E+02 0.  0.
    5000000    2    1    2    0    0 -0.74075260658E+03  0.68709720069E+03 -0.49653993497E+03  0.12756436430E+04  0.59991483534E+03 0.  0.
         23    2    4    4    0    0 -0.42650595776E+03  0.20421357201E+03 -0.49706639715E+03  0.69206871507E+03  0.90959266680E+02 0.  0.
         23    2    4    4    0    0 -0.31424664881E+03  0.48288362868E+03  0.52646217915E+00  0.58357492797E+03  0.92907826671E+02 0.  0.
          1    1    3    3  502    0  0.21278370551E+03 -0.25436992409E+03 -0.22883173739E+03  0.40292049793E+03  0.00000000000E+00 0. -1.
         -1    1    3    3    0  502  0.52796890107E+03 -0.43272727659E+03 -0.51866431776E+03  0.85733116759E+03  0.00000000000E+00 0.  1.
         11    1    5    5    0    0 -0.30629278217E+03  0.19000658825E+03 -0.36763563087E+03  0.51485311408E+03  0.00000000000E+00 0.  1.
        -11    1    5    5    0    0 -0.12021317559E+03  0.14206983755E+02 -0.12943076628E+03  0.17721560099E+03  0.00000000000E+00 0. -1.
          4    1    6    6  503    0 -0.15333213133E+03  0.23231425791E+03  0.46647792662E+02  0.28223513865E+03  0.00000000000E+00 0.  1.
         -4    1    6    6    0  503 -0.16091451748E+03  0.25056937077E+03 -0.46121330482E+02  0.30133978932E+03  0.00000000000E+00 0. -1.
<mgrwt>
<rscale>  0 0.10359562E+04</rscale>
<asrwt>0</asrwt>
<pdfrwt beam="1">  1        1 0.99373794E-01 0.10359562E+04</pdfrwt>
<pdfrwt beam="2">  1       -1 0.29076395E+00 0.10359562E+04</pdfrwt>
<totfact> 0.11745130E+00</totfact>
</mgrwt>
</event>
<event>
12    1  0.1338445E-007  0.1004788E+04  0.7818608E-02  0.9303309E-01
          1   -1    0    0  501    0  0.00000000000E+00  0.00000000000E+00  0.15991914980E+04  0.15991914980E+04  0.00000000000E+00 0. -1.
         -1   -1    0    0    0  501 -0.00000000000E+00 -0.00000000000E+00 -0.87058703953E+03  0.87058703953E+03  0.00000000000E+00 0.  1.
         23    2    1    2    0    0  0.93344928927E+01 -0.99646016351E+03 -0.15016297016E+03  0.10119652938E+04  0.92221732844E+02 0.  0.
    5000000    2    1    2    0    0 -0.93344928927E+01  0.99646016351E+03  0.87876742860E+03  0.14578132437E+04  0.59997272414E+03 0.  0.
         23    2    4    4    0    0  0.27238268472E+02  0.41782840873E+03  0.73850077373E+03  0.85379445667E+03  0.90879475231E+02 0.  0.
         23    2    4    4    0    0 -0.36572761365E+02  0.57863175478E+03  0.14026665487E+03  0.60401878703E+03  0.94929901025E+02 0.  0.
          3    1    3    3  502    0 -0.38968026657E+02 -0.61018199255E+03 -0.86784208401E+02  0.61755329322E+03  0.00000000000E+00 0. -1.
         -3    1    3    3    0  502  0.48302519550E+02 -0.38627817096E+03 -0.63378761764E+02  0.39441200057E+03  0.00000000000E+00 0.  1.
         11    1    5    5    0    0 -0.20688016806E+02  0.11484698870E+03  0.14898456619E+03  0.18924646844E+03  0.00000000000E+00 0. -1.
        -11    1    5    5    0    0  0.47926285278E+02  0.30298142003E+03  0.58951620754E+03  0.66454798823E+03  0.00000000000E+00 0.  1.
          4    1    6    6  503    0  0.20602029853E+02  0.31433967190E+03  0.10079792805E+03  0.33074778195E+03  0.00000000000E+00 0. -1.
         -4    1    6    6    0  503 -0.57174791217E+02  0.26429208288E+03  0.39468726812E+02  0.27327100508E+03  0.00000000000E+00 0.  1.
<mgrwt>
<rscale>  0 0.10047877E+04</rscale>
<asrwt>0</asrwt>
<pdfrwt beam="1">  1        1 0.24602946E+00 0.10047877E+04</pdfrwt>
<pdfrwt beam="2">  1       -1 0.13393647E+00 0.10047877E+04</pdfrwt>
<totfact> 0.26413637E+00</totfact>
</mgrwt>
</event>
<event>
12    1  0.1338445E-007  0.1173201E+04  0.7818608E-02  0.9136642E-01
          1   -1    0    0  501    0  0.00000000000E+00  0.00000000000E+00  0.20592132105E+04  0.20592132105E+04  0.00000000000E+00 0. -1.
         -1   -1    0    0    0  501 -0.00000000000E+00 -0.00000000000E+00 -0.13182562460E+04  0.13182562460E+04  0.00000000000E+00 0.  1.
         23    2    1    2    0    0 -0.39402477898E+03 -0.10665693535E+04 -0.78305556220E+03  0.13836291464E+04  0.91803534312E+02 0.  0.
    5000000    2    1    2    0    0  0.39402477898E+03  0.10665693535E+04  0.15240125267E+04  0.19938403102E+04  0.59996607288E+03 0.  0.
         23    2    4    4    0    0  0.99023891104E+02  0.49678638921E+02  0.11627053551E+02  0.14539765014E+03  0.93442977897E+02 0.  0.
         23    2    4    4    0    0  0.29500088788E+03  0.10168907146E+04  0.15123854731E+04  0.18484426600E+04  0.91313737932E+02 0.  0.
          3    1    3    3  502    0 -0.30996552179E+03 -0.71744936238E+03 -0.54427279981E+03  0.95238914993E+03  0.00000000000E+00 0. -1.
         -3    1    3    3    0  502 -0.84059257190E+02 -0.34911999114E+03 -0.23878276239E+03  0.43123999646E+03  0.00000000000E+00 0.  1.
         13    1    5    5    0    0  0.11681762654E+03  0.36832137182E+02  0.14173468574E+02  0.12330389860E+03  0.00000000000E+00 0. -1.
        -13    1    5    5    0    0 -0.17793735434E+02  0.12846501739E+02 -0.25464150230E+01  0.22093751539E+02  0.00000000000E+00 0.  1.
          2    1    6    6  503    0  0.13508020493E+03  0.34110348978E+03  0.56883453079E+03  0.67688328087E+03  0.00000000000E+00 0. -1.
         -2    1    6    6    0  503  0.15992068294E+03  0.67578722482E+03  0.94355094234E+03  0.11715593791E+04  0.00000000000E+00 0.  1.
<mgrwt>
<rscale>  0 0.11732014E+04</rscale>
<asrwt>0</asrwt>
<pdfrwt beam="1">  1        1 0.31680203E+00 0.11732014E+04</pdfrwt>
<pdfrwt beam="2">  1       -1 0.20280865E+00 0.11732014E+04</pdfrwt>
<totfact> 0.38552570E-01</totfact>
</mgrwt>
</event>
<event>
12    1  0.1338445E-007  0.1471119E+04  0.7818608E-02  0.8903889E-01
         -2   -1    0    0    0  501 -0.00000000000E+00  0.00000000000E+00  0.18957467142E+04  0.18957467142E+04  0.00000000000E+00 0.  1.
          2   -1    0    0  501    0  0.00000000000E+00 -0.00000000000E+00 -0.18523490199E+04  0.18523490199E+04  0.00000000000E+00 0. -1.
         23    2    1    2    0    0 -0.14523011562E+04 -0.17685693825E+03  0.11116476581E+04  0.18397873661E+04  0.92736248868E+02 0.  0.
    5000000    2    1    2    0    0  0.14523011562E+04  0.17685693825E+03 -0.10682499638E+04  0.19083083680E+04  0.60002151427E+03 0.  0.
         23    2    4    4    0    0  0.32186675956E+03  0.13882266147E+02  0.98797154869E+01  0.33453207349E+03  0.89572156348E+02 0.  0.
         23    2    4    4    0    0  0.11304343966E+04  0.16297467211E+03 -0.10781296792E+04  0.15737762945E+04  0.99827607329E+02 0.  0.
          1    1    3    3  502    0 -0.55963215513E+03 -0.90537307375E+02  0.48028615570E+03  0.74300736500E+03  0.00000000000E+00 0. -1.
         -1    1    3    3    0  502 -0.89266900103E+03 -0.86319630880E+02  0.63136150240E+03  0.10967800011E+04  0.00000000000E+00 0.  1.
         13    1    5    5    0    0  0.16060389600E+03  0.51643935930E+02  0.81029781138E+01  0.16889750082E+03  0.00000000000E+00 0.  1.
        -13    1    5    5    0    0  0.16126286356E+03 -0.37761669782E+02  0.17767373731E+01  0.16563457267E+03  0.00000000000E+00 0. -1.
          4    1    6    6  503    0  0.86325981852E+03  0.94922344246E+02 -0.77449369985E+03  0.11636443859E+04  0.00000000000E+00 0. -1.
         -4    1    6    6    0  503  0.26717457808E+03  0.68052327861E+02 -0.30363597939E+03  0.41013190864E+03  0.00000000000E+00 0.  1.
<mgrwt>
<rscale>  0 0.14711187E+04</rscale>
<asrwt>0</asrwt>
<pdfrwt beam="1">  1        2 0.28497677E+00 0.14711187E+04</pdfrwt>
<pdfrwt beam="2">  1       -2 0.29165334E+00 0.14711187E+04</pdfrwt>
<totfact> 0.27162479E-01</totfact>
</mgrwt>
</event>
<event>
12    1  0.1338445E-007  0.6270405E+03  0.7818608E-02  0.9850841E-01
         -1   -1    0    0    0  501 -0.00000000000E+00  0.00000000000E+00  0.28085857942E+03  0.28085857942E+03  0.00000000000E+00 0.  1.
          1   -1    0    0  501    0  0.00000000000E+00 -0.00000000000E+00 -0.15090496448E+04  0.15090496448E+04  0.00000000000E+00 0. -1.
         23    2    1    2    0    0 -0.32175540934E+02  0.48989316403E+03 -0.31578617599E+03  0.59260693711E+03  0.10213469231E+03 0.  0.
    5000000    2    1    2    0    0  0.32175540934E+02 -0.48989316403E+03 -0.91240488934E+03  0.11973012871E+04  0.60001426007E+03 0.  0.
         23    2    4    4    0    0 -0.23574400276E+03 -0.71854296687E+02 -0.23691534177E+03  0.35403369153E+03  0.92047274692E+02 0.  0.
         23    2    4    4    0    0  0.26791954370E+03 -0.41803886734E+03 -0.67548954757E+03  0.84326759553E+03  0.90976547994E+02 0.  0.
          1    1    3    3  502    0  0.30134060867E+02  0.23113605908E+03 -0.11977545853E+03  0.26206506806E+03  0.00000000000E+00 0. -1.
         -1    1    3    3    0  502 -0.62309601801E+02  0.25875710495E+03 -0.19601071746E+03  0.33054186905E+03  0.00000000000E+00 0.  1.
         13    1    5    5    0    0 -0.45978889475E+02 -0.43292319709E+02 -0.10008921769E+03  0.11834751675E+03  0.00000000000E+00 0.  1.
        -13    1    5    5    0    0 -0.18976511329E+03 -0.28561976978E+02 -0.13682612409E+03  0.23568617478E+03  0.00000000000E+00 0. -1.
          3    1    6    6  503    0  0.67930440999E+01 -0.38459683620E+02 -0.25835804777E+02  0.46827145127E+02  0.00000000000E+00 0. -1.
         -3    1    6    6    0  503  0.26112649960E+03 -0.37957918372E+03 -0.64965374280E+03  0.79644045040E+03  0.00000000000E+00 0.  1.
<mgrwt>
<rscale>  0 0.62704048E+03</rscale>
<asrwt>0</asrwt>
<pdfrwt beam="1">  1        1 0.23216149E+00 0.62704048E+03</pdfrwt>
<pdfrwt beam="2">  1       -1 0.43209012E-01 0.62704048E+03</pdfrwt>
<totfact> 0.35673252E+01</totfact>
</mgrwt>
</event>
<event>
12    1  0.1338445E-007  0.1272468E+04  0.7818608E-02  0.9051688E-01
          1   -1    0    0  501    0  0.00000000000E+00  0.00000000000E+00  0.16416846143E+04  0.16416846143E+04  0.00000000000E+00 0. -1.
         -1   -1    0    0    0  501 -0.00000000000E+00 -0.00000000000E+00 -0.11704252653E+04  0.11704252653E+04  0.00000000000E+00 0.  1.
         23    2    1    2    0    0 -0.28198401177E+03  0.12172146523E+04  0.65565899800E+03  0.14139695195E+04  0.91074626846E+02 0.  0.
    5000000    2    1    2    0    0  0.28198401177E+03 -0.12172146523E+04 -0.18439964902E+03  0.13981403602E+04  0.59972222205E+03 0.  0.
         23    2    4    4    0    0  0.30667936660E+03 -0.11012530362E+04 -0.32579602587E+03  0.11921664673E+04  0.91144674728E+02 0.  0.
         23    2    4    4    0    0 -0.24695354827E+02 -0.11596161609E+03  0.14139637685E+03  0.20597389287E+03  0.91516950343E+02 0.  0.
          2    1    3    3  502    0 -0.86537792115E+02  0.26449301269E+03  0.11391818644E+03  0.30070366880E+03  0.00000000000E+00 0.  1.
         -2    1    3    3    0  502 -0.19544621965E+03  0.95272163959E+03  0.54174081156E+03  0.11132658507E+04  0.00000000000E+00 0. -1.
         11    1    5    5    0    0  0.15523609282E+03 -0.70144925298E+03 -0.22623892865E+03  0.75320206576E+03  0.00000000000E+00 0. -1.
        -11    1    5    5    0    0  0.15144327377E+03 -0.39980378322E+03 -0.99557097220E+02  0.43896440158E+03  0.00000000000E+00 0.  1.
          1    1    6    6  503    0  0.25850820518E+02 -0.51753085776E+01  0.37863669363E+02  0.46137904135E+02  0.00000000000E+00 0. -1.
         -1    1    6    6    0  503 -0.50546175345E+02 -0.11078630751E+03  0.10353270749E+03  0.15983598873E+03  0.00000000000E+00 0.  1.
<mgrwt>
<rscale>  0 0.12724678E+04</rscale>
<asrwt>0</asrwt>
<pdfrwt beam="1">  1        1 0.25256686E+00 0.12724678E+04</pdfrwt>
<pdfrwt beam="2">  1       -1 0.18006543E+00 0.12724678E+04</pdfrwt>
<totfact> 0.10553432E+00</totfact>
</mgrwt>
</event>
<event>
12    1  0.1338445E-007  0.7659370E+03  0.7818608E-02  0.9610674E-01
         -2   -1    0    0    0  501 -0.00000000000E+00  0.00000000000E+00  0.62470137861E+03  0.62470137861E+03  0.00000000000E+00 0.  1.
          2   -1    0    0  501    0  0.00000000000E+00 -0.00000000000E+00 -0.15800230710E+04  0.15800230710E+04  0.00000000000E+00 0. -1.
         23    2    1    2    0    0 -0.65466630757E+03 -0.13188024039E+03  0.23207833704E+03  0.71613497596E+03  0.11405514982E+03 0.  0.
    5000000    2    1    2    0    0  0.65466630757E+03  0.13188024039E+03 -0.11874000295E+04  0.14885894737E+04  0.59999951592E+03 0.  0.
         23    2    4    4    0    0  0.50622848685E+03 -0.14362224299E+03 -0.51650199477E+03  0.74279177991E+03  0.89837008640E+02 0.  0.
         23    2    4    4    0    0  0.14843782072E+03  0.27550248338E+03 -0.67089803470E+03  0.74579769377E+03  0.90413616791E+02 0.  0.
          2    1    3    3  502    0 -0.86204970293E+02  0.20496553285E+02  0.38219586584E+02  0.96499442478E+02  0.00000000000E+00 0. -1.
         -2    1    3    3    0  502 -0.56846133728E+03 -0.15237679368E+03  0.19385875046E+03  0.61963553349E+03  0.00000000000E+00 0.  1.
         13    1    5    5    0    0  0.53183916293E+02 -0.45988947096E+02 -0.72032285305E+02  0.10065864262E+03  0.00000000000E+00 0. -1.
        -13    1    5    5    0    0  0.45304457056E+03 -0.97633295896E+02 -0.44446970946E+03  0.64213313730E+03  0.00000000000E+00 0.  1.
          1    1    6    6  503    0  0.46247562240E+02  0.16099117747E+03 -0.41316520847E+03  0.44582786558E+03  0.00000000000E+00 0. -1.
         -1    1    6    6    0  503  0.10219025848E+03  0.11451130592E+03 -0.25773282623E+03  0.29996982819E+03  0.00000000000E+00 0.  1.
<mgrwt>
<rscale>  0 0.76593702E+03</rscale>
<asrwt>0</asrwt>
<pdfrwt beam="1">  1        2 0.24308047E+00 0.76593702E+03</pdfrwt>
<pdfrwt beam="2">  1       -2 0.96107906E-01 0.76593702E+03</pdfrwt>
<totfact> 0.10627580E+01</totfact>
</mgrwt>
</event>
<event>
12    1  0.1338445E-007  0.1144733E+04  0.7818608E-02  0.9162657E-01
         -1   -1    0    0    0  501 -0.00000000000E+00  0.00000000000E+00  0.19177024474E+04  0.19177024474E+04  0.00000000000E+00 0.  1.
          1   -1    0    0  501    0  0.00000000000E+00 -0.00000000000E+00 -0.89759239399E+03  0.89759239399E+03  0.00000000000E+00 0. -1.
         23    2    1    2    0    0 -0.34375620782E+03  0.10124972835E+04  0.11612558434E+04  0.15810457540E+04  0.88721264848E+02 0.  0.
    5000000    2    1    2    0    0  0.34375620782E+03 -0.10124972835E+04 -0.14114579000E+03  0.12342490874E+04  0.60010798705E+03 0.  0.
         23    2    4    4    0    0  0.40808418413E+03 -0.34019969521E+03 -0.12636842490E+03  0.55265707238E+03  0.84807587395E+02 0.  0.
         23    2    4    4    0    0 -0.64327976313E+02 -0.67229758831E+03 -0.14777365094E+02  0.68159201500E+03  0.90703740883E+02 0.  0.
          3    1    3    3  502    0 -0.23581508250E+03  0.80785849550E+03  0.90987578902E+03  0.12394022968E+04  0.00000000000E+00 0. -1.
         -3    1    3    3    0  502 -0.10794112532E+03  0.20463878802E+03  0.25138005440E+03  0.34164345720E+03  0.00000000000E+00 0.  1.
         11    1    5    5    0    0  0.19185214051E+03 -0.10720593585E+03 -0.61754238135E+02  0.22828478361E+03  0.00000000000E+00 0.  1.
        -11    1    5    5    0    0  0.21623204362E+03 -0.23299375937E+03 -0.64614186766E+02  0.32437228877E+03  0.00000000000E+00 0. -1.
          1    1    6    6  503    0 -0.42533255856E+02 -0.62876969588E+03 -0.29011905526E+02  0.63087407537E+03  0.00000000000E+00 0. -1.
         -1    1    6    6    0  503 -0.21794720458E+02 -0.43527892433E+02  0.14234540432E+02  0.50717939635E+02  0.00000000000E+00 0.  1.
<mgrwt>
<rscale>  0 0.11447327E+04</rscale>
<asrwt>0</asrwt>
<pdfrwt beam="1">  1        1 0.13809114E+00 0.11447327E+04</pdfrwt>
<pdfrwt beam="2">  1       -1 0.29503114E+00 0.11447327E+04</pdfrwt>
<totfact> 0.64543933E-01</totfact>
</mgrwt>
</event>
<event>
12    1  0.1338445E-007  0.1060933E+04  0.7818608E-02  0.9244128E-01
         -1   -1    0    0    0  501 -0.00000000000E+00  0.00000000000E+00  0.67399336341E+03  0.67399336341E+03  0.00000000000E+00 0.  1.
          1   -1    0    0  501    0  0.00000000000E+00 -0.00000000000E+00 -0.19247820401E+04  0.19247820401E+04  0.00000000000E+00 0. -1.
         23    2    1    2    0    0  0.52466815143E+03 -0.89961809162E+03 -0.79451213075E+03  0.13131182154E+04  0.91872421145E+02 0.  0.
    5000000    2    1    2    0    0 -0.52466815143E+03  0.89961809162E+03 -0.45627654592E+03  0.12856571881E+04  0.60011393843E+03 0.  0.
         23    2    4    4    0    0 -0.73214101003E+02  0.21908002846E+02  0.97262871878E+02  0.15031196135E+03  0.85401137599E+02 0.  0.
         23    2    4    4    0    0 -0.45145405043E+03  0.87771008877E+03 -0.55353941780E+03  0.11353452268E+04  0.91744957943E+02 0.  0.
          1    1    3    3  502    0  0.79098263173E+02 -0.16858625936E+03 -0.10442856676E+03  0.21350219586E+03  0.00000000000E+00 0. -1.
         -1    1    3    3    0  502  0.44556988826E+03 -0.73103183226E+03 -0.69008356399E+03  0.10996160195E+04  0.00000000000E+00 0.  1.
         13    1    5    5    0    0 -0.59009617209E+02 -0.39833089550E+01  0.10434652137E+03  0.11994247869E+03  0.00000000000E+00 0. -1.
        -13    1    5    5    0    0 -0.14204483794E+02  0.25891311801E+02 -0.70836494883E+01  0.30369482654E+02  0.00000000000E+00 0.  1.
          4    1    6    6  503    0 -0.19007451855E+03  0.46484085666E+03 -0.29690108873E+03  0.58340003523E+03  0.00000000000E+00 0. -1.
         -4    1    6    6    0  503 -0.26137953188E+03  0.41286923212E+03 -0.25663832907E+03  0.55194519154E+03  0.00000000000E+00 0.  1.
<mgrwt>
<rscale>  0 0.10609334E+04</rscale>
<asrwt>0</asrwt>
<pdfrwt beam="1">  1        1 0.29612032E+00 0.10609334E+04</pdfrwt>
<pdfrwt beam="2">  1       -1 0.10369129E+00 0.10609334E+04</pdfrwt>
<totfact> 0.29439489E+00</totfact>
</mgrwt>
</event>
<event>
12    1  0.1338445E-007  0.1312521E+04  0.7818608E-02  0.9019694E-01
          1   -1    0    0  501    0  0.00000000000E+00  0.00000000000E+00  0.22559438433E+04  0.22559438433E+04  0.00000000000E+00 0. -1.
         -1   -1    0    0    0  501 -0.00000000000E+00 -0.00000000000E+00 -0.14656332139E+04  0.14656332139E+04  0.00000000000E+00 0.  1.
         23    2    1    2    0    0 -0.91814817982E+03 -0.86135079750E+03  0.16544671839E+04  0.20809321268E+04  0.89975425675E+02 0.  0.
    5000000    2    1    2    0    0  0.91814817982E+03  0.86135079750E+03 -0.86415655448E+03  0.16406449304E+04  0.60002330009E+03 0.  0.
         23    2    4    4    0    0 -0.59682930023E+02  0.61215766952E+02 -0.61421072113E+02  0.14096013057E+03  0.93743202694E+02 0.  0.
         23    2    4    4    0    0  0.97783110984E+03  0.80013503055E+03 -0.80273548237E+03  0.14996847999E+04  0.91107067838E+02 0.  0.
          2    1    3    3  502    0 -0.56127268687E+03 -0.57532914905E+03  0.10946585148E+04  0.13580529897E+04  0.00000000000E+00 0. -1.
         -2    1    3    3    0  502 -0.35687549295E+03 -0.28602164845E+03  0.55980866902E+03  0.72287913703E+03  0.00000000000E+00 0.  1.
         11    1    5    5    0    0 -0.94987116290E+01  0.43347888259E+02  0.15836446120E+02  0.47117491071E+02  0.00000000000E+00 0. -1.
        -11    1    5    5    0    0 -0.50184218394E+02  0.17867878693E+02 -0.77257518233E+02  0.93842639500E+02  0.00000000000E+00 0.  1.
          3    1    6    6  503    0  0.42797537880E+03  0.29659383320E+03 -0.35023773712E+03  0.62753270771E+03  0.00000000000E+00 0. -1.
         -3    1    6    6    0  503  0.54985573104E+03  0.50354119734E+03 -0.45249774525E+03  0.87215209215E+03  0.00000000000E+00 0.  1.
<mgrwt>
<rscale>  0 0.13125212E+04</rscale>
<asrwt>0</asrwt>
<pdfrwt beam="1">  1        1 0.34706828E+00 0.13125212E+04</pdfrwt>
<pdfrwt beam="2">  1       -1 0.22548203E+00 0.13125212E+04</pdfrwt>
<totfact> 0.19523791E-01</totfact>
</mgrwt>
</event>
<event>
12    1  0.1338445E-007  0.3744002E+03  0.7818608E-02  0.1053023E+00
          2   -1    0    0  501    0  0.00000000000E+00  0.00000000000E+00  0.53684868756E+03  0.53684868756E+03  0.00000000000E+00 0. -1.
         -2   -1    0    0    0  501 -0.00000000000E+00 -0.00000000000E+00 -0.45013109892E+03  0.45013109892E+03  0.00000000000E+00 0.  1.
         23    2    1    2    0    0 -0.91920993237E+02 -0.72852950283E+02  0.30412306166E+03  0.33911484118E+03  0.93546873344E+02 0.  0.
    5000000    2    1    2    0    0  0.91920993237E+02  0.72852950283E+02 -0.21740547302E+03  0.64786494531E+03  0.59892138574E+03 0.  0.
         23    2    4    4    0    0  0.31461143126E+03  0.14234313464E+03 -0.85848947996E+02  0.36716315105E+03  0.90536274284E+02 0.  0.
         23    2    4    4    0    0 -0.22269043802E+03 -0.69490184357E+02 -0.13155652502E+03  0.28070179425E+03  0.84062245469E+02 0.  0.
          1    1    3    3  502    0 -0.33689881092E+02  0.20026411818E+02  0.62274458917E+02  0.73581067482E+02  0.00000000000E+00 0. -1.
         -1    1    3    3    0  502 -0.58231112145E+02 -0.92879362101E+02  0.24184860274E+03  0.26553377369E+03  0.00000000000E+00 0.  1.
         13    1    5    5    0    0  0.11137687843E+03  0.76507823260E+01 -0.42871950207E+02  0.11958824203E+03  0.00000000000E+00 0.  1.
        -13    1    5    5    0    0  0.20323455283E+03  0.13469235231E+03 -0.42976997790E+02  0.24757490902E+03  0.00000000000E+00 0. -1.
          3    1    6    6  503    0 -0.16643238490E+03 -0.16508402469E+02 -0.67615904981E+02  0.18040004629E+03  0.00000000000E+00 0. -1.
         -3    1    6    6    0  503 -0.56258053121E+02 -0.52981781888E+02 -0.63940620042E+02  0.10030174796E+03  0.00000000000E+00 0.  1.
<mgrwt>
<rscale>  0 0.37440016E+03</rscale>
<asrwt>0</asrwt>
<pdfrwt beam="1">  1        2 0.82592106E-01 0.37440016E+03</pdfrwt>
<pdfrwt beam="2">  1       -2 0.69250938E-01 0.37440016E+03</pdfrwt>
<totfact> 0.11197818E+02</totfact>
</mgrwt>
</event>
<event>
12    1  0.1338445E-007  0.7372956E+03  0.7818608E-02  0.9655495E-01
         -1   -1    0    0    0  501 -0.00000000000E+00  0.00000000000E+00  0.36087767803E+03  0.36087767803E+03  0.00000000000E+00 0.  1.
          1   -1    0    0  501    0  0.00000000000E+00 -0.00000000000E+00 -0.16995926451E+04  0.16995926451E+04  0.00000000000E+00 0. -1.
         23    2    1    2    0    0  0.53082459106E+03  0.39568563289E+03 -0.61553249372E+03  0.91097981441E+03  0.11252601874E+03 0.  0.
    5000000    2    1    2    0    0 -0.53082459106E+03 -0.39568563289E+03 -0.72318247339E+03  0.11494905088E+04  0.59999472778E+03 0.  0.
         23    2    4    4    0    0 -0.49262555466E+02  0.82660722311E+02  0.24516339190E+02  0.13548545846E+03  0.92171927302E+02 0.  0.
         23    2    4    4    0    0 -0.48156203560E+03 -0.47834635520E+03 -0.74769881258E+03  0.10140050503E+04  0.91844967448E+02 0.  0.
          3    1    3    3  502    0  0.50390128724E+03  0.35818821363E+03 -0.53236508659E+03  0.81586021418E+03  0.00000000000E+00 0. -1.
         -3    1    3    3    0  502  0.26923303826E+02  0.37497419259E+02 -0.83167407131E+02  0.95119600235E+02  0.00000000000E+00 0.  1.
         11    1    5    5    0    0 -0.75606111594E+02  0.60684011430E+02  0.28240648284E+02  0.10097706457E+03  0.00000000000E+00 0. -1.
        -11    1    5    5    0    0  0.26343556128E+02  0.21976710882E+02 -0.37243090942E+01  0.34508393890E+02  0.00000000000E+00 0.  1.
          3    1    6    6  503    0 -0.16309970749E+03 -0.15173159848E+03 -0.18457520882E+03  0.28929569694E+03  0.00000000000E+00 0. -1.
         -3    1    6    6    0  503 -0.31846232811E+03 -0.32661475671E+03 -0.56312360377E+03  0.72470935336E+03  0.00000000000E+00 0.  1.
<mgrwt>
<rscale>  0 0.73729559E+03</rscale>
<asrwt>0</asrwt>
<pdfrwt beam="1">  1        1 0.26147579E+00 0.73729559E+03</pdfrwt>
<pdfrwt beam="2">  1       -1 0.55519643E-01 0.73729559E+03</pdfrwt>
<totfact> 0.16275358E+01</totfact>
</mgrwt>
</event>
<event>
12    1  0.1338445E-007  0.9192689E+03  0.7818608E-02  0.9401810E-01
          1   -1    0    0  501    0  0.00000000000E+00  0.00000000000E+00  0.42463340197E+03  0.42463340197E+03  0.00000000000E+00 0. -1.
         -1   -1    0    0    0  501 -0.00000000000E+00 -0.00000000000E+00 -0.22353827442E+04  0.22353827442E+04  0.00000000000E+00 0.  1.
         23    2    1    2    0    0  0.87322973542E+03 -0.86824129567E+02 -0.74590867878E+03  0.11553686640E+04  0.91806275799E+02 0.  0.
    5000000    2    1    2    0    0 -0.87322973542E+03  0.86824129567E+02 -0.10648406635E+04  0.15046474822E+04  0.60000817239E+03 0.  0.
         23    2    4    4    0    0 -0.33715220128E+03 -0.12882921792E+03 -0.75641036334E+03  0.84307151430E+03  0.91347502683E+02 0.  0.
         23    2    4    4    0    0 -0.53607753414E+03  0.21565334749E+03 -0.30843030012E+03  0.66157596793E+03  0.93102214862E+02 0.  0.
          4    1    3    3  502    0  0.82571984304E+03 -0.10157075518E+03 -0.69320475523E+03  0.10828955214E+04  0.00000000000E+00 0. -1.
         -4    1    3    3    0  502  0.47509892375E+02  0.14746625613E+02 -0.52703923542E+02  0.72473142592E+02  0.00000000000E+00 0.  1.
         13    1    5    5    0    0 -0.14095627854E+03 -0.10100706212E+03 -0.32663432994E+03  0.36981222877E+03  0.00000000000E+00 0. -1.
        -13    1    5    5    0    0 -0.19619592274E+03 -0.27822155803E+02 -0.42977603340E+03  0.47325928552E+03  0.00000000000E+00 0.  1.
          2    1    6    6  503    0 -0.55423249758E+02 -0.64376953968E+01 -0.29019629675E+02  0.62891330422E+02  0.00000000000E+00 0. -1.
         -2    1    6    6    0  503 -0.48065428438E+03  0.22209104289E+03 -0.27941067044E+03  0.59868463750E+03  0.00000000000E+00 0.  1.
<mgrwt>
<rscale>  0 0.91926895E+03</rscale>
<asrwt>0</asrwt>
<pdfrwt beam="1">  1        1 0.65328216E-01 0.91926895E+03</pdfrwt>
<pdfrwt beam="2">  1       -1 0.34390504E+00 0.91926895E+03</pdfrwt>
<totfact> 0.97463617E-01</totfact>
</mgrwt>
</event>
<event>
12    1  0.1338445E-007  0.9582074E+03  0.7818608E-02  0.9355609E-01
          1   -1    0    0  501    0  0.00000000000E+00  0.00000000000E+00  0.19023729732E+04  0.19023729732E+04  0.00000000000E+00 0. -1.
         -1   -1    0    0    0  501 -0.00000000000E+00 -0.00000000000E+00 -0.59994988769E+03  0.59994988769E+03  0.00000000000E+00 0.  1.
         23    2    1    2    0    0 -0.94580194553E+03 -0.37697592980E+02  0.30102099729E+03  0.99930075989E+03  0.10966284334E+03 0.  0.
    5000000    2    1    2    0    0  0.94580194553E+03  0.37697592980E+02  0.10014020883E+04  0.15030221010E+04  0.60025566650E+03 0.  0.
         23    2    4    4    0    0  0.44491441945E+03  0.72821308776E+02  0.10510176794E+03  0.47188014559E+03  0.91502494679E+02 0.  0.
         23    2    4    4    0    0  0.50088752609E+03 -0.35123715796E+02  0.89630032033E+03  0.10311419555E+04  0.88190015822E+02 0.  0.
          4    1    3    3  502    0 -0.42246980748E+03  0.22499769462E+02  0.17377641439E+03  0.45736770771E+03  0.00000000000E+00 0. -1.
         -4    1    3    3    0  502 -0.52333213805E+03 -0.60197362442E+02  0.12724458290E+03  0.54193305218E+03  0.00000000000E+00 0.  1.
         11    1    5    5    0    0  0.35754337891E+03  0.89432568650E+02  0.64688412490E+02  0.37419252110E+03  0.00000000000E+00 0. -1.
        -11    1    5    5    0    0  0.87371040536E+02 -0.16611259874E+02  0.40413355451E+02  0.97687624486E+02  0.00000000000E+00 0.  1.
          4    1    6    6  503    0  0.10488531228E+03  0.26797277659E+02  0.16868052442E+03  0.20042989333E+03  0.00000000000E+00 0. -1.
         -4    1    6    6    0  503  0.39600221380E+03 -0.61920993455E+02  0.72761979591E+03  0.83071206213E+03  0.00000000000E+00 0.  1.
<mgrwt>
<rscale>  0 0.95820737E+03</rscale>
<asrwt>0</asrwt>
<pdfrwt beam="1">  1        1 0.29267276E+00 0.95820737E+03</pdfrwt>
<pdfrwt beam="2">  1       -1 0.92299984E-01 0.95820737E+03</pdfrwt>
<totfact> 0.40268448E+00</totfact>
</mgrwt>
</event>
<event>
12    1  0.1338445E-007  0.3462853E+03  0.7818608E-02  0.1064150E+00
          2   -1    0    0  501    0  0.00000000000E+00  0.00000000000E+00  0.49393999080E+03  0.49393999080E+03  0.00000000000E+00 0. -1.
         -2   -1    0    0    0  501 -0.00000000000E+00 -0.00000000000E+00 -0.60570191177E+03  0.60570191177E+03  0.00000000000E+00 0.  1.
         23    2    1    2    0    0  0.22932388965E+03  0.89778410839E+01 -0.33810512381E+03  0.41853121700E+03  0.90461355656E+02 0.  0.
    5000000    2    1    2    0    0 -0.22932388965E+03 -0.89778410839E+01  0.22634320284E+03  0.68111068556E+03  0.60000872703E+03 0.  0.
         23    2    4    4    0    0 -0.24970611809E+03 -0.15092774667E+03  0.35394409471E+03  0.46747926834E+03  0.90156053725E+02 0.  0.
         23    2    4    4    0    0  0.20382228442E+02  0.14194990558E+03 -0.12760089187E+03  0.21363141722E+03  0.93761313375E+02 0.  0.
          4    1    3    3  502    0  0.33319654483E+02  0.35005160778E+02 -0.55018789242E+02  0.73229965353E+02  0.00000000000E+00 0.  1.
         -4    1    3    3    0  502  0.19600423517E+03 -0.26027319694E+02 -0.28308633457E+03  0.34530125165E+03  0.00000000000E+00 0. -1.
         11    1    5    5    0    0 -0.20504829722E+03 -0.12275529234E+03  0.33473502156E+03  0.41129211110E+03  0.00000000000E+00 0.  1.
        -11    1    5    5    0    0 -0.44657820873E+02 -0.28172454328E+02  0.19209073143E+02  0.56187157243E+02  0.00000000000E+00 0. -1.
          4    1    6    6  503    0 -0.16588783870E+02  0.14515241807E+02  0.84329627128E+01  0.23600738444E+02  0.00000000000E+00 0. -1.
         -4    1    6    6    0  503  0.36971012312E+02  0.12743466378E+03 -0.13603385458E+03  0.19003067877E+03  0.00000000000E+00 0.  1.
<mgrwt>
<rscale>  0 0.34628532E+03</rscale>
<asrwt>0</asrwt>
<pdfrwt beam="1">  1        2 0.75990768E-01 0.34628532E+03</pdfrwt>
<pdfrwt beam="2">  1       -2 0.93184909E-01 0.34628532E+03</pdfrwt>
<totfact> 0.63809416E+01</totfact>
</mgrwt>
</event>
<event>
12    1  0.1338445E-007  0.5722724E+03  0.7818608E-02  0.9964663E-01
         -2   -1    0    0    0  501 -0.00000000000E+00  0.00000000000E+00  0.41616848317E+03  0.41616848317E+03  0.00000000000E+00 0.  1.
          2   -1    0    0  501    0  0.00000000000E+00 -0.00000000000E+00 -0.26420081599E+04  0.26420081599E+04  0.00000000000E+00 0. -1.
         23    2    1    2    0    0 -0.35268834216E+03  0.22892202073E+03 -0.22830424114E+04  0.23232281015E+04  0.91169081286E+02 0.  0.
    5000000    2    1    2    0    0  0.35268834216E+03 -0.22892202073E+03  0.57202734651E+02  0.73494854151E+03  0.60006903565E+03 0.  0.
         23    2    4    4    0    0  0.12416524776E+03 -0.39631351676E+03  0.87075437437E+02  0.43439721789E+03  0.92937606947E+02 0.  0.
         23    2    4    4    0    0  0.22852309440E+03  0.16739149603E+03 -0.29872702786E+02  0.30055132363E+03  0.95895787942E+02 0.  0.
          3    1    3    3  502    0 -0.33765807814E+03  0.18778819589E+03 -0.20639425757E+04  0.20997943566E+04  0.00000000000E+00 0. -1.
         -3    1    3    3    0  502 -0.15030264017E+02  0.41133824842E+02 -0.21909983566E+03  0.22343374492E+03  0.00000000000E+00 0.  1.
         11    1    5    5    0    0  0.40618612097E+02 -0.19514041427E+03  0.84646911292E+02  0.21655196263E+03  0.00000000000E+00 0. -1.
        -11    1    5    5    0    0  0.83546635663E+02 -0.20117310249E+03  0.24285261446E+01  0.21784525525E+03  0.00000000000E+00 0.  1.
          2    1    6    6  503    0  0.10371786346E+03  0.13127948603E+03 -0.33266111304E+02  0.17058233441E+03  0.00000000000E+00 0. -1.
         -2    1    6    6    0  503  0.12480523094E+03  0.36112010002E+02  0.33934085174E+01  0.12996898921E+03  0.00000000000E+00 0.  1.
<mgrwt>
<rscale>  0 0.57227237E+03</rscale>
<asrwt>0</asrwt>
<pdfrwt beam="1">  1        2 0.40646279E+00 0.57227237E+03</pdfrwt>
<pdfrwt beam="2">  1       -2 0.64025922E-01 0.57227237E+03</pdfrwt>
<totfact> 0.70832693E+00</totfact>
</mgrwt>
</event>
<event>
12    1  0.1338445E-007  0.1066545E+04  0.7818608E-02  0.9238427E-01
          2   -1    0    0  501    0  0.00000000000E+00  0.00000000000E+00  0.23987276234E+04  0.23987276234E+04  0.00000000000E+00 0. -1.
         -2   -1    0    0    0  501 -0.00000000000E+00 -0.00000000000E+00 -0.56111281532E+03  0.56111281532E+03  0.00000000000E+00 0.  1.
         23    2    1    2    0    0 -0.41201348870E+02 -0.99348597469E+03  0.31886859180E+03  0.10478910360E+04  0.87672751800E+02 0.  0.
    5000000    2    1    2    0    0  0.41201348870E+02  0.99348597469E+03  0.15187462162E+04  0.19119494027E+04  0.60020706103E+03 0.  0.
         23    2    4    4    0    0  0.25990144783E+03  0.25335887004E+03  0.61469146103E+03  0.71979776604E+03  0.92324168744E+02 0.  0.
         23    2    4    4    0    0 -0.21870009896E+03  0.74012710465E+03  0.90405475521E+03  0.11921516367E+04  0.91064043641E+02 0.  0.
          1    1    3    3  502    0  0.36562031461E+01 -0.48204765321E+03  0.19317754123E+03  0.51932732474E+03  0.00000000000E+00 0. -1.
         -1    1    3    3    0  502 -0.44857552016E+02 -0.51143832148E+03  0.12569105057E+03  0.52856371125E+03  0.00000000000E+00 0.  1.
         11    1    5    5    0    0  0.95882168559E+02  0.71052550771E+02  0.12917423164E+03  0.17586312103E+03  0.00000000000E+00 0.  1.
        -11    1    5    5    0    0  0.16401927927E+03  0.18230631926E+03  0.48551722939E+03  0.54393464501E+03  0.00000000000E+00 0. -1.
          1    1    6    6  503    0 -0.19620122373E+03  0.60354214401E+03  0.78597481614E+03  0.10102051531E+04  0.00000000000E+00 0. -1.
         -1    1    6    6    0  503 -0.22498875230E+02  0.13658496064E+03  0.11807993906E+03  0.18194648353E+03  0.00000000000E+00 0.  1.
<mgrwt>
<rscale>  0 0.10665453E+04</rscale>
<asrwt>0</asrwt>
<pdfrwt beam="1">  1        2 0.36903501E+00 0.10665453E+04</pdfrwt>
<pdfrwt beam="2">  1       -2 0.86325050E-01 0.10665453E+04</pdfrwt>
<totfact> 0.46287468E+00</totfact>
</mgrwt>
</event>
<event>
12    1  0.1338445E-007  0.8223393E+03  0.7818608E-02  0.9528233E-01
         -2   -1    0    0    0  501 -0.00000000000E+00  0.00000000000E+00  0.47108804779E+03  0.47108804779E+03  0.00000000000E+00 0. -1.
          2   -1    0    0  501    0  0.00000000000E+00 -0.00000000000E+00 -0.16457826956E+04  0.16457826956E+04  0.00000000000E+00 0.  1.
         23    2    1    2    0    0  0.47470948124E+03 -0.60487770607E+03 -0.40164152100E+03  0.87221980719E+03  0.90693714098E+02 0.  0.
    5000000    2    1    2    0    0 -0.47470948124E+03  0.60487770607E+03 -0.77305312678E+03  0.12446509362E+04  0.60026551225E+03 0.  0.
         23    2    4    4    0    0  0.68605661244E+02  0.76890465640E+02 -0.34148890289E+03  0.36793580073E+03  0.90239693020E+02 0.  0.
         23    2    4    4    0    0 -0.54331514249E+03  0.52798724043E+03 -0.43156422388E+03  0.87671513544E+03  0.91759900071E+02 0.  0.
          2    1    3    3  502    0  0.16327092086E+03 -0.20827538748E+03 -0.18767194570E+03  0.32443302827E+03  0.00000000000E+00 0.  1.
         -2    1    3    3    0  502  0.31143856038E+03 -0.39660231859E+03 -0.21396957530E+03  0.54778677892E+03  0.00000000000E+00 0. -1.
         13    1    5    5    0    0  0.63249167480E+02  0.29251070758E+02 -0.28709530362E+03  0.29543154146E+03  0.00000000000E+00 0.  1.
        -13    1    5    5    0    0  0.53564937641E+01  0.47639394882E+02 -0.54393599269E+02  0.72504259265E+02  0.00000000000E+00 0. -1.
          4    1    6    6  503    0 -0.38805487969E+03  0.35880547295E+03 -0.34582825933E+03  0.63160521057E+03  0.00000000000E+00 0.  1.
         -4    1    6    6    0  503 -0.15526026280E+03  0.16918176748E+03 -0.85735964557E+02  0.24510992487E+03  0.00000000000E+00 0. -1.
<mgrwt>
<rscale>  0 0.82233933E+03</rscale>
<asrwt>0</asrwt>
<pdfrwt beam="1">  1        2 0.25319734E+00 0.82233933E+03</pdfrwt>
<pdfrwt beam="2">  1       -2 0.72475084E-01 0.82233933E+03</pdfrwt>
<totfact> 0.18430351E+01</totfact>
</mgrwt>
</event>
<event>
12    1  0.1338445E-007  0.7526007E+03  0.7818608E-02  0.9631279E-01
          1   -1    0    0  501    0  0.00000000000E+00  0.00000000000E+00  0.21384370957E+04  0.21384370957E+04  0.00000000000E+00 0. -1.
         -1   -1    0    0    0  501 -0.00000000000E+00 -0.00000000000E+00 -0.27639892711E+03  0.27639892711E+03  0.00000000000E+00 0.  1.
         23    2    1    2    0    0 -0.63329183596E+03 -0.76303437727E+02  0.96727670680E+03  0.11626072636E+04  0.95659070444E+02 0.  0.
    5000000    2    1    2    0    0  0.63329183596E+03  0.76303437727E+02  0.89476146176E+03  0.12522287592E+04  0.60049814968E+03 0.  0.
         23    2    4    4    0    0  0.26728644105E+03  0.32049189525E+03  0.45048143623E+03  0.62045871425E+03  0.88760324517E+02 0.  0.
         23    2    4    4    0    0  0.36600539491E+03 -0.24418845752E+03  0.44428002553E+03  0.63177004493E+03  0.90336574535E+02 0.  0.
          1    1    3    3  502    0 -0.15545547198E+03 -0.38077854048E+02  0.31264475225E+03  0.35123079001E+03  0.00000000000E+00 0. -1.
         -1    1    3    3    0  502 -0.47783636398E+03 -0.38225583679E+02  0.65463195454E+03  0.81137647359E+03  0.00000000000E+00 0.  1.
         13    1    5    5    0    0  0.11102965878E+03  0.14253987493E+03  0.13286537171E+03  0.22427306587E+03  0.00000000000E+00 0.  1.
        -13    1    5    5    0    0  0.15625678227E+03  0.17795202032E+03  0.31761606452E+03  0.39618564838E+03  0.00000000000E+00 0. -1.
          1    1    6    6  503    0  0.13744025715E+03 -0.14295755233E+03  0.17705477961E+03  0.26584785318E+03  0.00000000000E+00 0. -1.
         -1    1    6    6    0  503  0.22856513776E+03 -0.10123090519E+03  0.26722524591E+03  0.36592219176E+03  0.00000000000E+00 0.  1.
<mgrwt>
<rscale>  0 0.75260073E+03</rscale>
<asrwt>0</asrwt>
<pdfrwt beam="1">  1        1 0.32899031E+00 0.75260073E+03</pdfrwt>
<pdfrwt beam="2">  1       -1 0.42522913E-01 0.75260073E+03</pdfrwt>
<totfact> 0.13648843E+01</totfact>
</mgrwt>
</event>
<event>
12    1  0.1338445E-007  0.4268162E+03  0.7818608E-02  0.1034870E+00
          2   -1    0    0  501    0  0.00000000000E+00  0.00000000000E+00  0.40743579513E+04  0.40743579513E+04  0.00000000000E+00 0. -1.
         -2   -1    0    0    0  501 -0.00000000000E+00 -0.00000000000E+00 -0.51871230706E+02  0.51871230706E+02  0.00000000000E+00 0.  1.
         23    2    1    2    0    0 -0.19759372358E+03  0.56236401102E+02  0.55522835763E+03  0.60146727958E+03  0.10620050322E+03 0.  0.
    5000000    2    1    2    0    0  0.19759372358E+03 -0.56236401102E+02  0.34672583629E+04  0.35247619024E+04  0.59988340603E+03 0.  0.
         23    2    4    4    0    0 -0.19130325923E+03  0.48781488526E+02  0.10218667261E+04  0.10447578681E+04  0.91273360936E+02 0.  0.
         23    2    4    4    0    0  0.38889698281E+03 -0.10501788963E+03  0.24453916368E+04  0.24800040343E+04  0.90609780270E+02 0.  0.
          1    1    3    3  502    0 -0.69329893374E+02  0.72770718183E+02  0.27639199899E+03  0.29409989569E+03  0.00000000000E+00 0. -1.
         -1    1    3    3    0  502 -0.12826383020E+03 -0.16534317081E+02  0.27883635865E+03  0.30736738390E+03  0.00000000000E+00 0.  1.
         13    1    5    5    0    0 -0.33374589094E+02  0.43399775911E+02  0.17822423819E+03  0.18644377926E+03  0.00000000000E+00 0.  1.
        -13    1    5    5    0    0 -0.15792867014E+03  0.53817126147E+01  0.84364248792E+03  0.85831408884E+03  0.00000000000E+00 0. -1.
          3    1    6    6  503    0  0.26205174574E+03 -0.10972428347E+03  0.17948199742E+04  0.18171651757E+04  0.00000000000E+00 0. -1.
         -3    1    6    6    0  503  0.12684523707E+03  0.47063938424E+01  0.65057166263E+03  0.66283885864E+03  0.00000000000E+00 0.  1.
<mgrwt>
<rscale>  0 0.42681616E+03</rscale>
<asrwt>0</asrwt>
<pdfrwt beam="1">  1        2 0.62682405E+00 0.42681616E+03</pdfrwt>
<pdfrwt beam="2">  1       -2 0.79801925E-02 0.42681616E+03</pdfrwt>
<totfact> 0.35001820E+01</totfact>
</mgrwt>
</event>
<event>
12    1  0.1338445E-007  0.1619707E+03  0.7818608E-02  0.1186490E+00
         -2   -1    0    0    0  501 -0.00000000000E+00  0.00000000000E+00  0.72253483154E+02  0.72253483154E+02  0.00000000000E+00 0.  1.
          2   -1    0    0  501    0  0.00000000000E+00 -0.00000000000E+00 -0.17338250208E+04  0.17338250208E+04  0.00000000000E+00 0. -1.
         23    2    1    2    0    0 -0.13540073420E+02  0.21762038380E+02 -0.13809788259E+03  0.16849544020E+03  0.93073993627E+02 0.  0.
    5000000    2    1    2    0    0  0.13540073420E+02 -0.21762038380E+02 -0.15234736551E+04  0.16375830638E+04  0.60004115954E+03 0.  0.
         23    2    4    4    0    0  0.42194550417E+02  0.62028308939E+02 -0.11620423015E+02  0.12037974828E+03  0.93425683677E+02 0.  0.
         23    2    4    4    0    0 -0.28654476997E+02 -0.83790347319E+02 -0.15118532320E+04  0.15172033155E+04  0.91453834761E+02 0.  0.
          4    1    3    3  502    0  0.33923464804E+02  0.12229998869E+02 -0.10176937939E+03  0.10796935175E+03  0.00000000000E+00 0. -1.
         -4    1    3    3    0  502 -0.47463538223E+02  0.95320395110E+01 -0.36328503200E+02  0.60526088447E+02  0.00000000000E+00 0.  1.
         11    1    5    5    0    0 -0.11051434076E+02  0.64460665548E+02  0.17584995079E+01  0.65424795900E+02  0.00000000000E+00 0.  1.
        -11    1    5    5    0    0  0.53245984493E+02 -0.24323566088E+01 -0.13378922523E+02  0.54954952381E+02  0.00000000000E+00 0. -1.
          3    1    6    6  503    0 -0.26926356428E+01  0.16731302433E+02 -0.44192534497E+03  0.44225015239E+03  0.00000000000E+00 0.  1.
         -3    1    6    6    0  503 -0.25961841355E+02 -0.10052164975E+03 -0.10699278871E+04  0.10749531631E+04  0.00000000000E+00 0. -1.
<mgrwt>
<rscale>  0 0.16197066E+03</rscale>
<asrwt>0</asrwt>
<pdfrwt beam="1">  1        2 0.26674230E+00 0.16197066E+03</pdfrwt>
<pdfrwt beam="2">  1       -2 0.11115921E-01 0.16197066E+03</pdfrwt>
<totfact> 0.58654063E+02</totfact>
</mgrwt>
</event>
<event>
12    1  0.1338445E-007  0.5704602E+03  0.7818608E-02  0.9968661E-01
          1   -1    0    0  501    0  0.00000000000E+00  0.00000000000E+00  0.22175456695E+04  0.22175456695E+04  0.00000000000E+00 0. -1.
         -1   -1    0    0    0  501 -0.00000000000E+00 -0.00000000000E+00 -0.16876130338E+03  0.16876130338E+03  0.00000000000E+00 0.  1.
         23    2    1    2    0    0  0.34863045846E+03 -0.26317090638E+03  0.50687821280E+03  0.67506717656E+03  0.89375878807E+02 0.  0.
    5000000    2    1    2    0    0 -0.34863045846E+03  0.26317090638E+03  0.15419061533E+04  0.17112397964E+04  0.60005410789E+03 0.  0.
         23    2    4    4    0    0 -0.46150728523E+02 -0.16252568392E+03  0.60108676268E+03  0.63109677091E+03  0.91833274544E+02 0.  0.
         23    2    4    4    0    0 -0.30247972994E+03  0.42569659029E+03  0.94081939067E+03  0.10801430255E+04  0.94107680657E+02 0.  0.
          3    1    3    3  502    0  0.30143333189E+03 -0.23256548407E+03  0.38821401202E+03  0.54374523177E+03  0.00000000000E+00 0. -1.
         -3    1    3    3    0  502  0.47197126577E+02 -0.30605422311E+02  0.11866420079E+03  0.13132194478E+03  0.00000000000E+00 0.  1.
         13    1    5    5    0    0 -0.61176352827E+02 -0.11667513591E+03  0.52273498384E+03  0.53908023226E+03  0.00000000000E+00 0.  1.
        -13    1    5    5    0    0  0.15025624304E+02 -0.45850548008E+02  0.78351778842E+02  0.92016538655E+02  0.00000000000E+00 0. -1.
          1    1    6    6  503    0 -0.16823690588E+03  0.19995169527E+03  0.38386422907E+03  0.46436632447E+03  0.00000000000E+00 0. -1.
         -1    1    6    6    0  503 -0.13424282407E+03  0.22574489502E+03  0.55695516159E+03  0.61577670098E+03  0.00000000000E+00 0.  1.
<mgrwt>
<rscale>  0 0.57046023E+03</rscale>
<asrwt>0</asrwt>
<pdfrwt beam="1">  1        1 0.34116085E+00 0.57046023E+03</pdfrwt>
<pdfrwt beam="2">  1       -1 0.25963279E-01 0.57046023E+03</pdfrwt>
<totfact> 0.29752483E+01</totfact>
</mgrwt>
</event>
<event>
12    1  0.1338445E-007  0.1451220E+04  0.7818608E-02  0.8917555E-01
         -2   -1    0    0    0  501 -0.00000000000E+00  0.00000000000E+00  0.15812124836E+04  0.15812124836E+04  0.00000000000E+00 0.  1.
          2   -1    0    0  501    0  0.00000000000E+00 -0.00000000000E+00 -0.16346257725E+04  0.16346257725E+04  0.00000000000E+00 0. -1.
         23    2    1    2    0    0  0.13899543514E+04  0.30396290953E+03  0.59015005953E+03  0.15429836684E+04  0.90304810749E+02 0.  0.
    5000000    2    1    2    0    0 -0.13899543514E+04 -0.30396290953E+03 -0.64356334846E+03  0.16728545877E+04  0.59991844351E+03 0.  0.
         23    2    4    4    0    0 -0.16931202543E+03  0.82873480020E+02 -0.25793205503E+03  0.33252842018E+03  0.92258493206E+02 0.  0.
         23    2    4    4    0    0 -0.12206423260E+04 -0.38683638955E+03 -0.38563129343E+03  0.13403261676E+04  0.90292085619E+02 0.  0.
          3    1    3    3  502    0  0.11507732856E+04  0.22519271179E+03  0.46085438381E+03  0.12599117729E+04  0.00000000000E+00 0. -1.
         -3    1    3    3    0  502  0.23918106578E+03  0.78770197737E+02  0.12929567573E+03  0.28307189553E+03  0.00000000000E+00 0.  1.
         13    1    5    5    0    0 -0.99520554820E+02  0.77499851559E+02 -0.10419796605E+03  0.16360863043E+03  0.00000000000E+00 0.  1.
        -13    1    5    5    0    0 -0.69791470613E+02  0.53736284601E+01 -0.15373408898E+03  0.16891978975E+03  0.00000000000E+00 0. -1.
          3    1    6    6  503    0 -0.89901895750E+03 -0.31250370039E+03 -0.31681650902E+03  0.10031282815E+04  0.00000000000E+00 0. -1.
         -3    1    6    6    0  503 -0.32162336847E+03 -0.74332689156E+02 -0.68814784408E+02  0.33719788608E+03  0.00000000000E+00 0.  1.
<mgrwt>
<rscale>  0 0.14512196E+04</rscale>
<asrwt>0</asrwt>
<pdfrwt beam="1">  1        2 0.25148089E+00 0.14512196E+04</pdfrwt>
<pdfrwt beam="2">  1       -2 0.24326346E+00 0.14512196E+04</pdfrwt>
<totfact> 0.71199437E-01</totfact>
</mgrwt>
</event>
<event>
12    1  0.1338445E-007  0.9270497E+03  0.7818608E-02  0.9392386E-01
         -1   -1    0    0    0  501 -0.00000000000E+00  0.00000000000E+00  0.98391698276E+03  0.98391698276E+03  0.00000000000E+00 0.  1.
          1   -1    0    0  501    0  0.00000000000E+00 -0.00000000000E+00 -0.10383189300E+04  0.10383189300E+04  0.00000000000E+00 0. -1.
         23    2    1    2    0    0 -0.60781351308E+03 -0.65548337403E+03 -0.24079437053E+03  0.92963089042E+03  0.84474512291E+02 0.  0.
    5000000    2    1    2    0    0  0.60781351308E+03  0.65548337403E+03  0.18639242327E+03  0.10926050224E+04  0.59995656434E+03 0.  0.
         23    2    4    4    0    0  0.12322749470E+03  0.35888066160E+03 -0.15908698289E+03  0.42130331110E+03  0.90595072176E+02 0.  0.
         23    2    4    4    0    0  0.48458601839E+03  0.29660271244E+03  0.34547940616E+03  0.67130171125E+03  0.92158500426E+02 0.  0.
          3    1    3    3  502    0 -0.35312856403E+03 -0.34399788897E+03 -0.97576942390E+02  0.50254909216E+03  0.00000000000E+00 0. -1.
         -3    1    3    3    0  502 -0.25468494905E+03 -0.31148548506E+03 -0.14321742814E+03  0.42708179826E+03  0.00000000000E+00 0.  1.
         13    1    5    5    0    0 -0.14129806046E+02  0.25581798360E+02 -0.70616428811E+01  0.30065705155E+02  0.00000000000E+00 0.  1.
        -13    1    5    5    0    0  0.13735730074E+03  0.33329886324E+03 -0.15202534001E+03  0.39123760595E+03  0.00000000000E+00 0. -1.
          4    1    6    6  503    0  0.40631441243E+03  0.23450410357E+03  0.24360127132E+03  0.52860680636E+03  0.00000000000E+00 0.  1.
         -4    1    6    6    0  503  0.78271605957E+02  0.62098608870E+02  0.10187813485E+03  0.14269490489E+03  0.00000000000E+00 0. -1.
<mgrwt>
<rscale>  0 0.92704968E+03</rscale>
<asrwt>0</asrwt>
<pdfrwt beam="1">  1        1 0.15974137E+00 0.92704968E+03</pdfrwt>
<pdfrwt beam="2">  1       -1 0.15137184E+00 0.92704968E+03</pdfrwt>
<totfact> 0.48652051E+00</totfact>
</mgrwt>
</event>
<event>
12    1  0.1338445E-007  0.6620438E+03  0.7818608E-02  0.9784439E-01
         -1   -1    0    0    0  501 -0.00000000000E+00  0.00000000000E+00  0.17763718636E+04  0.17763718636E+04  0.00000000000E+00 0.  1.
          1   -1    0    0  501    0  0.00000000000E+00 -0.00000000000E+00 -0.77135630422E+03  0.77135630422E+03  0.00000000000E+00 0. -1.
         23    2    1    2    0    0  0.42449243473E+03 -0.40064659735E+03 -0.53356197736E+03  0.79614700555E+03  0.91924684676E+02 0.  0.
    5000000    2    1    2    0    0 -0.42449243473E+03  0.40064659735E+03  0.15385775367E+04  0.17515811622E+04  0.60008683397E+03 0.  0.
         23    2    4    4    0    0 -0.25109230220E+03 -0.40366130922E+02  0.96579999638E+03  0.10028371406E+04  0.90752017820E+02 0.  0.
         23    2    4    4    0    0 -0.17340013253E+03  0.44101272827E+03  0.57277754032E+03  0.74874402166E+03  0.89351367174E+02 0.  0.
          4    1    3    3  502    0  0.27989118061E+03 -0.20575002403E+03 -0.33485068914E+03  0.48249054850E+03  0.00000000000E+00 0. -1.
         -4    1    3    3    0  502  0.14460125412E+03 -0.19489657332E+03 -0.19871128822E+03  0.31365645705E+03  0.00000000000E+00 0.  1.
         13    1    5    5    0    0 -0.15875931892E+03 -0.44976959275E+02  0.46098943835E+03  0.48963119843E+03  0.00000000000E+00 0.  1.
        -13    1    5    5    0    0 -0.92332983278E+02  0.46108283533E+01  0.50481055803E+03  0.51320594213E+03  0.00000000000E+00 0. -1.
          2    1    6    6  503    0 -0.97330867803E+02  0.17912886094E+03  0.30256606485E+03  0.36483786844E+03  0.00000000000E+00 0. -1.
         -2    1    6    6    0  503 -0.76069264727E+02  0.26188386733E+03  0.27021147547E+03  0.38390615322E+03  0.00000000000E+00 0.  1.
<mgrwt>
<rscale>  0 0.66204378E+03</rscale>
<asrwt>0</asrwt>
<pdfrwt beam="1">  1        1 0.11867020E+00 0.66204378E+03</pdfrwt>
<pdfrwt beam="2">  1       -1 0.27328798E+00 0.66204378E+03</pdfrwt>
<totfact> 0.12347060E+00</totfact>
</mgrwt>
</event>
<event>
12    1  0.1338445E-007  0.8221340E+03  0.7818608E-02  0.9528520E-01
         -2   -1    0    0    0  501 -0.00000000000E+00  0.00000000000E+00  0.52003219688E+03  0.52003219688E+03  0.00000000000E+00 0.  1.
          2   -1    0    0  501    0  0.00000000000E+00 -0.00000000000E+00 -0.20452924073E+04  0.20452924073E+04  0.00000000000E+00 0. -1.
         23    2    1    2    0    0  0.73241339474E+03 -0.31434294190E+03 -0.13239231319E+04  0.15476325001E+04  0.84575589277E+02 0.  0.
    5000000    2    1    2    0    0 -0.73241339474E+03  0.31434294190E+03 -0.20133707844E+03  0.10176921040E+04  0.59993310749E+03 0.  0.
         23    2    4    4    0    0 -0.93539520855E+02  0.15779275406E+03  0.16138973392E+03  0.26082022039E+03  0.91281684659E+02 0.  0.
         23    2    4    4    0    0 -0.63887387389E+03  0.15655018785E+03 -0.36272681236E+03  0.75687188361E+03  0.92825210720E+02 0.  0.
          4    1    3    3  502    0  0.23295409848E+03 -0.61106065778E+02 -0.36957362709E+03  0.44111929125E+03  0.00000000000E+00 0. -1.
         -4    1    3    3    0  502  0.49945929626E+03 -0.25323687612E+03 -0.95434950484E+03  0.11065132089E+04  0.00000000000E+00 0.  1.
         11    1    5    5    0    0 -0.59802179972E+02  0.10579675936E+03  0.46201850623E+02  0.13001486846E+03  0.00000000000E+00 0. -1.
        -11    1    5    5    0    0 -0.33737340883E+02  0.51995994699E+02  0.11518788330E+03  0.13080535193E+03  0.00000000000E+00 0.  1.
          2    1    6    6  503    0 -0.33196724177E+03  0.53904340619E+02 -0.14152704280E+03  0.36488057141E+03  0.00000000000E+00 0.  1.
         -2    1    6    6    0  503 -0.30690663211E+03  0.10264584723E+03 -0.22119976956E+03  0.39199131220E+03  0.00000000000E+00 0. -1.
<mgrwt>
<rscale>  0 0.82213397E+03</rscale>
<asrwt>0</asrwt>
<pdfrwt beam="1">  1        2 0.31466037E+00 0.82213397E+03</pdfrwt>
<pdfrwt beam="2">  1       -2 0.80004954E-01 0.82213397E+03</pdfrwt>
<totfact> 0.89364105E+00</totfact>
</mgrwt>
</event>
<event>
12    1  0.1338445E-007  0.7642854E+03  0.7818608E-02  0.9613202E-01
         -2   -1    0    0    0  501 -0.00000000000E+00  0.00000000000E+00  0.28452360840E+03  0.28452360840E+03  0.00000000000E+00 0.  1.
          2   -1    0    0  501    0  0.00000000000E+00 -0.00000000000E+00 -0.25258896678E+04  0.25258896678E+04  0.00000000000E+00 0. -1.
         23    2    1    2    0    0 -0.67533486645E+03  0.29910466169E+03 -0.10038702926E+04  0.12494202341E+04  0.88060072707E+02 0.  0.
    5000000    2    1    2    0    0  0.67533486645E+03 -0.29910466169E+03 -0.12374957668E+04  0.15609930421E+04  0.59980223767E+03 0.  0.
         23    2    4    4    0    0  0.58604966894E+02 -0.43443732921E+02  0.34340475044E+02  0.12169251223E+03  0.91147678153E+02 0.  0.
         23    2    4    4    0    0  0.61672989956E+03 -0.25566092876E+03 -0.12718362418E+04  0.14393005299E+04  0.91106036322E+02 0.  0.
          3    1    3    3  502    0 -0.37774708244E+03  0.12061638255E+03 -0.55277253611E+03  0.68029305943E+03  0.00000000000E+00 0. -1.
         -3    1    3    3    0  502 -0.29758778401E+03  0.17848827914E+03 -0.45109775650E+03  0.56912717463E+03  0.00000000000E+00 0.  1.
         13    1    5    5    0    0  0.37820853402E+02 -0.71153797647E+02  0.32857136934E+02  0.87022246116E+02  0.00000000000E+00 0.  1.
        -13    1    5    5    0    0  0.20784113492E+02  0.27710064725E+02  0.14833381102E+01  0.34670266118E+02  0.00000000000E+00 0. -1.
          4    1    6    6  503    0  0.26617207308E+03 -0.81518282741E+02 -0.60709270891E+03  0.66787301197E+03  0.00000000000E+00 0. -1.
         -4    1    6    6    0  503  0.35055782648E+03 -0.17414264602E+03 -0.66474353292E+03  0.77142751794E+03  0.00000000000E+00 0.  1.
<mgrwt>
<rscale>  0 0.76428539E+03</rscale>
<asrwt>0</asrwt>
<pdfrwt beam="1">  1        2 0.38859841E+00 0.76428539E+03</pdfrwt>
<pdfrwt beam="2">  1       -2 0.43772862E-01 0.76428539E+03</pdfrwt>
<totfact> 0.17387631E+01</totfact>
</mgrwt>
</event>
<event>
12    1  0.1338445E-007  0.1087782E+04  0.7818608E-02  0.9217182E-01
          1   -1    0    0  501    0  0.00000000000E+00  0.00000000000E+00  0.70786231663E+03  0.70786231663E+03  0.00000000000E+00 0. -1.
         -1   -1    0    0    0  501 -0.00000000000E+00 -0.00000000000E+00 -0.17727593305E+04  0.17727593305E+04  0.00000000000E+00 0.  1.
         23    2    1    2    0    0  0.92684777995E+03 -0.40217011173E+03 -0.75701287988E+03  0.12658398132E+04  0.92164670687E+02 0.  0.
    5000000    2    1    2    0    0 -0.92684777995E+03  0.40217011173E+03 -0.30788413400E+03  0.12147818339E+04  0.60009554074E+03 0.  0.
         23    2    4    4    0    0  0.64888497551E+02  0.49586556922E+02 -0.20517386627E+02  0.11981890692E+03  0.85242381236E+02 0.  0.
         23    2    4    4    0    0 -0.99173627750E+03  0.35258355481E+03 -0.28736674737E+03  0.10949629270E+04  0.92239669982E+02 0.  0.
          1    1    3    3  502    0  0.19256707372E+03 -0.51220065973E+02 -0.17630377931E+03  0.26606126294E+03  0.00000000000E+00 0. -1.
         -1    1    3    3    0  502  0.73428070623E+03 -0.35095004576E+03 -0.58070910057E+03  0.99977855030E+03  0.00000000000E+00 0.  1.
         11    1    5    5    0    0  0.59504076093E+02  0.31521900289E+01 -0.37130213222E+02  0.70209145470E+02  0.00000000000E+00 0. -1.
        -11    1    5    5    0    0  0.53844214572E+01  0.46434366893E+02  0.16612826596E+02  0.49609761446E+02  0.00000000000E+00 0.  1.
          3    1    6    6  503    0 -0.24316557248E+03  0.12685684993E+03 -0.60654092271E+02  0.28089335151E+03  0.00000000000E+00 0. -1.
         -3    1    6    6    0  503 -0.74857070502E+03  0.22572670488E+03 -0.22671265510E+03  0.81406957547E+03  0.00000000000E+00 0.  1.
<mgrwt>
<rscale>  0 0.10877824E+04</rscale>
<asrwt>0</asrwt>
<pdfrwt beam="1">  1        1 0.10890190E+00 0.10877824E+04</pdfrwt>
<pdfrwt beam="2">  1       -1 0.27273220E+00 0.10877824E+04</pdfrwt>
<totfact> 0.13274013E+00</totfact>
</mgrwt>
</event>
<event>
12    1  0.1338445E-007  0.1279831E+04  0.7818608E-02  0.9045714E-01
         -2   -1    0    0    0  501 -0.00000000000E+00  0.00000000000E+00  0.51789087671E+03  0.51789087671E+03  0.00000000000E+00 0. -1.
          2   -1    0    0  501    0  0.00000000000E+00 -0.00000000000E+00 -0.34090576966E+04  0.34090576966E+04  0.00000000000E+00 0.  1.
         23    2    1    2    0    0 -0.96993765324E+03 -0.80222881932E+03 -0.13198847004E+04  0.18261624402E+04  0.91779659077E+02 0.  0.
    5000000    2    1    2    0    0  0.96993765324E+03  0.80222881932E+03 -0.15712821194E+04  0.21007861331E+04  0.60002062329E+03 0.  0.
         23    2    4    4    0    0  0.84373153665E+03  0.76834350105E+03 -0.10433333295E+04  0.15489705658E+04  0.92361982550E+02 0.  0.
         23    2    4    4    0    0  0.12620611659E+03  0.33885318272E+02 -0.52794878998E+03  0.55181556728E+03  0.93243213133E+02 0.  0.
          3    1    3    3  502    0 -0.21293890781E+03 -0.13270852220E+03 -0.28434500311E+03  0.37921842138E+03  0.00000000000E+00 0. -1.
         -3    1    3    3    0  502 -0.75699874543E+03 -0.66952029712E+03 -0.10355396973E+04  0.14469440188E+04  0.00000000000E+00 0.  1.
         13    1    5    5    0    0  0.44773992323E+03  0.42118786434E+03 -0.50085773368E+03  0.79292416114E+03  0.00000000000E+00 0. -1.
        -13    1    5    5    0    0  0.39599161342E+03  0.34715563671E+03 -0.54247559578E+03  0.75604640467E+03  0.00000000000E+00 0.  1.
          3    1    6    6  503    0  0.61040168408E+02 -0.27822763490E+02 -0.16923584822E+03  0.18204609485E+03  0.00000000000E+00 0. -1.
         -3    1    6    6    0  503  0.65165948180E+02  0.61708081761E+02 -0.35871294176E+03  0.36976947243E+03  0.00000000000E+00 0.  1.
<mgrwt>
<rscale>  0 0.12798309E+04</rscale>
<asrwt>0</asrwt>
<pdfrwt beam="1">  1        2 0.52447044E+00 0.12798309E+04</pdfrwt>
<pdfrwt beam="2">  1       -2 0.79675516E-01 0.12798309E+04</pdfrwt>
<totfact> 0.12990602E+00</totfact>
</mgrwt>
</event>
<event>
12    1  0.1338445E-007  0.4417611E+03  0.7818608E-02  0.1030208E+00
         -2   -1    0    0    0  501 -0.00000000000E+00  0.00000000000E+00  0.57041947574E+03  0.57041947574E+03  0.00000000000E+00 0.  1.
          2   -1    0    0  501    0  0.00000000000E+00 -0.00000000000E+00 -0.68376535093E+03  0.68376535093E+03  0.00000000000E+00 0. -1.
         23    2    1    2    0    0  0.36868208624E+03  0.13953105505E+03  0.22232177967E+03  0.46174498540E+03  0.91575443190E+02 0.  0.
    5000000    2    1    2    0    0 -0.36868208624E+03 -0.13953105505E+03 -0.33566765485E+03  0.79243984126E+03  0.59991060290E+03 0.  0.
         23    2    4    4    0    0 -0.11716724471E+03  0.59976663482E+02 -0.42084610878E+03  0.45012633667E+03  0.90426258833E+02 0.  0.
         23    2    4    4    0    0 -0.25151484153E+03 -0.19950771854E+03  0.85178453934E+02  0.34231350460E+03  0.82825848323E+02 0.  0.
          2    1    3    3  502    0  0.27727301932E+03  0.78634354335E+02  0.12192076873E+03  0.31293507757E+03  0.00000000000E+00 0. -1.
         -2    1    3    3    0  502  0.91409066918E+02  0.60896700719E+02  0.10040101094E+03  0.14880990784E+03  0.00000000000E+00 0.  1.
         13    1    5    5    0    0 -0.89609432884E+02 -0.34530040552E+01 -0.26045832082E+03  0.27546380993E+03  0.00000000000E+00 0. -1.
        -13    1    5    5    0    0 -0.27557811824E+02  0.63429667537E+02 -0.16038778796E+03  0.17466252673E+03  0.00000000000E+00 0.  1.
          1    1    6    6  503    0 -0.24061036809E+03 -0.16841500202E+03  0.57477235542E+02  0.29926676184E+03  0.00000000000E+00 0. -1.
         -1    1    6    6    0  503 -0.10904473436E+02 -0.31092716516E+02  0.27701218392E+02  0.43046742753E+02  0.00000000000E+00 0.  1.
<mgrwt>
<rscale>  0 0.44176113E+03</rscale>
<asrwt>0</asrwt>
<pdfrwt beam="1">  1        2 0.10519467E+00 0.44176113E+03</pdfrwt>
<pdfrwt beam="2">  1       -2 0.87756843E-01 0.44176113E+03</pdfrwt>
<totfact> 0.49323914E+01</totfact>
</mgrwt>
</event>
<event>
12    1  0.1338445E-007  0.7472746E+03  0.7818608E-02  0.9639636E-01
          2   -1    0    0  501    0  0.00000000000E+00  0.00000000000E+00  0.18538417419E+04  0.18538417419E+04  0.00000000000E+00 0. -1.
         -2   -1    0    0    0  501 -0.00000000000E+00 -0.00000000000E+00 -0.40435185520E+03  0.40435185520E+03  0.00000000000E+00 0.  1.
         23    2    1    2    0    0  0.26288135645E+03  0.63890424126E+03  0.23095073705E+03  0.73434050643E+03  0.92803552597E+02 0.  0.
    5000000    2    1    2    0    0 -0.26288135645E+03 -0.63890424126E+03  0.12185391497E+04  0.15238530907E+04  0.59998778791E+03 0.  0.
         23    2    4    4    0    0 -0.64102651552E+02  0.15495543206E+02 -0.12226981865E+02  0.11308287786E+03  0.91043815734E+02 0.  0.
         23    2    4    4    0    0 -0.19877870490E+03 -0.65439978447E+03  0.12307661316E+04  0.14107702128E+04  0.87950391882E+02 0.  0.
          3    1    3    3  502    0  0.18676285906E+03  0.33686415697E+03  0.11497828332E+03  0.40196745068E+03  0.00000000000E+00 0. -1.
         -3    1    3    3    0  502  0.76118497392E+02  0.30204008429E+03  0.11597245373E+03  0.33237305575E+03  0.00000000000E+00 0.  1.
         13    1    5    5    0    0  0.43790982992E+01 -0.29887156458E+02 -0.49182652111E+01  0.30604051297E+02  0.00000000000E+00 0.  1.
        -13    1    5    5    0    0 -0.68481749851E+02  0.45382699664E+02 -0.73087166538E+01  0.82478826560E+02  0.00000000000E+00 0. -1.
          3    1    6    6  503    0 -0.15580505312E+03 -0.43747196608E+03  0.75999709863E+03  0.89064725093E+03  0.00000000000E+00 0. -1.
         -3    1    6    6    0  503 -0.42973651781E+02 -0.21692781839E+03  0.47076903293E+03  0.52012296191E+03  0.00000000000E+00 0.  1.
<mgrwt>
<rscale>  0 0.74727461E+03</rscale>
<asrwt>0</asrwt>
<pdfrwt beam="1">  1        2 0.28520642E+00 0.74727461E+03</pdfrwt>
<pdfrwt beam="2">  1       -2 0.62207979E-01 0.74727461E+03</pdfrwt>
<totfact> 0.19923767E+01</totfact>
</mgrwt>
</event>
<event>
12    1  0.1594799E-007  0.1397716E+04  0.7818608E-02  0.8955474E-01
          2   -1    0    0  501    0  0.00000000000E+00  0.00000000000E+00  0.28079201006E+04  0.28079201006E+04  0.00000000000E+00 0. -1.
         -2   -1    0    0    0  501 -0.00000000000E+00 -0.00000000000E+00 -0.10640660108E+04  0.10640660108E+04  0.00000000000E+00 0.  1.
         23    2    1    2    0    0  0.13607382836E+04 -0.25011993919E+03 -0.21167804021E+03  0.14025599235E+04  0.90543280370E+02 0.  0.
    5000000    2    1    2    0    0 -0.13607382836E+04  0.25011993919E+03  0.19555321300E+04  0.24694261879E+04  0.59982591263E+03 0.  0.
         23    2    4    4    0    0 -0.70850118691E+03  0.80172999840E+01  0.14106897578E+04  0.15811946701E+04  0.89959896192E+02 0.  0.
         23    2    4    4    0    0 -0.65223709673E+03  0.24210263920E+03  0.54484237219E+03  0.88823151782E+03  0.89861562781E+02 0.  0.
          1    1    3    3  502    0  0.51298384542E+03 -0.12361902284E+03 -0.47143514122E+02  0.52977032702E+03  0.00000000000E+00 0. -1.
         -1    1    3    3    0  502  0.84775443822E+03 -0.12650091635E+03 -0.16453452609E+03  0.87278959643E+03  0.00000000000E+00 0.  1.
         11    1    5    5    0    0 -0.20335278889E+03 -0.38087061409E+02  0.39689769185E+03  0.44758324230E+03  0.00000000000E+00 0.  1.
        -11    1    5    5    0    0 -0.50514839803E+03  0.46104361393E+02  0.10137920660E+04  0.11336114278E+04  0.00000000000E+00 0. -1.
          1    1    6    6  503    0 -0.19516501287E+03  0.88502767334E+02  0.12013920063E+03  0.24567366485E+03  0.00000000000E+00 0. -1.
         -1    1    6    6    0  503 -0.45707208385E+03  0.15359987187E+03  0.42470317156E+03  0.64255785297E+03  0.00000000000E+00 0.  1.
<mgrwt>
<rscale>  0 0.13977155E+04</rscale>
<asrwt>0</asrwt>
<pdfrwt beam="1">  1        2 0.43198770E+00 0.13977155E+04</pdfrwt>
<pdfrwt beam="2">  1       -2 0.16370246E+00 0.13977155E+04</pdfrwt>
<totfact> 0.51726675E-01</totfact>
</mgrwt>
</event>
<event>
12    1  0.1338445E-007  0.7073107E+03  0.7818608E-02  0.9704811E-01
          1   -1    0    0  501    0  0.00000000000E+00  0.00000000000E+00  0.53723984439E+03  0.53723984439E+03  0.00000000000E+00 0. -1.
         -1   -1    0    0    0  501 -0.00000000000E+00 -0.00000000000E+00 -0.12055252672E+04  0.12055252672E+04  0.00000000000E+00 0.  1.
         23    2    1    2    0    0  0.44462378542E+03 -0.52066195854E+03 -0.37868827054E+03  0.78742636686E+03  0.88635722687E+02 0.  0.
    5000000    2    1    2    0    0 -0.44462378542E+03  0.52066195854E+03 -0.28959715230E+03  0.95533874476E+03  0.60002201708E+03 0.  0.
         23    2    4    4    0    0 -0.86194924175E+02  0.25977607165E+03 -0.39659534365E+03  0.49061600222E+03  0.92211835879E+02 0.  0.
         23    2    4    4    0    0 -0.35842886125E+03  0.26088588689E+03  0.10699819135E+03  0.46472274254E+03  0.89363974441E+02 0.  0.
          3    1    3    3  502    0  0.20054637755E+03 -0.29695778297E+03 -0.17596511658E+03  0.39920733543E+03  0.00000000000E+00 0. -1.
         -3    1    3    3    0  502  0.24407740788E+03 -0.22370417558E+03 -0.20272315396E+03  0.38821903142E+03  0.00000000000E+00 0.  1.
         11    1    5    5    0    0 -0.91868086147E+02  0.23184195710E+03 -0.38728408730E+03  0.46062935490E+03  0.00000000000E+00 0.  1.
        -11    1    5    5    0    0  0.56731619716E+01  0.27934114554E+02 -0.93112563507E+01  0.29986647320E+02  0.00000000000E+00 0. -1.
          4    1    6    6  503    0  0.88435305099E+00  0.77296536239E+01  0.13146593723E+02  0.15276208691E+02  0.00000000000E+00 0. -1.
         -4    1    6    6    0  503 -0.35931321430E+03  0.25315623327E+03  0.93851597623E+02  0.44944653385E+03  0.00000000000E+00 0.  1.
<mgrwt>
<rscale>  0 0.70731073E+03</rscale>
<asrwt>0</asrwt>
<pdfrwt beam="1">  1        1 0.82652285E-01 0.70731073E+03</pdfrwt>
<pdfrwt beam="2">  1       -1 0.18546542E+00 0.70731073E+03</pdfrwt>
<totfact> 0.79210211E+00</totfact>
</mgrwt>
</event>
<event>
12    1  0.1338445E-007  0.1564860E+04  0.7818608E-02  0.8842432E-01
          2   -1    0    0  501    0  0.00000000000E+00  0.00000000000E+00  0.43438025412E+04  0.43438025412E+04  0.00000000000E+00 0.  1.
         -2   -1    0    0    0  501 -0.00000000000E+00 -0.00000000000E+00 -0.59148470693E+03  0.59148470693E+03  0.00000000000E+00 0. -1.
         23    2    1    2    0    0 -0.46164465323E+03 -0.14603712546E+04  0.15006092984E+04  0.21467252688E+04  0.10392846519E+03 0.  0.
    5000000    2    1    2    0    0  0.46164465323E+03  0.14603712546E+04  0.22517085359E+04  0.27885619794E+04  0.60007215833E+03 0.  0.
         23    2    4    4    0    0  0.25580507873E+02  0.81926253574E+03  0.14591362660E+04  0.16761125005E+04  0.91809621160E+02 0.  0.
         23    2    4    4    0    0  0.43606414536E+03  0.64110871889E+03  0.79257226986E+03  0.11124494789E+04  0.90557782334E+02 0.  0.
          3    1    3    3  502    0 -0.45303296005E+03 -0.14206714294E+04  0.14345428947E+04  0.20691687920E+04  0.00000000000E+00 0. -1.
         -3    1    3    3    0  502 -0.86116931835E+01 -0.39699825213E+02  0.66066403723E+02  0.77556476726E+02  0.00000000000E+00 0.  1.
         11    1    5    5    0    0  0.28908342681E+02  0.13414000476E+03  0.19822296685E+03  0.24108417149E+03  0.00000000000E+00 0. -1.
        -11    1    5    5    0    0 -0.33278348087E+01  0.68512253098E+03  0.12609132992E+04  0.14350283290E+04  0.00000000000E+00 0.  1.
          3    1    6    6  503    0  0.46048564497E+02  0.78685740199E+02  0.13804873113E+03  0.16543690087E+03  0.00000000000E+00 0. -1.
         -3    1    6    6    0  503  0.39001558086E+03  0.56242297869E+03  0.65452353874E+03  0.94701257807E+03  0.00000000000E+00 0.  1.
<mgrwt>
<rscale>  0 0.15648599E+04</rscale>
<asrwt>0</asrwt>
<pdfrwt beam="1">  1        2 0.66827729E+00 0.15648599E+04</pdfrwt>
<pdfrwt beam="2">  1       -2 0.90997650E-01 0.15648599E+04</pdfrwt>
<totfact> 0.17298800E-01</totfact>
</mgrwt>
</event>
<event>
12    1  0.1338445E-007  0.3909442E+03  0.7818608E-02  0.1046961E+00
          2   -1    0    0  501    0  0.00000000000E+00  0.00000000000E+00  0.20831210894E+04  0.20831210894E+04  0.00000000000E+00 0. -1.
         -2   -1    0    0    0  501 -0.00000000000E+00 -0.00000000000E+00 -0.16556613073E+03  0.16556613073E+03  0.00000000000E+00 0.  1.
         23    2    1    2    0    0 -0.11413060918E+03 -0.30926584182E+03  0.19093018998E+03  0.39131195835E+03  0.89440228266E+02 0.  0.
    5000000    2    1    2    0    0  0.11413060918E+03  0.30926584182E+03  0.17266247687E+04  0.18573752618E+04  0.59994884309E+03 0.  0.
         23    2    4    4    0    0  0.20544359290E+03  0.24930160742E+03  0.16703468082E+04  0.17038105388E+04  0.92485301128E+02 0.  0.
         23    2    4    4    0    0 -0.91312983721E+02  0.59964234402E+02  0.56277960485E+02  0.15356472303E+03  0.92093131772E+02 0.  0.
          1    1    3    3  502    0 -0.22859799530E+02 -0.75909791229E+02  0.93202124597E+02  0.12235809278E+03  0.00000000000E+00 0. -1.
         -1    1    3    3    0  502 -0.91270809651E+02 -0.23335605059E+03  0.97728065383E+02  0.26895386557E+03  0.00000000000E+00 0.  1.
         11    1    5    5    0    0  0.64950405326E+01  0.48975213705E+02  0.16584998595E+03  0.17305194292E+03  0.00000000000E+00 0. -1.
        -11    1    5    5    0    0  0.19894855237E+03  0.20032639371E+03  0.15044968223E+04  0.15307585958E+04  0.00000000000E+00 0.  1.
          1    1    6    6  503    0 -0.49254932684E+02  0.60789199795E+02  0.74210422783E+02  0.10783581063E+03  0.00000000000E+00 0. -1.
         -1    1    6    6    0  503 -0.42058051037E+02 -0.82496539293E+00 -0.17932462298E+02  0.45728912397E+02  0.00000000000E+00 0.  1.
<mgrwt>
<rscale>  0 0.39094420E+03</rscale>
<asrwt>0</asrwt>
<pdfrwt beam="1">  1        2 0.32048015E+00 0.39094420E+03</pdfrwt>
<pdfrwt beam="2">  1       -2 0.25471714E-01 0.39094420E+03</pdfrwt>
<totfact> 0.90365030E+01</totfact>
</mgrwt>
</event>
<event>
12    1  0.1338445E-007  0.9149946E+03  0.7818608E-02  0.9407029E-01
         -1   -1    0    0    0  501 -0.00000000000E+00  0.00000000000E+00  0.88243724347E+03  0.88243724347E+03  0.00000000000E+00 0.  1.
          1   -1    0    0  501    0  0.00000000000E+00 -0.00000000000E+00 -0.14995461489E+04  0.14995461489E+04  0.00000000000E+00 0. -1.
         23    2    1    2    0    0 -0.74359018812E+03 -0.34684312306E+03  0.42316254389E+03  0.92754101174E+03  0.89661976434E+02 0.  0.
    5000000    2    1    2    0    0  0.74359018812E+03  0.34684312306E+03 -0.10402714493E+04  0.14544423806E+04  0.60000952527E+03 0.  0.
         23    2    4    4    0    0  0.33844061168E+03 -0.13236956850E+03 -0.30021043492E+03  0.47978485186E+03  0.89461994954E+02 0.  0.
         23    2    4    4    0    0  0.40514957644E+03  0.47921269156E+03 -0.74006101436E+03  0.97465752874E+03  0.92065250281E+02 0.  0.
          3    1    3    3  502    0 -0.87046115065E+02 -0.14869968035E+02  0.62533227426E+02  0.10820603786E+03  0.00000000000E+00 0. -1.
         -3    1    3    3    0  502 -0.65654407306E+03 -0.33197315502E+03  0.36062931647E+03  0.81933497388E+03  0.00000000000E+00 0.  1.
         13    1    5    5    0    0  0.10442198144E+03 -0.85696713606E+02 -0.96219377660E+02  0.16584946659E+03  0.00000000000E+00 0. -1.
        -13    1    5    5    0    0  0.23401863024E+03 -0.46672854896E+02 -0.20399105726E+03  0.31393538528E+03  0.00000000000E+00 0.  1.
          2    1    6    6  503    0  0.94366990544E+02  0.16653703895E+03 -0.26030307963E+03  0.32310587663E+03  0.00000000000E+00 0. -1.
         -2    1    6    6    0  503  0.31078258590E+03  0.31267565261E+03 -0.47975793473E+03  0.65155165211E+03  0.00000000000E+00 0.  1.
<mgrwt>
<rscale>  0 0.91499456E+03</rscale>
<asrwt>0</asrwt>
<pdfrwt beam="1">  1        1 0.23069941E+00 0.91499456E+03</pdfrwt>
<pdfrwt beam="2">  1       -1 0.13575958E+00 0.91499456E+03</pdfrwt>
<totfact> 0.30236300E+00</totfact>
</mgrwt>
</event>
<event>
12    1  0.1338445E-007  0.1801757E+04  0.7818608E-02  0.8705366E-01
          1   -1    0    0  501    0  0.00000000000E+00  0.00000000000E+00  0.23409983565E+04  0.23409983565E+04  0.00000000000E+00 0. -1.
         -1   -1    0    0    0  501 -0.00000000000E+00 -0.00000000000E+00 -0.16434025748E+04  0.16434025748E+04  0.00000000000E+00 0.  1.
         23    2    1    2    0    0 -0.13941725720E+04  0.11186731644E+04  0.10371430622E+04  0.20685903428E+04  0.90848587467E+02 0.  0.
    5000000    2    1    2    0    0  0.13941725720E+04 -0.11186731644E+04 -0.33954728043E+03  0.19158105884E+04  0.59990919797E+03 0.  0.
         23    2    4    4    0    0  0.76532687063E+03 -0.77301559580E+03 -0.45541191657E+03  0.11828346069E+04  0.91757087828E+02 0.  0.
         23    2    4    4    0    0  0.62884570136E+03 -0.34565756861E+03  0.11586463614E+03  0.73297598156E+03  0.94356265254E+02 0.  0.
          3    1    3    3  502    0 -0.21905697119E+03  0.21784305173E+03  0.16755248982E+03  0.35144756175E+03  0.00000000000E+00 0. -1.
         -3    1    3    3    0  502 -0.11751156008E+04  0.90083011267E+03  0.86959057234E+03  0.17171427811E+04  0.00000000000E+00 0.  1.
         13    1    5    5    0    0  0.12097981428E+03 -0.81148758827E+02 -0.48413266962E+02  0.15350922103E+03  0.00000000000E+00 0.  1.
        -13    1    5    5    0    0  0.64434705634E+03 -0.69186683697E+03 -0.40699864961E+03  0.10293253858E+04  0.00000000000E+00 0. -1.
          3    1    6    6  503    0  0.42689101506E+03 -0.18741352512E+03  0.92886420892E+02  0.47538158917E+03  0.00000000000E+00 0. -1.
         -3    1    6    6    0  503  0.20195468629E+03 -0.15824404349E+03  0.22978215245E+02  0.25759439239E+03  0.00000000000E+00 0.  1.
<mgrwt>
<rscale>  0 0.18017566E+04</rscale>
<asrwt>0</asrwt>
<pdfrwt beam="1">  1        1 0.36015359E+00 0.18017566E+04</pdfrwt>
<pdfrwt beam="2">  1       -1 0.25283117E+00 0.18017566E+04</pdfrwt>
<totfact> 0.10610891E-01</totfact>
</mgrwt>
</event>
<event>
12    1  0.1578045E-007  0.1889596E+04  0.7818608E-02  0.8660052E-01
          2   -1    0    0  501    0  0.00000000000E+00  0.00000000000E+00  0.28988885267E+04  0.28988885267E+04  0.00000000000E+00 0. -1.
         -2   -1    0    0    0  501 -0.00000000000E+00 -0.00000000000E+00 -0.12445346396E+04  0.12445346396E+04  0.00000000000E+00 0.  1.
         23    2    1    2    0    0  0.83035065387E+03  0.16522344789E+04  0.71979015643E+03  0.19864016177E+04  0.91282724630E+02 0.  0.
    5000000    2    1    2    0    0 -0.83035065387E+03 -0.16522344789E+04  0.93456373071E+03  0.21570215486E+04  0.59997634332E+03 0.  0.
         23    2    4    4    0    0 -0.89575993853E+03 -0.13840820895E+04  0.75899664157E+03  0.18172111890E+04  0.90063897541E+02 0.  0.
         23    2    4    4    0    0  0.65409284654E+02 -0.26815238938E+03  0.17556708913E+03  0.33981035952E+03  0.91995647743E+02 0.  0.
          1    1    3    3  502    0  0.46910217442E+03  0.87008142513E+03  0.42270257852E+03  0.10750702332E+04  0.00000000000E+00 0. -1.
         -1    1    3    3    0  502  0.36124847945E+03  0.78215305376E+03  0.29708757791E+03  0.91133138449E+03  0.00000000000E+00 0.  1.
         11    1    5    5    0    0 -0.32373210827E+03 -0.58137275385E+03  0.30879022075E+03  0.73358582134E+03  0.00000000000E+00 0.  1.
        -11    1    5    5    0    0 -0.57202783025E+03 -0.80270933567E+03  0.45020642082E+03  0.10836253677E+04  0.00000000000E+00 0. -1.
          3    1    6    6  503    0  0.30309914500E+02 -0.62872702494E+02  0.38778283167E+01  0.69904972558E+02  0.00000000000E+00 0. -1.
         -3    1    6    6    0  503  0.35099370154E+02 -0.20527968688E+03  0.17168926082E+03  0.26990538696E+03  0.00000000000E+00 0.  1.
<mgrwt>
<rscale>  0 0.18895963E+04</rscale>
<asrwt>0</asrwt>
<pdfrwt beam="1">  1        2 0.44598285E+00 0.18895963E+04</pdfrwt>
<pdfrwt beam="2">  1       -2 0.19146687E+00 0.18895963E+04</pdfrwt>
<totfact> 0.27576225E-01</totfact>
</mgrwt>
</event>
<event>
12    1  0.1338445E-007  0.6674229E+03  0.7818608E-02  0.9774625E-01
          1   -1    0    0  501    0  0.00000000000E+00  0.00000000000E+00  0.10345787623E+04  0.10345787623E+04  0.00000000000E+00 0. -1.
         -1   -1    0    0    0  501 -0.00000000000E+00 -0.00000000000E+00 -0.57904180522E+03  0.57904180522E+03  0.00000000000E+00 0.  1.
         23    2    1    2    0    0  0.17854977114E+03 -0.61699367469E+03  0.65776463853E+02  0.65206598241E+03  0.91116885594E+02 0.  0.
    5000000    2    1    2    0    0 -0.17854977114E+03  0.61699367469E+03  0.38976049322E+03  0.96155458510E+03  0.60009396154E+03 0.  0.
         23    2    4    4    0    0 -0.89933461438E+02  0.10501742863E+03  0.40184185983E+03  0.43398770431E+03  0.88044076306E+02 0.  0.
         23    2    4    4    0    0 -0.88616309703E+02  0.51197624606E+03 -0.12081366617E+02  0.52756688080E+03  0.90599820163E+02 0.  0.
          1    1    3    3  502    0  0.10004781511E+03 -0.26540263888E+03  0.68579084354E+02  0.29180681425E+03  0.00000000000E+00 0. -1.
         -1    1    3    3    0  502  0.78501956034E+02 -0.35159103581E+03 -0.28026205011E+01  0.36025916816E+03  0.00000000000E+00 0.  1.
         13    1    5    5    0    0  0.17394711638E+02  0.21395246758E+02  0.77729740368E+02  0.82475724395E+02  0.00000000000E+00 0. -1.
        -13    1    5    5    0    0 -0.10732817308E+03  0.83622181870E+02  0.32411211947E+03  0.35151197991E+03  0.00000000000E+00 0.  1.
          3    1    6    6  503    0  0.25056202791E+01  0.24904401583E+03 -0.10774027962E+02  0.24928954979E+03  0.00000000000E+00 0. -1.
         -3    1    6    6    0  503 -0.91121929982E+02  0.26293223023E+03 -0.13073386544E+01  0.27827733101E+03  0.00000000000E+00 0.  1.
<mgrwt>
<rscale>  0 0.66742295E+03</rscale>
<asrwt>0</asrwt>
<pdfrwt beam="1">  1        1 0.15916596E+00 0.66742295E+03</pdfrwt>
<pdfrwt beam="2">  1       -1 0.89083355E-01 0.66742295E+03</pdfrwt>
<totfact> 0.18297561E+01</totfact>
</mgrwt>
</event>
<event>
12    1  0.1338445E-007  0.7901524E+03  0.7818608E-02  0.9574381E-01
          1   -1    0    0  501    0  0.00000000000E+00  0.00000000000E+00  0.26553381314E+04  0.26553381314E+04  0.00000000000E+00 0. -1.
         -1   -1    0    0    0  501 -0.00000000000E+00 -0.00000000000E+00 -0.29863836529E+03  0.29863836529E+03  0.00000000000E+00 0.  1.
         23    2    1    2    0    0  0.74702316265E+03 -0.17466285770E+02  0.14545163753E+04  0.16377702309E+04  0.91240158543E+02 0.  0.
    5000000    2    1    2    0    0 -0.74702316265E+03  0.17466285770E+02  0.90218339075E+03  0.13162062657E+04  0.60009614791E+03 0.  0.
         23    2    4    4    0    0 -0.68657381891E+03  0.11134557465E+03  0.43162367887E+03  0.82381064161E+03  0.92647327371E+02 0.  0.
         23    2    4    4    0    0 -0.60449343738E+02 -0.93879288878E+02  0.47055971189E+03  0.49239562412E+03  0.92517912680E+02 0.  0.
          3    1    3    3  502    0  0.48026407206E+03  0.10253172450E+02  0.10140581050E+04  0.11220840194E+04  0.00000000000E+00 0. -1.
         -3    1    3    3    0  502  0.26675909058E+03 -0.27719458219E+02  0.44045827038E+03  0.51568621149E+03  0.00000000000E+00 0.  1.
         11    1    5    5    0    0 -0.36922007956E+03  0.98319181028E+02  0.26637194976E+03  0.46577263136E+03  0.00000000000E+00 0. -1.
        -11    1    5    5    0    0 -0.31735373935E+03  0.13026393619E+02  0.16525172911E+03  0.35803801025E+03  0.00000000000E+00 0.  1.
          1    1    6    6  503    0 -0.43920583397E+02 -0.80875878503E+01  0.26947308805E+03  0.27314862604E+03  0.00000000000E+00 0. -1.
         -1    1    6    6    0  503 -0.16528760340E+02 -0.85791701027E+02  0.20108662384E+03  0.21924699809E+03  0.00000000000E+00 0.  1.
<mgrwt>
<rscale>  0 0.79015243E+03</rscale>
<asrwt>0</asrwt>
<pdfrwt beam="1">  1        1 0.40851354E+00 0.79015243E+03</pdfrwt>
<pdfrwt beam="2">  1       -1 0.45944366E-01 0.79015243E+03</pdfrwt>
<totfact> 0.52371077E+00</totfact>
</mgrwt>
</event>
<event>
12    1  0.1338445E-007  0.3591223E+03  0.7818608E-02  0.1058932E+00
         -2   -1    0    0    0  501 -0.00000000000E+00  0.00000000000E+00  0.13774357672E+03  0.13774357672E+03  0.00000000000E+00 0.  1.
          2   -1    0    0  501    0  0.00000000000E+00 -0.00000000000E+00 -0.10440435452E+04  0.10440435452E+04  0.00000000000E+00 0. -1.
         23    2    1    2    0    0  0.29186945415E+02  0.11475707902E+03 -0.15296791818E+03  0.21154680943E+03  0.85625951800E+02 0.  0.
    5000000    2    1    2    0    0 -0.29186945415E+02 -0.11475707902E+03 -0.75333205028E+03  0.97024031247E+03  0.59986333526E+03 0.  0.
         23    2    4    4    0    0  0.18948350620E+03  0.13445426820E+03 -0.44487899227E+03  0.50826177858E+03  0.80192072205E+02 0.  0.
         23    2    4    4    0    0 -0.21867045161E+03 -0.24921134721E+03 -0.30845305801E+03  0.46197853389E+03  0.91421085042E+02 0.  0.
          2    1    3    3  502    0 -0.61133750996E+01  0.93209811928E+02 -0.63405654426E+02  0.11289694154E+03  0.00000000000E+00 0.  1.
         -2    1    3    3    0  502  0.35300320515E+02  0.21547267089E+02 -0.89562263754E+02  0.98649867898E+02  0.00000000000E+00 0. -1.
         11    1    5    5    0    0  0.16855753533E+03  0.13898688225E+03 -0.42959453050E+03  0.48195482858E+03  0.00000000000E+00 0. -1.
        -11    1    5    5    0    0  0.20925970863E+02 -0.45326140548E+01 -0.15284461774E+02  0.26306950003E+02  0.00000000000E+00 0.  1.
          4    1    6    6  503    0 -0.20766022986E+03 -0.18396322829E+03 -0.25677296238E+03  0.37801798190E+03  0.00000000000E+00 0. -1.
         -4    1    6    6    0  503 -0.11010221747E+02 -0.65248118923E+02 -0.51680095626E+02  0.83960551986E+02  0.00000000000E+00 0.  1.
<mgrwt>
<rscale>  0 0.35912229E+03</rscale>
<asrwt>0</asrwt>
<pdfrwt beam="1">  1        2 0.16062208E+00 0.35912229E+03</pdfrwt>
<pdfrwt beam="2">  1       -2 0.21191320E-01 0.35912229E+03</pdfrwt>
<totfact> 0.46819526E+02</totfact>
</mgrwt>
</event>
<event>
12    1  0.1338445E-007  0.7935908E+03  0.7818608E-02  0.9569341E-01
          2   -1    0    0  501    0  0.00000000000E+00  0.00000000000E+00  0.78243819327E+03  0.78243819327E+03  0.00000000000E+00 0. -1.
         -2   -1    0    0    0  501 -0.00000000000E+00 -0.00000000000E+00 -0.11947924825E+04  0.11947924825E+04  0.00000000000E+00 0.  1.
         23    2    1    2    0    0 -0.70925271161E+03  0.25843521920E+03  0.25818501916E+03  0.80261809831E+03  0.87795991787E+02 0.  0.
    5000000    2    1    2    0    0  0.70925271161E+03 -0.25843521920E+03 -0.67053930841E+03  0.11746125775E+04  0.60021960279E+03 0.  0.
         23    2    4    4    0    0  0.69253871752E+03 -0.27603106348E+03 -0.74364053870E+03  0.10569499869E+04  0.91318129212E+02 0.  0.
         23    2    4    4    0    0  0.16713994083E+02  0.17595844279E+02  0.73101230290E+02  0.11766259057E+03  0.88947872469E+02 0.  0.
          3    1    3    3  502    0 -0.32954480524E+03  0.10546053562E+03  0.74530869092E+02  0.35394428047E+03  0.00000000000E+00 0. -1.
         -3    1    3    3    0  502 -0.37970790637E+03  0.15297468358E+03  0.18365415007E+03  0.44867381784E+03  0.00000000000E+00 0.  1.
         13    1    5    5    0    0  0.16871514022E+03 -0.99811784822E+02 -0.15871860750E+03  0.25222764975E+03  0.00000000000E+00 0.  1.
        -13    1    5    5    0    0  0.52382357730E+03 -0.17621927865E+03 -0.58492193119E+03  0.80472233714E+03  0.00000000000E+00 0. -1.
          3    1    6    6  503    0  0.44896464144E+02  0.28177655812E+02  0.20062139616E+02  0.56675940448E+02  0.00000000000E+00 0. -1.
         -3    1    6    6    0  503 -0.28182470061E+02 -0.10581811533E+02  0.53039090674E+02  0.60986650126E+02  0.00000000000E+00 0.  1.
<mgrwt>
<rscale>  0 0.79359076E+03</rscale>
<asrwt>0</asrwt>
<pdfrwt beam="1">  1        2 0.12037511E+00 0.79359076E+03</pdfrwt>
<pdfrwt beam="2">  1       -2 0.18381423E+00 0.79359076E+03</pdfrwt>
<totfact> 0.61406670E+00</totfact>
</mgrwt>
</event>
<event>
12    1  0.1338445E-007  0.3774099E+03  0.7818608E-02  0.1051895E+00
          1   -1    0    0  501    0  0.00000000000E+00  0.00000000000E+00  0.27105592489E+04  0.27105592489E+04  0.00000000000E+00 0. -1.
         -1   -1    0    0    0  501 -0.00000000000E+00 -0.00000000000E+00 -0.10635572901E+03  0.10635572901E+03  0.00000000000E+00 0.  1.
         23    2    1    2    0    0 -0.27858012955E+03 -0.18635304284E+03  0.12661686608E+04  0.13128593273E+04  0.89901005173E+02 0.  0.
    5000000    2    1    2    0    0  0.27858012955E+03  0.18635304284E+03  0.13380348592E+04  0.15040556506E+04  0.59959300415E+03 0.  0.
         23    2    4    4    0    0  0.19375980773E+03  0.21778907945E+03  0.21655746841E+03  0.37468410848E+03  0.92282705867E+02 0.  0.
         23    2    4    4    0    0  0.84820321817E+02 -0.31436036608E+02  0.11214773908E+04  0.11293715421E+04  0.97907256126E+02 0.  0.
          4    1    3    3  502    0 -0.24552830882E+03 -0.17465137734E+03  0.10004822461E+04  0.10448693596E+04  0.00000000000E+00 0. -1.
         -4    1    3    3    0  502 -0.33051820726E+02 -0.11701665508E+02  0.26568641472E+03  0.26798996772E+03  0.00000000000E+00 0.  1.
         11    1    5    5    0    0  0.19719661091E+03  0.21382458750E+03  0.18957798478E+03  0.34719917898E+03  0.00000000000E+00 0. -1.
        -11    1    5    5    0    0 -0.34368031789E+01  0.39644919525E+01  0.26979483626E+02  0.27484929493E+02  0.00000000000E+00 0.  1.
          2    1    6    6  503    0  0.33116121001E+01  0.23695033855E+02  0.87170521453E+02  0.90394254322E+02  0.00000000000E+00 0. -1.
         -2    1    6    6    0  503  0.81508709717E+02 -0.55131070462E+02  0.10343068693E+04  0.10389772878E+04  0.00000000000E+00 0.  1.
<mgrwt>
<rscale>  0 0.37740992E+03</rscale>
<asrwt>0</asrwt>
<pdfrwt beam="1">  1        1 0.41700906E+00 0.37740992E+03</pdfrwt>
<pdfrwt beam="2">  1       -1 0.16362422E-01 0.37740992E+03</pdfrwt>
<totfact> 0.31067339E+01</totfact>
</mgrwt>
</event>
<event>
12    1  0.1338445E-007  0.9907441E+03  0.7818608E-02  0.9318755E-01
         -2   -1    0    0    0  501 -0.00000000000E+00  0.00000000000E+00  0.10115601524E+04  0.10115601524E+04  0.00000000000E+00 0.  1.
          2   -1    0    0  501    0  0.00000000000E+00 -0.00000000000E+00 -0.13099320884E+04  0.13099320884E+04  0.00000000000E+00 0. -1.
         23    2    1    2    0    0 -0.83501147869E+03 -0.51646506862E+03  0.29213544079E+03  0.10282131809E+04  0.88875716552E+02 0.  0.
    5000000    2    1    2    0    0  0.83501147869E+03  0.51646506862E+03 -0.59050737678E+03  0.12932790599E+04  0.59990951657E+03 0.  0.
         23    2    4    4    0    0  0.31188801070E+03  0.20124177241E+03 -0.55673581090E+03  0.67525494244E+03  0.90785967923E+02 0.  0.
         23    2    4    4    0    0  0.52312346799E+03  0.31522329622E+03 -0.33771565871E+02  0.61802411744E+03  0.88257588007E+02 0.  0.
          1    1    3    3  502    0 -0.29985636094E+03 -0.21736074912E+03  0.14507929820E+03  0.39775310837E+03  0.00000000000E+00 0. -1.
         -1    1    3    3    0  502 -0.53515511774E+03 -0.29910431951E+03  0.14705614260E+03  0.63046007254E+03  0.00000000000E+00 0.  1.
         13    1    5    5    0    0  0.86620023962E+02  0.10470059432E+03 -0.22412142899E+03  0.26209856530E+03  0.00000000000E+00 0. -1.
        -13    1    5    5    0    0  0.22526798673E+03  0.96541178090E+02 -0.33261438191E+03  0.41315637714E+03  0.00000000000E+00 0.  1.
          2    1    6    6  503    0  0.10825518505E+03  0.25907970961E+02 -0.53598710217E+01  0.11144117851E+03  0.00000000000E+00 0. -1.
         -2    1    6    6    0  503  0.41486828294E+03  0.28931532526E+03 -0.28411694849E+02  0.50658293894E+03  0.00000000000E+00 0.  1.
<mgrwt>
<rscale>  0 0.99074412E+03</rscale>
<asrwt>0</asrwt>
<pdfrwt beam="1">  1        2 0.20152801E+00 0.99074412E+03</pdfrwt>
<pdfrwt beam="2">  1       -2 0.15562464E+00 0.99074412E+03</pdfrwt>
<totfact> 0.43971793E+00</totfact>
</mgrwt>
</event>
<event>
12    1  0.1338445E-007  0.5426554E+03  0.7818608E-02  0.1003208E+00
          1   -1    0    0  501    0  0.00000000000E+00  0.00000000000E+00  0.66386907233E+03  0.66386907233E+03  0.00000000000E+00 0. -1.
         -1   -1    0    0    0  501 -0.00000000000E+00 -0.00000000000E+00 -0.49913191670E+03  0.49913191670E+03  0.00000000000E+00 0.  1.
         23    2    1    2    0    0 -0.27861155977E+03 -0.30313949583E+03  0.94419518948E+02  0.43192882760E+03  0.90163803079E+02 0.  0.
    5000000    2    1    2    0    0  0.27861155977E+03  0.30313949583E+03  0.70317636687E+02  0.73107216142E+03  0.60000331667E+03 0.  0.
         23    2    4    4    0    0 -0.15588827147E+03  0.29182214899E+02  0.10064552073E+03  0.20881054460E+03  0.91211665060E+02 0.  0.
         23    2    4    4    0    0  0.43449983124E+03  0.27395728093E+03 -0.30327884048E+02  0.52226161683E+03  0.89413202258E+02 0.  0.
          2    1    3    3  502    0 -0.14326293071E+03 -0.14444354326E+03  0.11370501795E+01  0.20344408909E+03  0.00000000000E+00 0. -1.
         -2    1    3    3    0  502 -0.13534862906E+03 -0.15869595257E+03  0.93282468769E+02  0.22848473851E+03  0.00000000000E+00 0.  1.
         11    1    5    5    0    0 -0.53205454881E+02  0.41196126076E+01  0.87239039646E+02  0.10226652275E+03  0.00000000000E+00 0.  1.
        -11    1    5    5    0    0 -0.10268281659E+03  0.25062602291E+02  0.13406481089E+02  0.10654402185E+03  0.00000000000E+00 0. -1.
          2    1    6    6  503    0  0.12018577437E+03  0.63098781447E+02  0.29934869909E+02  0.13900421942E+03  0.00000000000E+00 0. -1.
         -2    1    6    6    0  503  0.31431405687E+03  0.21085849948E+03 -0.60262753957E+02  0.38325739741E+03  0.00000000000E+00 0.  1.
<mgrwt>
<rscale>  0 0.54265536E+03</rscale>
<asrwt>0</asrwt>
<pdfrwt beam="1">  1        1 0.10213370E+00 0.54265536E+03</pdfrwt>
<pdfrwt beam="2">  1       -1 0.76789525E-01 0.54265536E+03</pdfrwt>
<totfact> 0.52432134E+01</totfact>
</mgrwt>
</event>
<event>
12    1  0.1338445E-007  0.7332661E+03  0.7818608E-02  0.9661975E-01
          1   -1    0    0  501    0  0.00000000000E+00  0.00000000000E+00  0.45552577172E+03  0.45552577172E+03  0.00000000000E+00 0. -1.
         -1   -1    0    0    0  501 -0.00000000000E+00 -0.00000000000E+00 -0.16145326408E+04  0.16145326408E+04  0.00000000000E+00 0.  1.
         23    2    1    2    0    0 -0.43211321932E+02 -0.69156687208E+03 -0.85523512754E+03  0.11044536114E+04  0.90877387250E+02 0.  0.
    5000000    2    1    2    0    0  0.43211321932E+02  0.69156687208E+03 -0.30377174151E+03  0.96560480107E+03  0.59998616985E+03 0.  0.
         23    2    4    4    0    0 -0.50437220960E+02  0.37171051278E+02 -0.27659109851E+03  0.29760206707E+03  0.90215044411E+02 0.  0.
         23    2    4    4    0    0  0.93648542892E+02  0.65439582080E+03 -0.27180642999E+02  0.66800273400E+03  0.92113654829E+02 0.  0.
          2    1    3    3  502    0 -0.77017402444E+01 -0.46792265055E+03 -0.51630474769E+03  0.69683679308E+03  0.00000000000E+00 0. -1.
         -2    1    3    3    0  502 -0.35509581687E+02 -0.22364422153E+03 -0.33893037985E+03  0.40761681835E+03  0.00000000000E+00 0.  1.
         11    1    5    5    0    0 -0.43050961622E+02 -0.23218979564E+02 -0.12909289905E+03  0.13804884242E+03  0.00000000000E+00 0. -1.
        -11    1    5    5    0    0 -0.73862593387E+01  0.60390030842E+02 -0.14749819946E+03  0.15955322465E+03  0.00000000000E+00 0.  1.
          1    1    6    6  503    0  0.53510411811E+02  0.49862707513E+03 -0.55921180321E+02  0.50459835773E+03  0.00000000000E+00 0.  1.
         -1    1    6    6    0  503  0.40138131081E+02  0.15576874568E+03  0.28740537322E+02  0.16340437626E+03  0.00000000000E+00 0. -1.
<mgrwt>
<rscale>  0 0.73326608E+03</rscale>
<asrwt>0</asrwt>
<pdfrwt beam="1">  1        1 0.70080889E-01 0.73326608E+03</pdfrwt>
<pdfrwt beam="2">  1       -1 0.24838963E+00 0.73326608E+03</pdfrwt>
<totfact> 0.37561073E+00</totfact>
</mgrwt>
</event>
<event>
12    1  0.1338445E-007  0.6476231E+03  0.7818608E-02  0.9811250E-01
          2   -1    0    0  501    0  0.00000000000E+00  0.00000000000E+00  0.15232713459E+04  0.15232713459E+04  0.00000000000E+00 0. -1.
         -2   -1    0    0    0  501 -0.00000000000E+00 -0.00000000000E+00 -0.34948200942E+03  0.34948200942E+03  0.00000000000E+00 0.  1.
         23    2    1    2    0    0  0.53910143819E+03 -0.18727755446E+03  0.73616633542E+03  0.93605982812E+03  0.92541262895E+02 0.  0.
    5000000    2    1    2    0    0 -0.53910143819E+03  0.18727755446E+03  0.43762300107E+03  0.93669352721E+03  0.60014800657E+03 0.  0.
         23    2    4    4    0    0  0.14403335830E+02  0.15623657532E+03 -0.54894137820E+02  0.18952347003E+03  0.91040956583E+02 0.  0.
         23    2    4    4    0    0 -0.55350477402E+03  0.31040979137E+02  0.49251713889E+03  0.74717005718E+03  0.91426937993E+02 0.  0.
          4    1    3    3  502    0  0.36782366364E+03 -0.16201799765E+03  0.46849423389E+03  0.61727702556E+03  0.00000000000E+00 0. -1.
         -4    1    3    3    0  502  0.17127777455E+03 -0.25259556803E+02  0.26767210154E+03  0.31878280256E+03  0.00000000000E+00 0.  1.
         13    1    5    5    0    0  0.13005395399E+02  0.33801032173E+02  0.24379641575E+02  0.43657954702E+02  0.00000000000E+00 0. -1.
        -13    1    5    5    0    0  0.13979404305E+01  0.12243554315E+03 -0.79273779395E+02  0.14586551533E+03  0.00000000000E+00 0.  1.
          2    1    6    6  503    0 -0.16981074563E+03 -0.31688546250E+02  0.16349179633E+03  0.23784326932E+03  0.00000000000E+00 0. -1.
         -2    1    6    6    0  503 -0.38369402840E+03  0.62729525387E+02  0.32902534255E+03  0.50932678785E+03  0.00000000000E+00 0.  1.
<mgrwt>
<rscale>  0 0.64762310E+03</rscale>
<asrwt>0</asrwt>
<pdfrwt beam="1">  1        2 0.23434943E+00 0.64762310E+03</pdfrwt>
<pdfrwt beam="2">  1       -2 0.53766464E-01 0.64762310E+03</pdfrwt>
<totfact> 0.41547583E+01</totfact>
</mgrwt>
</event>
<event>
12    1  0.1338445E-007  0.1878458E+04  0.7818608E-02  0.8665654E-01
         -2   -1    0    0    0  501 -0.00000000000E+00  0.00000000000E+00  0.27454782332E+04  0.27454782332E+04  0.00000000000E+00 0.  1.
          2   -1    0    0  501    0  0.00000000000E+00 -0.00000000000E+00 -0.14580918885E+04  0.14580918885E+04  0.00000000000E+00 0. -1.
         23    2    1    2    0    0  0.15168781276E+04 -0.10754239828E+04 -0.37174300315E+01  0.18616569735E+04  0.91087162139E+02 0.  0.
    5000000    2    1    2    0    0 -0.15168781276E+04  0.10754239828E+04  0.12911037747E+04  0.23419131481E+04  0.60012685272E+03 0.  0.
         23    2    4    4    0    0 -0.14542017115E+04  0.96313922512E+03  0.13107352533E+04  0.21837450742E+04  0.91519724466E+02 0.  0.
         23    2    4    4    0    0 -0.62676416047E+02  0.11228475771E+03 -0.19631478594E+02  0.15816807391E+03  0.89975244986E+02 0.  0.
          2    1    3    3  502    0  0.10728102779E+04 -0.78438144848E+03  0.33625434005E+02  0.13294009248E+04  0.00000000000E+00 0. -1.
         -2    1    3    3    0  502  0.44406784969E+03 -0.29104253434E+03 -0.37342864036E+02  0.53225604874E+03  0.00000000000E+00 0.  1.
         11    1    5    5    0    0 -0.50906284222E+03  0.29149837718E+03  0.41489293731E+03  0.71850708463E+03  0.00000000000E+00 0.  1.
        -11    1    5    5    0    0 -0.94513886929E+03  0.67164084794E+03  0.89584231602E+03  0.14652379896E+04  0.00000000000E+00 0. -1.
          3    1    6    6  503    0 -0.60991140900E+02  0.12446617832E+03 -0.45132353672E+01  0.13867991241E+03  0.00000000000E+00 0. -1.
         -3    1    6    6    0  503 -0.16852751478E+01 -0.12181420607E+02 -0.15118243227E+02  0.19488161499E+02  0.00000000000E+00 0.  1.
<mgrwt>
<rscale>  0 0.18784580E+04</rscale>
<asrwt>0</asrwt>
<pdfrwt beam="1">  1        2 0.22432183E+00 0.18784580E+04</pdfrwt>
<pdfrwt beam="2">  1       -2 0.42238126E+00 0.18784580E+04</pdfrwt>
<totfact> 0.64069140E-02</totfact>
</mgrwt>
</event>
<event>
12    1  0.1338445E-007  0.1150277E+04  0.7818608E-02  0.9157528E-01
         -2   -1    0    0    0  501 -0.00000000000E+00  0.00000000000E+00  0.76256697534E+03  0.76256697534E+03  0.00000000000E+00 0.  1.
          2   -1    0    0  501    0  0.00000000000E+00 -0.00000000000E+00 -0.18368654576E+04  0.18368654576E+04  0.00000000000E+00 0. -1.
         23    2    1    2    0    0  0.36401814708E+03 -0.10130426915E+04 -0.23189127957E+03  0.11064954234E+04  0.10859949412E+03 0.  0.
    5000000    2    1    2    0    0 -0.36401814708E+03  0.10130426915E+04 -0.84240720269E+03  0.14929370096E+04  0.60037181240E+03 0.  0.
         23    2    4    4    0    0 -0.31698449438E+03  0.16070401374E+03 -0.33602550637E+03  0.49625294004E+03  0.83957667066E+02 0.  0.
         23    2    4    4    0    0 -0.47033652703E+02  0.85233867780E+03 -0.50638169632E+03  0.99668406953E+03  0.90902837854E+02 0.  0.
          2    1    3    3  502    0  0.22027501498E+03 -0.45352414985E+03 -0.10286247221E+03  0.51457353694E+03  0.00000000000E+00 0. -1.
         -2    1    3    3    0  502  0.14374313210E+03 -0.55951854168E+03 -0.12902880736E+03  0.59192188643E+03  0.00000000000E+00 0.  1.
         13    1    5    5    0    0 -0.23422089362E+03  0.14995147798E+03 -0.28612166112E+03  0.39901187667E+03  0.00000000000E+00 0. -1.
        -13    1    5    5    0    0 -0.82763600758E+02  0.10752535757E+02 -0.49903845248E+02  0.97241063374E+02  0.00000000000E+00 0.  1.
          1    1    6    6  503    0 -0.95166514752E+01  0.70515365884E+03 -0.39474870440E+03  0.80818239825E+03  0.00000000000E+00 0. -1.
         -1    1    6    6    0  503 -0.37517001227E+02  0.14718501896E+03 -0.11163299192E+03  0.18850167127E+03  0.00000000000E+00 0.  1.
<mgrwt>
<rscale>  0 0.11502766E+04</rscale>
<asrwt>0</asrwt>
<pdfrwt beam="1">  1        2 0.28259468E+00 0.11502766E+04</pdfrwt>
<pdfrwt beam="2">  1       -2 0.11731800E+00 0.11502766E+04</pdfrwt>
<totfact> 0.45333547E+00</totfact>
</mgrwt>
</event>
<event>
12    1  0.1338445E-007  0.6947747E+03  0.7818608E-02  0.9726210E-01
         -2   -1    0    0    0  501 -0.00000000000E+00  0.00000000000E+00  0.40016528798E+03  0.40016528798E+03  0.00000000000E+00 0.  1.
          2   -1    0    0  501    0  0.00000000000E+00 -0.00000000000E+00 -0.18643420309E+04  0.18643420309E+04  0.00000000000E+00 0. -1.
         23    2    1    2    0    0  0.62472226976E+03 -0.12917949464E+03 -0.11323395556E+03  0.65451621893E+03  0.92759344487E+02 0.  0.
    5000000    2    1    2    0    0 -0.62472226976E+03  0.12917949464E+03 -0.13509427873E+04  0.16099910999E+04  0.60004972377E+03 0.  0.
         23    2    4    4    0    0 -0.42651084189E+03  0.25606633467E+03 -0.46069311235E+03  0.68468529633E+03  0.95259357790E+02 0.  0.
         23    2    4    4    0    0 -0.19821142787E+03 -0.12688684003E+03 -0.89024967499E+03  0.92530580359E+03  0.90875222291E+02 0.  0.
          3    1    3    3  502    0  0.54767289272E+03 -0.96114039093E+02 -0.12480462856E+03  0.56987691762E+03  0.00000000000E+00 0. -1.
         -3    1    3    3    0  502  0.77049377037E+02 -0.33065455545E+02  0.11570673004E+02  0.84639301308E+02  0.00000000000E+00 0.  1.
         13    1    5    5    0    0 -0.20822638824E+03  0.16891414851E+03 -0.28451857623E+03  0.39094889505E+03  0.00000000000E+00 0.  1.
        -13    1    5    5    0    0 -0.21828445365E+03  0.87152186163E+02 -0.17617453612E+03  0.29373640128E+03  0.00000000000E+00 0. -1.
          1    1    6    6  503    0 -0.12232677156E+03 -0.34813521062E+02 -0.36024373767E+03  0.38203582400E+03  0.00000000000E+00 0. -1.
         -1    1    6    6    0  503 -0.75884656311E+02 -0.92073318973E+02 -0.53000593732E+03  0.54326997959E+03  0.00000000000E+00 0.  1.
<mgrwt>
<rscale>  0 0.69477466E+03</rscale>
<asrwt>0</asrwt>
<pdfrwt beam="1">  1        2 0.28682185E+00 0.69477466E+03</pdfrwt>
<pdfrwt beam="2">  1       -2 0.61563890E-01 0.69477466E+03</pdfrwt>
<totfact> 0.20250882E+01</totfact>
</mgrwt>
</event>
<event>
12    1  0.1338445E-007  0.5366163E+03  0.7818608E-02  0.1004640E+00
          2   -1    0    0  501    0  0.00000000000E+00  0.00000000000E+00  0.14310113808E+04  0.14310113808E+04  0.00000000000E+00 0. -1.
         -2   -1    0    0    0  501 -0.00000000000E+00 -0.00000000000E+00 -0.36283149285E+03  0.36283149285E+03  0.00000000000E+00 0.  1.
         23    2    1    2    0    0 -0.30658684241E+03 -0.22262092861E+03 -0.12089085331E+03  0.40910075877E+03  0.95881503008E+02 0.  0.
    5000000    2    1    2    0    0  0.30658684241E+03  0.22262092861E+03  0.11890707413E+04  0.13847421149E+04  0.60005493683E+03 0.  0.
         23    2    4    4    0    0  0.27901898839E+03  0.40024749723E+03  0.72413237615E+03  0.87787400782E+03  0.90804297808E+02 0.  0.
         23    2    4    4    0    0  0.27567854015E+02 -0.17762656862E+03  0.46493836512E+03  0.50686810707E+03  0.91849932760E+02 0.  0.
          3    1    3    3  502    0 -0.22104556158E+03 -0.12430696739E+03 -0.11551794125E+03  0.27867141436E+03  0.00000000000E+00 0. -1.
         -3    1    3    3    0  502 -0.85541280834E+02 -0.98313961227E+02 -0.53729120589E+01  0.13042934441E+03  0.00000000000E+00 0.  1.
         11    1    5    5    0    0  0.18978697707E+03  0.22318115303E+03  0.36921890031E+03  0.47132952388E+03  0.00000000000E+00 0.  1.
        -11    1    5    5    0    0  0.89232011324E+02  0.17706634420E+03  0.35491347584E+03  0.40654448394E+03  0.00000000000E+00 0. -1.
          4    1    6    6  503    0  0.57581644532E+02 -0.11950634063E+03  0.26234960967E+03  0.29398083089E+03  0.00000000000E+00 0. -1.
         -4    1    6    6    0  503 -0.30013790517E+02 -0.58120227983E+02  0.20258875545E+03  0.21288727618E+03  0.00000000000E+00 0.  1.
<mgrwt>
<rscale>  0 0.53661628E+03</rscale>
<asrwt>0</asrwt>
<pdfrwt beam="1">  1        2 0.22015559E+00 0.53661628E+03</pdfrwt>
<pdfrwt beam="2">  1       -2 0.55820230E-01 0.53661628E+03</pdfrwt>
<totfact> 0.43916325E+01</totfact>
</mgrwt>
</event>
<event>
12    1  0.1338445E-007  0.6574698E+03  0.7818608E-02  0.9792863E-01
          2   -1    0    0  501    0  0.00000000000E+00  0.00000000000E+00  0.13090318320E+04  0.13090318320E+04  0.00000000000E+00 0. -1.
         -2   -1    0    0    0  501 -0.00000000000E+00 -0.00000000000E+00 -0.43861322774E+03  0.43861322774E+03  0.00000000000E+00 0.  1.
         23    2    1    2    0    0  0.39950521882E+03  0.48126937962E+03  0.24039356532E+03  0.67610713397E+03  0.90039739744E+02 0.  0.
    5000000    2    1    2    0    0 -0.39950521882E+03 -0.48126937962E+03  0.63002503890E+03  0.10715379257E+04  0.60003111670E+03 0.  0.
         23    2    4    4    0    0 -0.54406284406E+01 -0.46286110929E+02 -0.91243270414E+02  0.13713136439E+03  0.91146432745E+02 0.  0.
         23    2    4    4    0    0 -0.39406459038E+03 -0.43498326869E+03  0.72126830932E+03  0.93440656133E+03  0.91598593896E+02 0.  0.
          3    1    3    3  502    0  0.28763794687E+03  0.39854901974E+03  0.16914129550E+03  0.51979388940E+03  0.00000000000E+00 0. -1.
         -3    1    3    3    0  502  0.11186727196E+03  0.82720359871E+02  0.71252269819E+02  0.15631324456E+03  0.00000000000E+00 0.  1.
         11    1    5    5    0    0 -0.27230956913E+02  0.15775610564E+02 -0.51280369762E+02  0.60167027731E+02  0.00000000000E+00 0. -1.
        -11    1    5    5    0    0  0.21790328472E+02 -0.62061721493E+02 -0.39962900652E+02  0.76964336664E+02  0.00000000000E+00 0.  1.
          4    1    6    6  503    0 -0.31062316335E+03 -0.33553444032E+03  0.49746937445E+03  0.67568179550E+03  0.00000000000E+00 0. -1.
         -4    1    6    6    0  503 -0.83441427034E+02 -0.99448828366E+02  0.22379893487E+03  0.25872476583E+03  0.00000000000E+00 0.  1.
<mgrwt>
<rscale>  0 0.65746983E+03</rscale>
<asrwt>0</asrwt>
<pdfrwt beam="1">  1        2 0.20138951E+00 0.65746983E+03</pdfrwt>
<pdfrwt beam="2">  1       -2 0.67478959E-01 0.65746983E+03</pdfrwt>
<totfact> 0.33897322E+01</totfact>
</mgrwt>
</event>
<event>
12    1  0.1338445E-007  0.6650251E+03  0.7818608E-02  0.9778987E-01
          2   -1    0    0  501    0  0.00000000000E+00  0.00000000000E+00  0.92800441920E+03  0.92800441920E+03  0.00000000000E+00 0. -1.
         -2   -1    0    0    0  501 -0.00000000000E+00 -0.00000000000E+00 -0.68433148410E+03  0.68433148410E+03  0.00000000000E+00 0.  1.
         23    2    1    2    0    0  0.53118427863E+03  0.27121412995E+03  0.43689797226E+03  0.74463138843E+03  0.88781891837E+02 0.  0.
    5000000    2    1    2    0    0 -0.53118427863E+03 -0.27121412995E+03 -0.19322503715E+03  0.86770451487E+03  0.59988446221E+03 0.  0.
         23    2    4    4    0    0 -0.46143411602E+03 -0.18494615959E+02  0.80399927879E+02  0.47762838934E+03  0.91658254668E+02 0.  0.
         23    2    4    4    0    0 -0.69750162609E+02 -0.25271951399E+03 -0.27362496503E+03  0.39007612553E+03  0.92501482622E+02 0.  0.
          1    1    3    3  502    0  0.17154369866E+03  0.10053980591E+03  0.19672617960E+03  0.27970821022E+03  0.00000000000E+00 0. -1.
         -1    1    3    3    0  502  0.35964057997E+03  0.17067432404E+03  0.24017179265E+03  0.46492317821E+03  0.00000000000E+00 0.  1.
         11    1    5    5    0    0 -0.12115836308E+03  0.32703475960E+02  0.64122051300E+01  0.12565819773E+03  0.00000000000E+00 0.  1.
        -11    1    5    5    0    0 -0.34027575295E+03 -0.51198091919E+02  0.73987722749E+02  0.35197019160E+03  0.00000000000E+00 0. -1.
          1    1    6    6  503    0 -0.53526627055E+02 -0.14437832023E+03 -0.96217603610E+02  0.18157099548E+03  0.00000000000E+00 0. -1.
         -1    1    6    6    0  503 -0.16223535554E+02 -0.10834119376E+03 -0.17740736142E+03  0.20850513005E+03  0.00000000000E+00 0.  1.
<mgrwt>
<rscale>  0 0.66502512E+03</rscale>
<asrwt>0</asrwt>
<pdfrwt beam="1">  1        2 0.14276991E+00 0.66502512E+03</pdfrwt>
<pdfrwt beam="2">  1       -2 0.10528177E+00 0.66502512E+03</pdfrwt>
<totfact> 0.21020248E+01</totfact>
</mgrwt>
</event>
<event>
12    1  0.1338445E-007  0.3570680E+03  0.7818608E-02  0.1059751E+00
          2   -1    0    0  501    0  0.00000000000E+00  0.00000000000E+00  0.77910921699E+03  0.77910921699E+03  0.00000000000E+00 0. -1.
         -2   -1    0    0    0  501 -0.00000000000E+00 -0.00000000000E+00 -0.52272338456E+03  0.52272338456E+03  0.00000000000E+00 0.  1.
         23    2    1    2    0    0 -0.19193414153E+03 -0.14402697546E+03 -0.33773730746E+03  0.42395935773E+03  0.89958678399E+02 0.  0.
    5000000    2    1    2    0    0  0.19193414153E+03  0.14402697546E+03  0.59412313989E+03  0.87787324382E+03  0.60008053003E+03 0.  0.
         23    2    4    4    0    0  0.70070809910E+02 -0.14074730237E+03  0.51226566916E+03  0.54362735970E+03  0.91623517166E+02 0.  0.
         23    2    4    4    0    0  0.12186333162E+03  0.28477427783E+03  0.81857470731E+02  0.33424588412E+03  0.95250221145E+02 0.  0.
          3    1    3    3  502    0 -0.19836604869E+02 -0.20781966251E+02 -0.10719910011E+03  0.11098210702E+03  0.00000000000E+00 0. -1.
         -3    1    3    3    0  502 -0.17209753666E+03 -0.12324500921E+03 -0.23053820734E+03  0.31297725071E+03  0.00000000000E+00 0.  1.
         13    1    5    5    0    0  0.30129766787E+02 -0.48746724837E+02  0.71689718763E+02  0.91779419290E+02  0.00000000000E+00 0. -1.
        -13    1    5    5    0    0  0.39941043124E+02 -0.92000577532E+02  0.44057595039E+03  0.45184794041E+03  0.00000000000E+00 0.  1.
          2    1    6    6  503    0  0.20331229584E+02  0.12624151550E+03 -0.26358898042E+01  0.12789537540E+03  0.00000000000E+00 0. -1.
         -2    1    6    6    0  503  0.10153210203E+03  0.15853276232E+03  0.84493360535E+02  0.20635050872E+03  0.00000000000E+00 0.  1.
<mgrwt>
<rscale>  0 0.35706802E+03</rscale>
<asrwt>0</asrwt>
<pdfrwt beam="1">  1        2 0.11986296E+00 0.35706802E+03</pdfrwt>
<pdfrwt beam="2">  1       -2 0.80418982E-01 0.35706802E+03</pdfrwt>
<totfact> 0.51586280E+01</totfact>
</mgrwt>
</event>
<event>
12    1  0.1338445E-007  0.4783815E+03  0.7818608E-02  0.1019581E+00
         -1   -1    0    0    0  501 -0.00000000000E+00  0.00000000000E+00  0.11007228575E+04  0.11007228575E+04  0.00000000000E+00 0.  1.
          1   -1    0    0  501    0  0.00000000000E+00 -0.00000000000E+00 -0.56379746933E+03  0.56379746933E+03  0.00000000000E+00 0. -1.
         23    2    1    2    0    0 -0.22333204102E+03 -0.40094264932E+03 -0.28500215755E+03  0.54818776209E+03  0.93012816942E+02 0.  0.
    5000000    2    1    2    0    0  0.22333204102E+03  0.40094264932E+03  0.82192754572E+03  0.11163325648E+04  0.60000108010E+03 0.  0.
         23    2    4    4    0    0  0.13164098352E+03  0.21754794400E+03  0.84814431603E+03  0.89087632270E+03  0.98261818964E+02 0.  0.
         23    2    4    4    0    0  0.91691057497E+02  0.18339470531E+03 -0.26216770303E+02  0.22545624205E+03  0.90012943904E+02 0.  0.
          1    1    3    3  502    0 -0.18312527900E+03 -0.28214206322E+03 -0.24642042005E+03  0.41696766669E+03  0.00000000000E+00 0. -1.
         -1    1    3    3    0  502 -0.40206762016E+02 -0.11880058610E+03 -0.38581737494E+02  0.13122009540E+03  0.00000000000E+00 0.  1.
         13    1    5    5    0    0  0.10574953121E+03  0.79901648282E+02  0.41172202401E+03  0.43253007040E+03  0.00000000000E+00 0. -1.
        -13    1    5    5    0    0  0.25891452309E+02  0.13764629572E+03  0.43642229202E+03  0.45834625230E+03  0.00000000000E+00 0.  1.
          2    1    6    6  503    0  0.90782828246E+02  0.86221476245E+02 -0.16146358136E+01  0.12521290636E+03  0.00000000000E+00 0. -1.
         -2    1    6    6    0  503  0.90822925064E+00  0.97173229070E+02 -0.24602134489E+02  0.10024333569E+03  0.00000000000E+00 0.  1.
<mgrwt>
<rscale>  0 0.47838152E+03</rscale>
<asrwt>0</asrwt>
<pdfrwt beam="1">  1        1 0.86738073E-01 0.47838152E+03</pdfrwt>
<pdfrwt beam="2">  1       -1 0.16934198E+00 0.47838152E+03</pdfrwt>
<totfact> 0.10031965E+01</totfact>
</mgrwt>
</event>
<event>
12    1  0.1338445E-007  0.7747049E+03  0.7818608E-02  0.9597370E-01
         -2   -1    0    0    0  501 -0.00000000000E+00  0.00000000000E+00  0.77707064954E+03  0.77707064954E+03  0.00000000000E+00 0.  1.
          2   -1    0    0  501    0  0.00000000000E+00 -0.00000000000E+00 -0.20172202128E+04  0.20172202128E+04  0.00000000000E+00 0. -1.
         23    2    1    2    0    0 -0.11761952046E+03 -0.65413398298E+03  0.50043417059E+03  0.83689998070E+03  0.90783254616E+02 0.  0.
    5000000    2    1    2    0    0  0.11761952046E+03  0.65413398298E+03 -0.17405837338E+04  0.19573908816E+04  0.60001809111E+03 0.  0.
         23    2    4    4    0    0 -0.69307882669E+02  0.67468674148E+03 -0.14066910878E+04  0.15644141823E+04  0.92769260784E+02 0.  0.
         23    2    4    4    0    0  0.18692740313E+03 -0.20552758494E+02 -0.33389264605E+03  0.39297669927E+03  0.87075353347E+02 0.  0.
          4    1    3    3  502    0 -0.63240027517E+02 -0.43150596534E+03  0.27587554043E+03  0.51604652213E+03  0.00000000000E+00 0. -1.
         -4    1    3    3    0  502 -0.54379492948E+02 -0.22262801765E+03  0.22455863017E+03  0.32085345857E+03  0.00000000000E+00 0.  1.
         11    1    5    5    0    0 -0.24794183269E+02  0.33035107980E+03 -0.79104971317E+03  0.85761660208E+03  0.00000000000E+00 0.  1.
        -11    1    5    5    0    0 -0.44513699400E+02  0.34433566168E+03 -0.61564137459E+03  0.70679758025E+03  0.00000000000E+00 0. -1.
          1    1    6    6  503    0  0.79061645292E+02 -0.50351486582E+02 -0.17665851810E+03  0.19998561942E+03  0.00000000000E+00 0. -1.
         -1    1    6    6    0  503  0.10786575784E+03  0.29798728088E+02 -0.15723412795E+03  0.19299107985E+03  0.00000000000E+00 0.  1.
<mgrwt>
<rscale>  0 0.77470489E+03</rscale>
<asrwt>0</asrwt>
<pdfrwt beam="1">  1        2 0.31034157E+00 0.77470489E+03</pdfrwt>
<pdfrwt beam="2">  1       -2 0.11954933E+00 0.77470489E+03</pdfrwt>
<totfact> 0.36169449E+00</totfact>
</mgrwt>
</event>
<event>
12    1  0.1338445E-007  0.9302731E+03  0.7818608E-02  0.9388510E-01
         -2   -1    0    0    0  501 -0.00000000000E+00  0.00000000000E+00  0.16552304297E+04  0.16552304297E+04  0.00000000000E+00 0.  1.
          2   -1    0    0  501    0  0.00000000000E+00 -0.00000000000E+00 -0.66744582689E+03  0.66744582689E+03  0.00000000000E+00 0. -1.
         23    2    1    2    0    0  0.78041370842E+03  0.47099805664E+03  0.79824130489E+03  0.12150675033E+04  0.91187340555E+02 0.  0.
    5000000    2    1    2    0    0 -0.78041370842E+03 -0.47099805664E+03  0.18954329797E+03  0.11076087533E+04  0.59998813572E+03 0.  0.
         23    2    4    4    0    0 -0.27141184010E+03 -0.30479865243E+03  0.34532709927E+03  0.54257168117E+03  0.92556027641E+02 0.  0.
         23    2    4    4    0    0 -0.50900186833E+03 -0.16619940421E+03 -0.15578380130E+03  0.56503707216E+03  0.91066768077E+02 0.  0.
          1    1    3    3  502    0  0.65026997333E+03  0.42946173274E+03  0.67048560681E+03  0.10280269291E+04  0.00000000000E+00 0. -1.
         -1    1    3    3    0  502  0.13014373510E+03  0.41536323897E+02  0.12775569808E+03  0.18704057415E+03  0.00000000000E+00 0.  1.
         11    1    5    5    0    0 -0.20411835195E+03 -0.21945465908E+03  0.30228179604E+03  0.42567468003E+03  0.00000000000E+00 0.  1.
        -11    1    5    5    0    0 -0.67293488143E+02 -0.85343993347E+02  0.43045303227E+02  0.11689700114E+03  0.00000000000E+00 0. -1.
          2    1    6    6  503    0 -0.22196018190E+03 -0.87863369734E+02 -0.11412604179E+03  0.26459600810E+03  0.00000000000E+00 0. -1.
         -2    1    6    6    0  503 -0.28704168643E+03 -0.78336034477E+02 -0.41657759514E+02  0.30044106406E+03  0.00000000000E+00 0.  1.
<mgrwt>
<rscale>  0 0.93027309E+03</rscale>
<asrwt>0</asrwt>
<pdfrwt beam="1">  1        2 0.10268397E+00 0.93027309E+03</pdfrwt>
<pdfrwt beam="2">  1       -2 0.25465083E+00 0.93027309E+03</pdfrwt>
<totfact> 0.26360483E+00</totfact>
</mgrwt>
</event>
<event>
12    1  0.1338445E-007  0.8969026E+03  0.7818608E-02  0.9429462E-01
          2   -1    0    0  501    0  0.00000000000E+00  0.00000000000E+00  0.11993102997E+04  0.11993102997E+04  0.00000000000E+00 0. -1.
         -2   -1    0    0    0  501 -0.00000000000E+00 -0.00000000000E+00 -0.86666179647E+03  0.86666179647E+03  0.00000000000E+00 0.  1.
         23    2    1    2    0    0 -0.80256816228E+03  0.76931610407E+02  0.61931341315E+03  0.10208789112E+04  0.92792886555E+02 0.  0.
    5000000    2    1    2    0    0  0.80256816228E+03 -0.76931610407E+02 -0.28666490993E+03  0.10450931850E+04  0.60000738904E+03 0.  0.
         23    2    4    4    0    0  0.84146264335E+03  0.49492993722E+02 -0.23219069462E+03  0.87901615977E+03  0.90818246524E+02 0.  0.
         23    2    4    4    0    0 -0.38894481067E+02 -0.12642460413E+03 -0.54474215315E+02  0.16607702520E+03  0.84369289303E+02 0.  0.
          4    1    3    3  502    0 -0.58773709019E+03  0.41858407886E+02  0.40200361660E+03  0.71329791901E+03  0.00000000000E+00 0. -1.
         -4    1    3    3    0  502 -0.21483107209E+03  0.35073202521E+02  0.21730979654E+03  0.30758099217E+03  0.00000000000E+00 0.  1.
         13    1    5    5    0    0  0.46076627857E+03 -0.16947193780E+02 -0.11532604687E+03  0.47528188261E+03  0.00000000000E+00 0.  1.
        -13    1    5    5    0    0  0.38069636477E+03  0.66440187502E+02 -0.11686464775E+03  0.40373427717E+03  0.00000000000E+00 0. -1.
          4    1    6    6  503    0 -0.40756573006E+02 -0.57791436187E+02  0.10566993207E+02  0.71502515237E+02  0.00000000000E+00 0. -1.
         -4    1    6    6    0  503  0.18620919393E+01 -0.68633167942E+02 -0.65041208522E+02  0.94574509960E+02  0.00000000000E+00 0.  1.
<mgrwt>
<rscale>  0 0.89690261E+03</rscale>
<asrwt>0</asrwt>
<pdfrwt beam="1">  1        2 0.18450928E+00 0.89690261E+03</pdfrwt>
<pdfrwt beam="2">  1       -2 0.13333258E+00 0.89690261E+03</pdfrwt>
<totfact> 0.77403604E+00</totfact>
</mgrwt>
</event>
<event>
12    1  0.1338445E-007  0.6046082E+03  0.7818608E-02  0.9895891E-01
         -1   -1    0    0    0  501 -0.00000000000E+00  0.00000000000E+00  0.95934292407E+03  0.95934292407E+03  0.00000000000E+00 0.  1.
          1   -1    0    0  501    0  0.00000000000E+00 -0.00000000000E+00 -0.40884962278E+03  0.40884962278E+03  0.00000000000E+00 0. -1.
         23    2    1    2    0    0 -0.32209027936E+03  0.33627284482E+03  0.32694426620E+03  0.57650161085E+03  0.92951492099E+02 0.  0.
    5000000    2    1    2    0    0  0.32209027936E+03 -0.33627284482E+03  0.22354903509E+03  0.79169093601E+03  0.59998232711E+03 0.  0.
         23    2    4    4    0    0  0.31173444063E+03  0.77044519892E+02  0.12589614552E+03  0.35692639197E+03  0.91828047503E+02 0.  0.
         23    2    4    4    0    0  0.10355838735E+02 -0.41331736471E+03  0.97652889566E+02  0.43476454403E+03  0.92442601333E+02 0.  0.
          4    1    3    3  502    0 -0.81147606039E+02  0.97223979056E+02  0.42246383733E+02  0.13349978655E+03  0.00000000000E+00 0. -1.
         -4    1    3    3    0  502 -0.24094267333E+03  0.23904886576E+03  0.28469788247E+03  0.44300182430E+03  0.00000000000E+00 0.  1.
         13    1    5    5    0    0  0.19683934655E+03  0.64095875690E+02  0.12395866763E+03  0.24128771396E+03  0.00000000000E+00 0. -1.
        -13    1    5    5    0    0  0.11489509408E+03  0.12948644203E+02  0.19374778950E+01  0.11563867801E+03  0.00000000000E+00 0.  1.
          3    1    6    6  503    0  0.33643479214E+02 -0.36846075374E+03  0.10267101126E+03  0.38397467012E+03  0.00000000000E+00 0. -1.
         -3    1    6    6    0  503 -0.23287640479E+02 -0.44856610973E+02 -0.50181216962E+01  0.50789873916E+02  0.00000000000E+00 0.  1.
<mgrwt>
<rscale>  0 0.60460818E+03</rscale>
<asrwt>0</asrwt>
<pdfrwt beam="1">  1        1 0.62899942E-01 0.60460818E+03</pdfrwt>
<pdfrwt beam="2">  1       -1 0.14759122E+00 0.60460818E+03</pdfrwt>
<totfact> 0.22135018E+01</totfact>
</mgrwt>
</event>
<event>
12    1  0.1338445E-007  0.1055856E+04  0.7818608E-02  0.9249319E-01
         -2   -1    0    0    0  501 -0.00000000000E+00  0.00000000000E+00  0.29409452511E+03  0.29409452511E+03  0.00000000000E+00 0.  1.
          2   -1    0    0  501    0  0.00000000000E+00 -0.00000000000E+00 -0.41335622168E+04  0.41335622168E+04  0.00000000000E+00 0. -1.
         23    2    1    2    0    0  0.93035174734E+03 -0.37490140281E+03 -0.14233930547E+04  0.17437208088E+04  0.91700792808E+02 0.  0.
    5000000    2    1    2    0    0 -0.93035174734E+03  0.37490140281E+03 -0.24160746370E+04  0.26839359331E+04  0.59999167137E+03 0.  0.
         23    2    4    4    0    0 -0.22181257727E+02  0.13791003362E+03 -0.13303441032E+03  0.21406726254E+03  0.92819464519E+02 0.  0.
         23    2    4    4    0    0 -0.90817048961E+03  0.23699136919E+03 -0.22830402267E+04  0.24698686706E+04  0.83904861636E+02 0.  0.
          2    1    3    3  502    0  0.39007172063E+03 -0.20154151252E+03 -0.58753450008E+03  0.73346555290E+03  0.00000000000E+00 0. -1.
         -2    1    3    3    0  502  0.54028002670E+03 -0.17335989028E+03 -0.83585855462E+03  0.10102552559E+04  0.00000000000E+00 0.  1.
         11    1    5    5    0    0 -0.31500031785E+02  0.32589983924E+01 -0.16301840033E+02  0.35617735209E+02  0.00000000000E+00 0.  1.
        -11    1    5    5    0    0  0.93187740580E+01  0.13465103523E+03 -0.11673257029E+03  0.17844952733E+03  0.00000000000E+00 0. -1.
          1    1    6    6  503    0 -0.64917228146E+03  0.17186701968E+03 -0.15304424373E+04  0.16712920084E+04  0.00000000000E+00 0. -1.
         -1    1    6    6    0  503 -0.25899820815E+03  0.65124349502E+02 -0.75259778944E+03  0.79857666219E+03  0.00000000000E+00 0.  1.
<mgrwt>
<rscale>  0 0.10558563E+04</rscale>
<asrwt>0</asrwt>
<pdfrwt beam="1">  1        2 0.63593261E+00 0.10558563E+04</pdfrwt>
<pdfrwt beam="2">  1       -2 0.45245314E-01 0.10558563E+04</pdfrwt>
<totfact> 0.12892560E+00</totfact>
</mgrwt>
</event>
<event>
12    1  0.1338445E-007  0.5139319E+03  0.7818608E-02  0.1010205E+00
          2   -1    0    0  501    0  0.00000000000E+00  0.00000000000E+00  0.11908373023E+04  0.11908373023E+04  0.00000000000E+00 0. -1.
         -2   -1    0    0    0  501 -0.00000000000E+00 -0.00000000000E+00 -0.39152545967E+03  0.39152545967E+03  0.00000000000E+00 0.  1.
         23    2    1    2    0    0  0.19275848344E+03  0.43338973833E+03  0.99060123881E+01  0.48315079116E+03  0.91400545330E+02 0.  0.
    5000000    2    1    2    0    0 -0.19275848344E+03 -0.43338973833E+03  0.78940583028E+03  0.10992119708E+04  0.60010240271E+03 0.  0.
         23    2    4    4    0    0  0.14638635636E+02 -0.29971978734E+03  0.53365202673E+02  0.31763245948E+03  0.89421998883E+02 0.  0.
         23    2    4    4    0    0 -0.20739711907E+03 -0.13366995099E+03  0.73604062761E+03  0.78157951136E+03  0.90716626315E+02 0.  0.
          1    1    3    3  502    0  0.14302984728E+03  0.27048266253E+03  0.44948913207E+02  0.30925525499E+03  0.00000000000E+00 0. -1.
         -1    1    3    3    0  502  0.49728636160E+02  0.16290707580E+03 -0.35042900819E+02  0.17389553617E+03  0.00000000000E+00 0.  1.
         13    1    5    5    0    0  0.18291969692E+02 -0.26178616056E+03  0.76126853185E+02  0.27324327584E+03  0.00000000000E+00 0. -1.
        -13    1    5    5    0    0 -0.36533340562E+01 -0.37933626782E+02 -0.22761650512E+02  0.44389183644E+02  0.00000000000E+00 0.  1.
          2    1    6    6  503    0 -0.10503915341E+03 -0.40364149608E+02  0.21781940216E+03  0.24516888114E+03  0.00000000000E+00 0.  1.
         -2    1    6    6    0  503 -0.10235796566E+03 -0.93305801381E+02  0.51822122545E+03  0.53641063022E+03  0.00000000000E+00 0. -1.
<mgrwt>
<rscale>  0 0.51393190E+03</rscale>
<asrwt>0</asrwt>
<pdfrwt beam="1">  1        2 0.18320574E+00 0.51393190E+03</pdfrwt>
<pdfrwt beam="2">  1       -2 0.60234687E-01 0.51393190E+03</pdfrwt>
<totfact> 0.51490991E+01</totfact>
</mgrwt>
</event>
<event>
12    1  0.1338445E-007  0.4754400E+03  0.7818608E-02  0.1020396E+00
          2   -1    0    0  501    0  0.00000000000E+00  0.00000000000E+00  0.24088382981E+04  0.24088382981E+04  0.00000000000E+00 0. -1.
         -2   -1    0    0    0  501 -0.00000000000E+00 -0.00000000000E+00 -0.16285655791E+03  0.16285655791E+03  0.00000000000E+00 0.  1.
         23    2    1    2    0    0 -0.42888074183E+03 -0.11580931113E+02  0.44085766243E+03  0.62168539517E+03  0.89802245925E+02 0.  0.
    5000000    2    1    2    0    0  0.42888074183E+03  0.11580931113E+02  0.18051240778E+04  0.19500094609E+04  0.59999262708E+03 0.  0.
         23    2    4    4    0    0  0.55524028613E+02  0.97210512334E+02  0.13080747550E+04  0.13158174945E+04  0.88223084889E+02 0.  0.
         23    2    4    4    0    0  0.37335671321E+03 -0.85629581221E+02  0.49704932280E+03  0.63419196637E+03  0.91726552464E+02 0.  0.
          1    1    3    3  502    0 -0.24261836042E+03 -0.46376347274E+02  0.27743465020E+03  0.37146254123E+03  0.00000000000E+00 0. -1.
         -1    1    3    3    0  502 -0.18626238140E+03  0.34795416161E+02  0.16342301222E+03  0.25022285395E+03  0.00000000000E+00 0.  1.
         11    1    5    5    0    0  0.12982118188E+02  0.67272919790E+02  0.10668349187E+04  0.10690327052E+04  0.00000000000E+00 0. -1.
        -11    1    5    5    0    0  0.42541910425E+02  0.29937592544E+02  0.24123983633E+03  0.24678478929E+03  0.00000000000E+00 0.  1.
          3    1    6    6  503    0  0.19332502978E+03 -0.91146883534E+02  0.27360291192E+03  0.34718996951E+03  0.00000000000E+00 0. -1.
         -3    1    6    6    0  503  0.18003168343E+03  0.55173023126E+01  0.22344641088E+03  0.28700199686E+03  0.00000000000E+00 0.  1.
<mgrwt>
<rscale>  0 0.47544001E+03</rscale>
<asrwt>0</asrwt>
<pdfrwt beam="1">  1        2 0.37059048E+00 0.47544001E+03</pdfrwt>
<pdfrwt beam="2">  1       -2 0.25054857E-01 0.47544001E+03</pdfrwt>
<totfact> 0.60830940E+01</totfact>
</mgrwt>
</event>
<event>
12    1  0.1338445E-007  0.7433825E+03  0.7818608E-02  0.9645790E-01
         -2   -1    0    0    0  501 -0.00000000000E+00  0.00000000000E+00  0.24488936219E+03  0.24488936219E+03  0.00000000000E+00 0.  1.
          2   -1    0    0  501    0  0.00000000000E+00 -0.00000000000E+00 -0.30415394181E+04  0.30415394181E+04  0.00000000000E+00 0. -1.
         23    2    1    2    0    0  0.40211737963E+03  0.58215833879E+03 -0.72734995961E+03  0.10187652836E+04  0.90763543487E+02 0.  0.
    5000000    2    1    2    0    0 -0.40211737963E+03 -0.58215833879E+03 -0.20693000963E+04  0.22676634967E+04  0.59974004990E+03 0.  0.
         23    2    4    4    0    0 -0.28895157896E+03 -0.58636770844E+03 -0.20015220619E+04  0.21076144338E+04  0.92886665380E+02 0.  0.
         23    2    4    4    0    0 -0.11316580066E+03  0.42093696539E+01 -0.67778034372E+02  0.16004906295E+03  0.90540727722E+02 0.  0.
          1    1    3    3  502    0  0.17015888607E+03  0.17446786914E+03 -0.26815355728E+03  0.36235261025E+03  0.00000000000E+00 0. -1.
         -1    1    3    3    0  502  0.23195849356E+03  0.40769046964E+03 -0.45919640233E+03  0.65641267331E+03  0.00000000000E+00 0.  1.
         13    1    5    5    0    0 -0.24474956514E+02 -0.83467250115E+02 -0.36628661453E+03  0.37647269400E+03  0.00000000000E+00 0.  1.
        -13    1    5    5    0    0 -0.26447662245E+03 -0.50290045833E+03 -0.16352354474E+04  0.17311417398E+04  0.00000000000E+00 0. -1.
          1    1    6    6  503    0 -0.11595189047E+03  0.41123100664E+01 -0.84221982612E+02  0.14337047936E+03  0.00000000000E+00 0. -1.
         -1    1    6    6    0  503  0.27860898031E+01  0.97059587517E-01  0.16443948240E+02  0.16678583593E+02  0.00000000000E+00 0.  1.
<mgrwt>
<rscale>  0 0.74338247E+03</rscale>
<asrwt>0</asrwt>
<pdfrwt beam="1">  1        2 0.46792914E+00 0.74338247E+03</pdfrwt>
<pdfrwt beam="2">  1       -2 0.37675287E-01 0.74338247E+03</pdfrwt>
<totfact> 0.11603454E+01</totfact>
</mgrwt>
</event>
<event>
12    1  0.1338445E-007  0.3398637E+03  0.7818608E-02  0.1066854E+00
          3   -1    0    0  501    0  0.00000000000E+00  0.00000000000E+00  0.22672030289E+04  0.22672030289E+04  0.00000000000E+00 0. -1.
         -3   -1    0    0    0  501 -0.00000000000E+00 -0.00000000000E+00 -0.68439118352E+02  0.68439118352E+02  0.00000000000E+00 0.  1.
         23    2    1    2    0    0 -0.59075878920E+02 -0.46900291067E+02  0.11762001068E+03  0.16840044969E+03  0.93992807010E+02 0.  0.
    5000000    2    1    2    0    0  0.59075878920E+02  0.46900291067E+02  0.20811438998E+04  0.21672416975E+04  0.60007253473E+03 0.  0.
         23    2    4    4    0    0 -0.24684250135E+03 -0.28016795253E+02  0.71584631826E+03  0.76324776062E+03  0.91624404169E+02 0.  0.
         23    2    4    4    0    0  0.30591838027E+03  0.74917086320E+02  0.13652975816E+04  0.14039939369E+04  0.89234877816E+02 0.  0.
          1    1    3    3  502    0 -0.18610232918E+02 -0.46824572893E+02  0.11759427017E+03  0.12793472466E+03  0.00000000000E+00 0. -1.
         -1    1    3    3    0  502 -0.40465646002E+02 -0.75718174146E-01  0.25740509436E-01  0.40465725030E+02  0.00000000000E+00 0.  1.
         13    1    5    5    0    0 -0.55216706064E+02  0.28289573122E+02  0.22299090564E+03  0.23146085755E+03  0.00000000000E+00 0. -1.
        -13    1    5    5    0    0 -0.19162579529E+03 -0.56306368374E+02  0.49285541261E+03  0.53178690308E+03  0.00000000000E+00 0.  1.
          4    1    6    6  503    0  0.54855049684E+02 -0.20445287124E+02  0.26603965125E+03  0.27240444614E+03  0.00000000000E+00 0.  1.
         -4    1    6    6    0  503  0.25106333059E+03  0.95362373443E+02  0.10992579303E+04  0.11315894908E+04  0.00000000000E+00 0. -1.
<mgrwt>
<rscale>  0 0.33986369E+03</rscale>
<asrwt>0</asrwt>
<pdfrwt beam="1">  1        3 0.34880041E+00 0.33986369E+03</pdfrwt>
<pdfrwt beam="2">  1       -3 0.10529097E-01 0.33986369E+03</pdfrwt>
<totfact> 0.41282789E+00</totfact>
</mgrwt>
</event>
<event>
12    1  0.1338445E-007  0.7329709E+03  0.7818608E-02  0.9662452E-01
          3   -1    0    0  501    0  0.00000000000E+00  0.00000000000E+00  0.15814938395E+04  0.15814938395E+04  0.00000000000E+00 0. -1.
         -3   -1    0    0    0  501 -0.00000000000E+00 -0.00000000000E+00 -0.34529623459E+03  0.34529623459E+03  0.00000000000E+00 0.  1.
         23    2    1    2    0    0  0.52815541114E+03 -0.31162339722E+03  0.53822472953E+03  0.82091080783E+03  0.90285186606E+02 0.  0.
    5000000    2    1    2    0    0 -0.52815541114E+03  0.31162339722E+03  0.69797287539E+03  0.11058792663E+04  0.59978790985E+03 0.  0.
         23    2    4    4    0    0 -0.60290449349E+03  0.10543017398E+03  0.54027811096E+03  0.82124559277E+03  0.89076015867E+02 0.  0.
         23    2    4    4    0    0  0.74749082353E+02  0.20619322324E+03  0.15769476443E+03  0.28463367351E+03  0.89697373119E+02 0.  0.
          2    1    3    3  502    0  0.33380586463E+03 -0.16464496773E+03  0.27915702895E+03  0.46525580864E+03  0.00000000000E+00 0. -1.
         -2    1    3    3    0  502  0.19434954651E+03 -0.14697842949E+03  0.25906770058E+03  0.35565499919E+03  0.00000000000E+00 0.  1.
         11    1    5    5    0    0 -0.47285377728E+03  0.53984740183E+02  0.38398642489E+03  0.61151502137E+03  0.00000000000E+00 0. -1.
        -11    1    5    5    0    0 -0.13005071622E+03  0.51445433793E+02  0.15629168607E+03  0.20973057140E+03  0.00000000000E+00 0.  1.
          2    1    6    6  503    0  0.74213688019E+02  0.83971670835E+02  0.96782128123E+02  0.14807327009E+03  0.00000000000E+00 0. -1.
         -2    1    6    6    0  503  0.53539433336E+00  0.12222155241E+03  0.60912636310E+02  0.13656040342E+03  0.00000000000E+00 0.  1.
<mgrwt>
<rscale>  0 0.73297090E+03</rscale>
<asrwt>0</asrwt>
<pdfrwt beam="1">  1        3 0.24330674E+00 0.73297090E+03</pdfrwt>
<pdfrwt beam="2">  1       -3 0.53122499E-01 0.73297090E+03</pdfrwt>
<totfact> 0.74515224E-01</totfact>
</mgrwt>
</event>
<event>
12    1  0.1338445E-007  0.3324858E+03  0.7818608E-02  0.1070042E+00
         -2   -1    0    0    0  501 -0.00000000000E+00  0.00000000000E+00  0.10315256750E+03  0.10315256750E+03  0.00000000000E+00 0.  1.
          2   -1    0    0  501    0  0.00000000000E+00 -0.00000000000E+00 -0.22996007524E+04  0.22996007524E+04  0.00000000000E+00 0. -1.
         23    2    1    2    0    0  0.17584797599E+03 -0.18965349229E+03 -0.10275848483E+04  0.10637009250E+04  0.92941269268E+02 0.  0.
    5000000    2    1    2    0    0 -0.17584797599E+03  0.18965349229E+03 -0.11688633365E+04  0.13390523949E+04  0.59994071283E+03 0.  0.
         23    2    4    4    0    0  0.67968315460E+02  0.43281703276E+02 -0.97537263266E+03  0.98259710063E+03  0.87477379200E+02 0.  0.
         23    2    4    4    0    0 -0.24381629145E+03  0.14637178902E+03 -0.19349070388E+03  0.35645529425E+03  0.93544854020E+02 0.  0.
          2    1    3    3  502    0  0.13654249414E+03 -0.16248211677E+03 -0.66669999938E+03  0.69966647780E+03  0.00000000000E+00 0. -1.
         -2    1    3    3    0  502  0.39305481849E+02 -0.27171375520E+02 -0.36088484895E+03  0.36403444721E+03  0.00000000000E+00 0.  1.
         11    1    5    5    0    0  0.80607199946E+02  0.13940655578E+02 -0.81345142159E+03  0.81755432715E+03  0.00000000000E+00 0. -1.
        -11    1    5    5    0    0 -0.12638884486E+02  0.29341047698E+02 -0.16192121108E+03  0.16504277348E+03  0.00000000000E+00 0.  1.
          1    1    6    6  503    0 -0.10593565840E+03  0.10014237176E+03 -0.13820439466E+03  0.20087636258E+03  0.00000000000E+00 0. -1.
         -1    1    6    6    0  503 -0.13788063305E+03  0.46229417261E+02 -0.55286309221E+02  0.15557893167E+03  0.00000000000E+00 0.  1.
<mgrwt>
<rscale>  0 0.33248579E+03</rscale>
<asrwt>0</asrwt>
<pdfrwt beam="1">  1        2 0.35378470E+00 0.33248579E+03</pdfrwt>
<pdfrwt beam="2">  1       -2 0.15869627E-01 0.33248579E+03</pdfrwt>
<totfact> 0.15874956E+02</totfact>
</mgrwt>
</event>
<event>
12    1  0.1338445E-007  0.4822785E+03  0.7818608E-02  0.1018511E+00
         -2   -1    0    0    0  501 -0.00000000000E+00  0.00000000000E+00  0.24812574501E+03  0.24812574501E+03  0.00000000000E+00 0.  1.
          2   -1    0    0  501    0  0.00000000000E+00 -0.00000000000E+00 -0.13526391585E+04  0.13526391585E+04  0.00000000000E+00 0. -1.
         23    2    1    2    0    0  0.34155402243E+03 -0.19088361393E+03 -0.60932613816E+03  0.72988154673E+03  0.91394886641E+02 0.  0.
    5000000    2    1    2    0    0 -0.34155402243E+03  0.19088361393E+03 -0.49518727538E+03  0.87088335683E+03  0.60010972264E+03 0.  0.
         23    2    4    4    0    0 -0.12888806229E+03 -0.12068739576E+03  0.47449759223E+02  0.20369619285E+03  0.89794650373E+02 0.  0.
         23    2    4    4    0    0 -0.21266596015E+03  0.31157100968E+03 -0.54263703460E+03  0.66718716399E+03  0.91544829395E+02 0.  0.
          1    1    3    3  502    0  0.32726957248E+03 -0.15452054731E+03 -0.56286332452E+03  0.66917643018E+03  0.00000000000E+00 0. -1.
         -1    1    3    3    0  502  0.14284449955E+02 -0.36363066621E+02 -0.46462813634E+02  0.60705116551E+02  0.00000000000E+00 0.  1.
         11    1    5    5    0    0 -0.98464117438E+02 -0.88878154498E+02 -0.80172404296E+01  0.13288636090E+03  0.00000000000E+00 0.  1.
        -11    1    5    5    0    0 -0.30423944850E+02 -0.31809241257E+02  0.55466999652E+02  0.70809831945E+02  0.00000000000E+00 0. -1.
          2    1    6    6  503    0 -0.18347783752E+03  0.19923593213E+03 -0.35446298487E+03  0.44609761394E+03  0.00000000000E+00 0. -1.
         -2    1    6    6    0  503 -0.29188122623E+02  0.11233507755E+03 -0.18817404972E+03  0.22108955005E+03  0.00000000000E+00 0.  1.
<mgrwt>
<rscale>  0 0.48227854E+03</rscale>
<asrwt>0</asrwt>
<pdfrwt beam="1">  1        2 0.20809833E+00 0.48227854E+03</pdfrwt>
<pdfrwt beam="2">  1       -2 0.38173192E-01 0.48227854E+03</pdfrwt>
<totfact> 0.10438251E+02</totfact>
</mgrwt>
</event>
<event>
12    1  0.1338445E-007  0.5497838E+03  0.7818608E-02  0.1001544E+00
         -2   -1    0    0    0  501 -0.00000000000E+00  0.00000000000E+00  0.11885522783E+03  0.11885522783E+03  0.00000000000E+00 0.  1.
          2   -1    0    0  501    0  0.00000000000E+00 -0.00000000000E+00 -0.31546665228E+04  0.31546665228E+04  0.00000000000E+00 0. -1.
         23    2    1    2    0    0 -0.57174705618E+02  0.45518636250E+03 -0.10729182957E+04  0.11703184079E+04  0.89598745550E+02 0.  0.
    5000000    2    1    2    0    0  0.57174705618E+02 -0.45518636250E+03 -0.19628929993E+04  0.21032033427E+04  0.60004316716E+03 0.  0.
         23    2    4    4    0    0  0.23970972491E+03 -0.29151824599E+03 -0.16536819562E+04  0.16982217499E+04  0.82761462095E+02 0.  0.
         23    2    4    4    0    0 -0.18253501929E+03 -0.16366811651E+03 -0.30921104312E+03  0.40498159282E+03  0.91062262773E+02 0.  0.
          1    1    3    3  502    0 -0.31074962370E+02  0.45881967812E+02 -0.16513754466E+03  0.17418730411E+03  0.00000000000E+00 0. -1.
         -1    1    3    3    0  502 -0.26099743248E+02  0.40930439469E+03 -0.90778075101E+03  0.99613110383E+03  0.00000000000E+00 0.  1.
         11    1    5    5    0    0  0.14494475344E+03 -0.11639225993E+03 -0.72723375867E+03  0.75061646629E+03  0.00000000000E+00 0. -1.
        -11    1    5    5    0    0  0.94764971468E+02 -0.17512598606E+03 -0.92644819754E+03  0.94760528362E+03  0.00000000000E+00 0.  1.
          2    1    6    6  503    0 -0.12224812157E+03 -0.13538509847E+03 -0.16427317274E+03  0.24547790817E+03  0.00000000000E+00 0. -1.
         -2    1    6    6    0  503 -0.60286897720E+02 -0.28283018040E+02 -0.14493787038E+03  0.15950368465E+03  0.00000000000E+00 0.  1.
<mgrwt>
<rscale>  0 0.54978385E+03</rscale>
<asrwt>0</asrwt>
<pdfrwt beam="1">  1        2 0.48533329E+00 0.54978385E+03</pdfrwt>
<pdfrwt beam="2">  1       -2 0.18285420E-01 0.54978385E+03</pdfrwt>
<totfact> 0.38132805E+01</totfact>
</mgrwt>
</event>
<event>
12    1  0.1338445E-007  0.1260611E+04  0.7818608E-02  0.9061398E-01
         -2   -1    0    0    0  501 -0.00000000000E+00  0.00000000000E+00  0.97825480685E+03  0.97825480685E+03  0.00000000000E+00 0.  1.
          2   -1    0    0  501    0  0.00000000000E+00 -0.00000000000E+00 -0.16913303142E+04  0.16913303142E+04  0.00000000000E+00 0. -1.
         23    2    1    2    0    0  0.11520332812E+04 -0.37036856175E+03 -0.44480972268E+03  0.12924976987E+04  0.91329399380E+02 0.  0.
    5000000    2    1    2    0    0 -0.11520332812E+04  0.37036856175E+03 -0.26826578463E+03  0.13770874224E+04  0.60004140288E+03 0.  0.
         23    2    4    4    0    0 -0.11682957369E+04  0.41615882846E+03 -0.27948435143E+03  0.12746381961E+04  0.92129956715E+02 0.  0.
         23    2    4    4    0    0  0.16262455730E+02 -0.45790266717E+02  0.11218566805E+02  0.10244922625E+03  0.89491741104E+02 0.  0.
          4    1    3    3  502    0  0.89519649766E+03 -0.27984144415E+03 -0.38391228359E+03  0.10134478994E+04  0.00000000000E+00 0.  1.
         -4    1    3    3    0  502  0.25683678351E+03 -0.90527117594E+02 -0.60897439095E+02  0.27904979927E+03  0.00000000000E+00 0. -1.
         13    1    5    5    0    0 -0.10708331084E+04  0.39365204417E+03 -0.23349624748E+03  0.11645453944E+04  0.00000000000E+00 0.  1.
        -13    1    5    5    0    0 -0.97462628470E+02  0.22506784292E+02 -0.45988103952E+02  0.11009280173E+03  0.00000000000E+00 0. -1.
          1    1    6    6  503    0 -0.12987609727E+02 -0.37454672952E+02 -0.31064253827E+02  0.50363860040E+02  0.00000000000E+00 0. -1.
         -1    1    6    6    0  503  0.29250065457E+02 -0.83355937658E+01  0.42282820632E+02  0.52085366211E+02  0.00000000000E+00 0.  1.
<mgrwt>
<rscale>  0 0.12606111E+04</rscale>
<asrwt>0</asrwt>
<pdfrwt beam="1">  1        2 0.26020466E+00 0.12606111E+04</pdfrwt>
<pdfrwt beam="2">  1       -2 0.15050074E+00 0.12606111E+04</pdfrwt>
<totfact> 0.28454342E+00</totfact>
</mgrwt>
</event>
<event>
12    1  0.1338445E-007  0.8685209E+03  0.7818608E-02  0.9465810E-01
          2   -1    0    0  501    0  0.00000000000E+00  0.00000000000E+00  0.13520986651E+04  0.13520986651E+04  0.00000000000E+00 0. -1.
         -2   -1    0    0    0  501 -0.00000000000E+00 -0.00000000000E+00 -0.71664959587E+03  0.71664959587E+03  0.00000000000E+00 0.  1.
         23    2    1    2    0    0  0.66910785031E+03  0.52296796253E+03  0.81808545017E+01  0.85435042515E+03  0.92988802552E+02 0.  0.
    5000000    2    1    2    0    0 -0.66910785031E+03 -0.52296796253E+03  0.62726821478E+03  0.12143978359E+04  0.60007989910E+03 0.  0.
         23    2    4    4    0    0 -0.41771220092E+03 -0.17922978119E+03  0.62650479124E+03  0.77942365750E+03  0.91576127620E+02 0.  0.
         23    2    4    4    0    0 -0.25139564938E+03 -0.34373818134E+03  0.76342353474E+00  0.43497417837E+03  0.88579022289E+02 0.  0.
          3    1    3    3  502    0  0.37761108526E+03  0.26876910838E+03 -0.36929931940E+02  0.46496320844E+03  0.00000000000E+00 0. -1.
         -3    1    3    3    0  502  0.29149676505E+03  0.25419885415E+03  0.45110786442E+02  0.38938721671E+03  0.00000000000E+00 0.  1.
         13    1    5    5    0    0 -0.27867156280E+03 -0.80931721186E+02  0.34948641919E+03  0.45425602979E+03  0.00000000000E+00 0.  1.
        -13    1    5    5    0    0 -0.13904063813E+03 -0.98298060000E+02  0.27701837206E+03  0.32516762770E+03  0.00000000000E+00 0. -1.
          3    1    6    6  503    0 -0.15019278483E+03 -0.18875562187E+03  0.43240574491E+02  0.24506387878E+03  0.00000000000E+00 0. -1.
         -3    1    6    6    0  503 -0.10120286455E+03 -0.15498255947E+03 -0.42477150956E+02  0.18991029958E+03  0.00000000000E+00 0.  1.
<mgrwt>
<rscale>  0 0.86852093E+03</rscale>
<asrwt>0</asrwt>
<pdfrwt beam="1">  1        2 0.20801518E+00 0.86852093E+03</pdfrwt>
<pdfrwt beam="2">  1       -2 0.11025378E+00 0.86852093E+03</pdfrwt>
<totfact> 0.10149988E+01</totfact>
</mgrwt>
</event>
<event>
12    1  0.1338445E-007  0.4469297E+03  0.7818608E-02  0.1028642E+00
         -1   -1    0    0    0  501 -0.00000000000E+00  0.00000000000E+00  0.60069532155E+03  0.60069532155E+03  0.00000000000E+00 0.  1.
          1   -1    0    0  501    0  0.00000000000E+00 -0.00000000000E+00 -0.77968138502E+03  0.77968138502E+03  0.00000000000E+00 0. -1.
         23    2    1    2    0    0  0.39447542365E+03 -0.18640648090E+03  0.26214652762E+03  0.51727977030E+03  0.92191772069E+02 0.  0.
    5000000    2    1    2    0    0 -0.39447542365E+03  0.18640648090E+03 -0.44113259109E+03  0.86309693628E+03  0.59998343519E+03 0.  0.
         23    2    4    4    0    0 -0.22586752270E+03  0.13553410525E+03  0.92976435858E+02  0.29350749638E+03  0.90091072300E+02 0.  0.
         23    2    4    4    0    0 -0.16860790095E+03  0.50872375648E+02 -0.53410902695E+03  0.56958943990E+03  0.90238874707E+02 0.  0.
          4    1    3    3  502    0  0.27217582823E+03 -0.10737479178E+03  0.21879756015E+03  0.36535106365E+03  0.00000000000E+00 0.  1.
         -4    1    3    3    0  502  0.12229959542E+03 -0.79031689117E+02  0.43348967471E+02  0.15192870665E+03  0.00000000000E+00 0. -1.
         11    1    5    5    0    0 -0.20897427953E+03  0.96968871356E+02  0.99421635520E+02  0.25091407519E+03  0.00000000000E+00 0.  1.
        -11    1    5    5    0    0 -0.16893243171E+02  0.38565233895E+02 -0.64451996617E+01  0.42593421192E+02  0.00000000000E+00 0. -1.
          1    1    6    6  503    0 -0.50762095427E+02  0.40381641138E+02 -0.30403892454E+03  0.31088122315E+03  0.00000000000E+00 0. -1.
         -1    1    6    6    0  503 -0.11784580552E+03  0.10490734510E+02 -0.23007010241E+03  0.25870821675E+03  0.00000000000E+00 0.  1.
<mgrwt>
<rscale>  0 0.44692970E+03</rscale>
<asrwt>0</asrwt>
<pdfrwt beam="1">  1        1 0.11995098E+00 0.44692970E+03</pdfrwt>
<pdfrwt beam="2">  1       -1 0.92414666E-01 0.44692970E+03</pdfrwt>
<totfact> 0.28077857E+01</totfact>
</mgrwt>
</event>
<event>
12    1  0.1338445E-007  0.1130099E+04  0.7818608E-02  0.9176342E-01
         -2   -1    0    0    0  501 -0.00000000000E+00  0.00000000000E+00  0.42152253007E+03  0.42152253007E+03  0.00000000000E+00 0.  1.
          2   -1    0    0  501    0  0.00000000000E+00 -0.00000000000E+00 -0.36648053670E+04  0.36648053670E+04  0.00000000000E+00 0. -1.
         23    2    1    2    0    0  0.55965887155E+03 -0.89036395221E+03 -0.23666576151E+04  0.25915056134E+04  0.94165053775E+02 0.  0.
    5000000    2    1    2    0    0 -0.55965887155E+03  0.89036395221E+03 -0.87662522188E+03  0.14948222837E+04  0.60004654844E+03 0.  0.
         23    2    4    4    0    0 -0.53510387453E+03  0.95266292875E+03 -0.78287024738E+03  0.13470910155E+04  0.88688035197E+02 0.  0.
         23    2    4    4    0    0 -0.24554997019E+02 -0.62298976535E+02 -0.93754974501E+02  0.14773126815E+03  0.92468491874E+02 0.  0.
          3    1    3    3  502    0  0.36749017519E+03 -0.51112718749E+03 -0.14723766777E+04  0.16013098113E+04  0.00000000000E+00 0. -1.
         -3    1    3    3    0  502  0.19216869636E+03 -0.37923676473E+03 -0.89428093735E+03  0.99019580209E+03  0.00000000000E+00 0.  1.
         11    1    5    5    0    0 -0.46084541746E+03  0.82971143053E+03 -0.64158188592E+03  0.11456120081E+04  0.00000000000E+00 0. -1.
        -11    1    5    5    0    0 -0.74258457065E+02  0.12295149822E+03 -0.14128836146E+03  0.20147900745E+03  0.00000000000E+00 0.  1.
          1    1    6    6  503    0  0.20358266172E+02  0.13678325008E+02 -0.11516747070E+02  0.27095959839E+02  0.00000000000E+00 0. -1.
         -1    1    6    6    0  503 -0.44913263191E+02 -0.75977301542E+02 -0.82238227431E+02  0.12063530831E+03  0.00000000000E+00 0.  1.
<mgrwt>
<rscale>  0 0.11300985E+04</rscale>
<asrwt>0</asrwt>
<pdfrwt beam="1">  1        2 0.56381624E+00 0.11300985E+04</pdfrwt>
<pdfrwt beam="2">  1       -2 0.64849616E-01 0.11300985E+04</pdfrwt>
<totfact> 0.13867876E+00</totfact>
</mgrwt>
</event>
<event>
12    1  0.1783294E-007  0.1538326E+04  0.7818608E-02  0.8859359E-01
          1   -1    0    0  501    0  0.00000000000E+00  0.00000000000E+00  0.32527954577E+04  0.32527954577E+04  0.00000000000E+00 0. -1.
         -1   -1    0    0    0  501 -0.00000000000E+00 -0.00000000000E+00 -0.90452371968E+03  0.90452371968E+03  0.00000000000E+00 0.  1.
         23    2    1    2    0    0  0.13574042039E+04 -0.62062346091E+03  0.25462657116E+03  0.15169719748E+04  0.93003379451E+02 0.  0.
    5000000    2    1    2    0    0 -0.13574042039E+04  0.62062346091E+03  0.20936451669E+04  0.26403472026E+04  0.60030293383E+03 0.  0.
         23    2    4    4    0    0 -0.13279932068E+04  0.44562522480E+03  0.17539112129E+04  0.22464550062E+04  0.90596655739E+02 0.  0.
         23    2    4    4    0    0 -0.29410997124E+02  0.17499823612E+03  0.33973395399E+03  0.39389219636E+03  0.90788289252E+02 0.  0.
          3    1    3    3  502    0  0.41972957428E+03 -0.23954763096E+03  0.86031931912E+02  0.49087419604E+03  0.00000000000E+00 0. -1.
         -3    1    3    3    0  502  0.93767462963E+03 -0.38107582996E+03  0.16859463925E+03  0.10260977788E+04  0.00000000000E+00 0.  1.
         11    1    5    5    0    0 -0.55262025060E+03  0.21937593076E+03  0.79376045340E+03  0.99175127817E+03  0.00000000000E+00 0. -1.
        -11    1    5    5    0    0 -0.77537295619E+03  0.22624929404E+03  0.96015075950E+03  0.12547037281E+04  0.00000000000E+00 0.  1.
          4    1    6    6  503    0 -0.33382860035E+02  0.15805407715E+03  0.22021047249E+03  0.27310832803E+03  0.00000000000E+00 0. -1.
         -4    1    6    6    0  503  0.39718629110E+01  0.16944158967E+02  0.11952348150E+03  0.12078386833E+03  0.00000000000E+00 0.  1.
<mgrwt>
<rscale>  0 0.15383261E+04</rscale>
<asrwt>0</asrwt>
<pdfrwt beam="1">  1        1 0.50043006E+00 0.15383261E+04</pdfrwt>
<pdfrwt beam="2">  1       -1 0.13915750E+00 0.15383261E+04</pdfrwt>
<totfact> 0.15698715E-01</totfact>
</mgrwt>
</event>
<event>
12    1  0.1338445E-007  0.1895198E+04  0.7818608E-02  0.8657250E-01
          1   -1    0    0  501    0  0.00000000000E+00  0.00000000000E+00  0.27724629791E+04  0.27724629791E+04  0.00000000000E+00 0. -1.
         -1   -1    0    0    0  501 -0.00000000000E+00 -0.00000000000E+00 -0.14674149553E+04  0.14674149553E+04  0.00000000000E+00 0.  1.
         23    2    1    2    0    0 -0.18704835687E+04 -0.13281318402E+02  0.12915807231E+04  0.22754450155E+04  0.10287895910E+03 0.  0.
    5000000    2    1    2    0    0  0.18704835687E+04  0.13281318402E+02  0.13467300692E+02  0.19644329189E+04  0.59994178921E+03 0.  0.
         23    2    4    4    0    0  0.64837243863E+03 -0.19277881527E+03 -0.18179030532E+03  0.70639439464E+03  0.91623331486E+02 0.  0.
         23    2    4    4    0    0  0.12221111301E+04  0.20606013367E+03  0.19525760602E+03  0.12580385243E+04  0.92298444578E+02 0.  0.
          3    1    3    3  502    0 -0.72041648588E+03  0.42103659249E+02  0.47745757348E+03  0.86529669231E+03  0.00000000000E+00 0. -1.
         -3    1    3    3    0  502 -0.11500670828E+04 -0.55384977651E+02  0.81412314960E+03  0.14101483232E+04  0.00000000000E+00 0.  1.
         11    1    5    5    0    0  0.40520017790E+03 -0.14143067141E+03 -0.74063368315E+02  0.43551716558E+03  0.00000000000E+00 0. -1.
        -11    1    5    5    0    0  0.24317226073E+03 -0.51348143864E+02 -0.10772693701E+03  0.27087722906E+03  0.00000000000E+00 0.  1.
          2    1    6    6  503    0  0.45589789788E+03  0.63928674135E+02  0.11590194934E+03  0.47472416257E+03  0.00000000000E+00 0.  1.
         -2    1    6    6    0  503  0.76621323221E+03  0.14213145954E+03  0.79355656678E+02  0.78331436170E+03  0.00000000000E+00 0. -1.
<mgrwt>
<rscale>  0 0.18951981E+04</rscale>
<asrwt>0</asrwt>
<pdfrwt beam="1">  1        1 0.42653277E+00 0.18951981E+04</pdfrwt>
<pdfrwt beam="2">  1       -1 0.22575615E+00 0.18951981E+04</pdfrwt>
<totfact> 0.79222392E-02</totfact>
</mgrwt>
</event>
<event>
12    1  0.1338445E-007  0.1062314E+04  0.7818608E-02  0.9242722E-01
         -1   -1    0    0    0  501 -0.00000000000E+00  0.00000000000E+00  0.87244174355E+03  0.87244174355E+03  0.00000000000E+00 0.  1.
          1   -1    0    0  501    0  0.00000000000E+00 -0.00000000000E+00 -0.16682809570E+04  0.16682809570E+04  0.00000000000E+00 0. -1.
         23    2    1    2    0    0  0.10076660993E+04 -0.63588511224E+02 -0.90794096350E+03  0.13608043436E+04  0.89427076324E+02 0.  0.
    5000000    2    1    2    0    0 -0.10076660993E+04  0.63588511224E+02  0.11210175005E+03  0.11799183570E+04  0.60017169241E+03 0.  0.
         23    2    4    4    0    0 -0.98678777788E+03  0.17052759620E+03  0.18036206051E+03  0.10215954112E+04  0.91087494285E+02 0.  0.
         23    2    4    4    0    0 -0.20878321375E+02 -0.10693908498E+03 -0.68260310463E+02  0.15832294579E+03  0.92384051535E+02 0.  0.
          2    1    3    3  502    0  0.53835684742E+03 -0.16633844658E+02 -0.42865262994E+03  0.68836607783E+03  0.00000000000E+00 0. -1.
         -2    1    3    3    0  502  0.46930925184E+03 -0.46954666566E+02 -0.47928833356E+03  0.67243826576E+03  0.00000000000E+00 0.  1.
         11    1    5    5    0    0 -0.43435999514E+03  0.48206767966E+02  0.11585032948E+03  0.45212144020E+03  0.00000000000E+00 0.  1.
        -11    1    5    5    0    0 -0.55242778275E+03  0.12232082824E+03  0.64511731030E+02  0.56947397097E+03  0.00000000000E+00 0. -1.
          1    1    6    6  503    0 -0.15892951687E+02 -0.26269756788E+02 -0.71103946044E+02  0.77449707411E+02  0.00000000000E+00 0. -1.
         -1    1    6    6    0  503 -0.49853696877E+01 -0.80669328192E+02  0.28436355815E+01  0.80873238375E+02  0.00000000000E+00 0.  1.
<mgrwt>
<rscale>  0 0.10623138E+04</rscale>
<asrwt>0</asrwt>
<pdfrwt beam="1">  1        1 0.25665861E+00 0.10623138E+04</pdfrwt>
<pdfrwt beam="2">  1       -1 0.13422181E+00 0.10623138E+04</pdfrwt>
<totfact> 0.23390899E+00</totfact>
</mgrwt>
</event>
<event>
12    1  0.1338445E-007  0.6916593E+03  0.7818608E-02  0.9731603E-01
         -1   -1    0    0    0  501 -0.00000000000E+00  0.00000000000E+00  0.11934025832E+03  0.11934025832E+03  0.00000000000E+00 0.  1.
          1   -1    0    0  501    0  0.00000000000E+00 -0.00000000000E+00 -0.51346077879E+04  0.51346077879E+04  0.00000000000E+00 0. -1.
         23    2    1    2    0    0  0.50710916083E+03 -0.25525831155E+03 -0.33094357175E+04  0.33590016111E+04  0.90612075473E+02 0.  0.
    5000000    2    1    2    0    0 -0.50710916083E+03  0.25525831155E+03 -0.17058318120E+04  0.18949464351E+04  0.59886836148E+03 0.  0.
         23    2    4    4    0    0 -0.61610851458E+03  0.27487878654E+03 -0.13526504753E+04  0.15141263957E+04  0.88132767471E+02 0.  0.
         23    2    4    4    0    0  0.10899935375E+03 -0.19620474987E+02 -0.35318133670E+03  0.38082003941E+03  0.89560167861E+02 0.  0.
          1    1    3    3  502    0  0.10301766942E+03 -0.16418446417E+02 -0.52238611485E+03  0.53270015823E+03  0.00000000000E+00 0. -1.
         -1    1    3    3    0  502  0.40409149142E+03 -0.23883986514E+03 -0.27870496027E+04  0.28263014529E+04  0.00000000000E+00 0.  1.
         13    1    5    5    0    0 -0.28718168708E+03  0.11252331970E+03 -0.71115029542E+03  0.77515776559E+03  0.00000000000E+00 0. -1.
        -13    1    5    5    0    0 -0.32892682751E+03  0.16235546684E+03 -0.64150017991E+03  0.73896863011E+03  0.00000000000E+00 0.  1.
          1    1    6    6  503    0  0.17196093462E+02  0.26517417746E+02 -0.14817021434E+03  0.15150343723E+03  0.00000000000E+00 0. -1.
         -1    1    6    6    0  503  0.91803260289E+02 -0.46137892734E+02 -0.20501112235E+03  0.22931660218E+03  0.00000000000E+00 0.  1.
<mgrwt>
<rscale>  0 0.69165934E+03</rscale>
<asrwt>0</asrwt>
<pdfrwt beam="1">  1        1 0.78993946E+00 0.69165934E+03</pdfrwt>
<pdfrwt beam="2">  1       -1 0.18360044E-01 0.69165934E+03</pdfrwt>
<totfact> 0.16103958E-01</totfact>
</mgrwt>
</event>
<event>
12    1  0.1338445E-007  0.7249130E+03  0.7818608E-02  0.9675551E-01
          2   -1    0    0  501    0  0.00000000000E+00  0.00000000000E+00  0.27265769434E+04  0.27265769434E+04  0.00000000000E+00 0. -1.
         -2   -1    0    0    0  501 -0.00000000000E+00 -0.00000000000E+00 -0.41563229118E+03  0.41563229118E+03  0.00000000000E+00 0.  1.
         23    2    1    2    0    0  0.71892289326E+03  0.51587010266E+02  0.90665059358E+02  0.73203394495E+03  0.90234126015E+02 0.  0.
    5000000    2    1    2    0    0 -0.71892289326E+03 -0.51587010266E+02  0.22202795929E+04  0.24101752896E+04  0.59982673344E+03 0.  0.
         23    2    4    4    0    0 -0.43293715886E+03 -0.24614372289E+02  0.51871759779E+03  0.68218574291E+03  0.90933991025E+02 0.  0.
         23    2    4    4    0    0 -0.28598573439E+03 -0.26972637977E+02  0.17015619951E+04  0.17279895467E+04  0.90107086292E+02 0.  0.
          4    1    3    3  502    0  0.44146957029E+03  0.12147350364E+02  0.15599293881E+02  0.44191206997E+03  0.00000000000E+00 0. -1.
         -4    1    3    3    0  502  0.27745332296E+03  0.39439659902E+02  0.75065765477E+02  0.29012187498E+03  0.00000000000E+00 0.  1.
         13    1    5    5    0    0 -0.73371873621E+01  0.32023227257E+01 -0.27920839055E+01  0.84784976123E+01  0.00000000000E+00 0. -1.
        -13    1    5    5    0    0 -0.42559997150E+03 -0.27816695014E+02  0.52150968170E+03  0.67370724530E+03  0.00000000000E+00 0.  1.
          2    1    6    6  503    0 -0.22651938924E+02 -0.19666771599E+02  0.85797806751E+02  0.90890901005E+02  0.00000000000E+00 0. -1.
         -2    1    6    6    0  503 -0.26333379547E+03 -0.73058663782E+01  0.16157641883E+04  0.16370986457E+04  0.00000000000E+00 0.  1.
<mgrwt>
<rscale>  0 0.72491302E+03</rscale>
<asrwt>0</asrwt>
<pdfrwt beam="1">  1        2 0.41947336E+00 0.72491302E+03</pdfrwt>
<pdfrwt beam="2">  1       -2 0.63943431E-01 0.72491302E+03</pdfrwt>
<totfact> 0.61450985E+00</totfact>
</mgrwt>
</event>
<event>
12    1  0.1338445E-007  0.7733033E+03  0.7818608E-02  0.9599484E-01
          2   -1    0    0  501    0  0.00000000000E+00  0.00000000000E+00  0.77993962136E+03  0.77993962136E+03  0.00000000000E+00 0. -1.
         -2   -1    0    0    0  501 -0.00000000000E+00 -0.00000000000E+00 -0.10407281429E+04  0.10407281429E+04  0.00000000000E+00 0.  1.
         23    2    1    2    0    0 -0.63813767272E+03  0.39009371323E+03 -0.39769108801E+03  0.85209743495E+03  0.92298660485E+02 0.  0.
    5000000    2    1    2    0    0  0.63813767272E+03 -0.39009371323E+03  0.13690256644E+03  0.96857032934E+03  0.59999447976E+03 0.  0.
         23    2    4    4    0    0  0.47098595624E+03 -0.14294072869E+03 -0.17213075307E+03  0.52916719717E+03  0.90161541245E+02 0.  0.
         23    2    4    4    0    0  0.16715171648E+03 -0.24715298455E+03  0.30903331951E+03  0.43940313217E+03  0.92462024089E+02 0.  0.
          3    1    3    3  502    0 -0.46779173720E+03  0.29283770905E+03 -0.24650012256E+03  0.60443803955E+03  0.00000000000E+00 0. -1.
         -3    1    3    3    0  502 -0.17034593551E+03  0.97256004183E+02 -0.15119096545E+03  0.24765939540E+03  0.00000000000E+00 0.  1.
         11    1    5    5    0    0  0.41496273748E+03 -0.93418711541E+02 -0.14016059347E+03  0.44784609089E+03  0.00000000000E+00 0.  1.
        -11    1    5    5    0    0  0.56023218756E+02 -0.49522017144E+02 -0.31970159601E+02  0.81321106281E+02  0.00000000000E+00 0. -1.
          2    1    6    6  503    0  0.13586941055E+03 -0.20531815337E+03  0.29703530635E+03  0.38580566876E+03  0.00000000000E+00 0. -1.
         -2    1    6    6    0  503  0.31282305933E+02 -0.41834831178E+02  0.11998013156E+02  0.53597463409E+02  0.00000000000E+00 0.  1.
<mgrwt>
<rscale>  0 0.77330330E+03</rscale>
<asrwt>0</asrwt>
<pdfrwt beam="1">  1        2 0.11999071E+00 0.77330330E+03</pdfrwt>
<pdfrwt beam="2">  1       -2 0.16011202E+00 0.77330330E+03</pdfrwt>
<totfact> 0.90833148E+00</totfact>
</mgrwt>
</event>
<event>
12    1  0.1338445E-007  0.4303941E+03  0.7818608E-02  0.1033736E+00
         -2   -1    0    0    0  501 -0.00000000000E+00  0.00000000000E+00  0.14883251582E+03  0.14883251582E+03  0.00000000000E+00 0. -1.
          2   -1    0    0  501    0  0.00000000000E+00 -0.00000000000E+00 -0.16094450091E+04  0.16094450091E+04  0.00000000000E+00 0.  1.
         23    2    1    2    0    0 -0.27589221285E+03  0.32858511442E+02 -0.28020297818E+03  0.40509133367E+03  0.91591946996E+02 0.  0.
    5000000    2    1    2    0    0  0.27589221285E+03 -0.32858511442E+02 -0.11804095151E+04  0.13531861913E+04  0.60045820002E+03 0.  0.
         23    2    4    4    0    0  0.18128921526E+03 -0.25518763950E+03 -0.95949221343E+03  0.10132957252E+04  0.90312834811E+02 0.  0.
         23    2    4    4    0    0  0.94602997590E+02  0.22232912805E+03 -0.22091730168E+03  0.33989046607E+03  0.91329657894E+02 0.  0.
          2    1    3    3  502    0 -0.15683319807E+03 -0.22695322264E+02 -0.18029242271E+03  0.24003559602E+03  0.00000000000E+00 0.  1.
         -2    1    3    3    0  502 -0.11905901477E+03  0.55553833706E+02 -0.99910555466E+02  0.16505573765E+03  0.00000000000E+00 0. -1.
         13    1    5    5    0    0  0.51550042155E+01 -0.85303195663E+01 -0.12622730775E+03  0.12662019445E+03  0.00000000000E+00 0. -1.
        -13    1    5    5    0    0  0.17613421104E+03 -0.24665731993E+03 -0.83326490568E+03  0.88667553074E+03  0.00000000000E+00 0.  1.
          3    1    6    6  503    0  0.57192488279E+02  0.21126653602E+03 -0.19421025394E+03  0.29261263249E+03  0.00000000000E+00 0. -1.
         -3    1    6    6    0  503  0.37410509311E+02  0.11062592039E+02 -0.26707047736E+02  0.47277833583E+02  0.00000000000E+00 0.  1.
<mgrwt>
<rscale>  0 0.43039406E+03</rscale>
<asrwt>0</asrwt>
<pdfrwt beam="1">  1        2 0.24760694E+00 0.43039406E+03</pdfrwt>
<pdfrwt beam="2">  1       -2 0.22897308E-01 0.43039406E+03</pdfrwt>
<totfact> 0.19437844E+02</totfact>
</mgrwt>
</event>
<event>
12    1  0.1338445E-007  0.6054926E+03  0.7818608E-02  0.9894076E-01
          2   -1    0    0  501    0  0.00000000000E+00  0.00000000000E+00  0.52774583529E+03  0.52774583529E+03  0.00000000000E+00 0. -1.
         -2   -1    0    0    0  501 -0.00000000000E+00 -0.00000000000E+00 -0.79128650423E+03  0.79128650423E+03  0.00000000000E+00 0.  1.
         23    2    1    2    0    0 -0.12046990291E+03  0.45059002909E+03 -0.29317718001E+03  0.55847770452E+03  0.91652145322E+02 0.  0.
    5000000    2    1    2    0    0  0.12046990291E+03 -0.45059002909E+03  0.29636511074E+02  0.76055463500E+03  0.60001721492E+03 0.  0.
         23    2    4    4    0    0 -0.19310584774E+03 -0.36437852395E+03  0.94565659889E+01  0.42222023439E+03  0.90105063906E+02 0.  0.
         23    2    4    4    0    0  0.31357575065E+03 -0.86211505144E+02  0.20179945085E+02  0.33833440061E+03  0.91108514621E+02 0.  0.
          2    1    3    3  502    0 -0.87286169084E+02  0.23578880528E+03 -0.11083831672E+03  0.27477330377E+03  0.00000000000E+00 0. -1.
         -2    1    3    3    0  502 -0.33183733826E+02  0.21480122381E+03 -0.18233886328E+03  0.28370440075E+03  0.00000000000E+00 0.  1.
         13    1    5    5    0    0 -0.12372379112E+03 -0.18623698637E+03  0.44192982112E+02  0.22791404356E+03  0.00000000000E+00 0. -1.
        -13    1    5    5    0    0 -0.69382056614E+02 -0.17814153758E+03 -0.34736416123E+02  0.19430619083E+03  0.00000000000E+00 0.  1.
          3    1    6    6  503    0  0.15522872570E+03 -0.62473085012E+02  0.51723431036E+02  0.17514039212E+03  0.00000000000E+00 0. -1.
         -3    1    6    6    0  503  0.15834702495E+03 -0.23738420131E+02 -0.31543485951E+02  0.16319400849E+03  0.00000000000E+00 0.  1.
<mgrwt>
<rscale>  0 0.60549262E+03</rscale>
<asrwt>0</asrwt>
<pdfrwt beam="1">  1        2 0.81191667E-01 0.60549262E+03</pdfrwt>
<pdfrwt beam="2">  1       -2 0.12173638E+00 0.60549262E+03</pdfrwt>
<totfact> 0.30363082E+01</totfact>
</mgrwt>
</event>
<event>
12    1  0.1338445E-007  0.6143900E+03  0.7818608E-02  0.9875993E-01
         -3   -1    0    0    0  501 -0.00000000000E+00  0.00000000000E+00  0.13317731790E+04  0.13317731790E+04  0.00000000000E+00 0.  1.
          3   -1    0    0  501    0  0.00000000000E+00 -0.00000000000E+00 -0.36393012481E+03  0.36393012481E+03  0.00000000000E+00 0. -1.
         23    2    1    2    0    0 -0.42057082679E+03  0.22169940960E+03  0.76219670836E+03  0.90307428723E+03  0.92568339358E+02 0.  0.
    5000000    2    1    2    0    0  0.42057082679E+03 -0.22169940960E+03  0.20564634583E+03  0.79262901658E+03  0.59994990608E+03 0.  0.
         23    2    4    4    0    0  0.32408534401E+03 -0.40542480935E+03  0.83341767836E+02  0.53401128146E+03  0.93923438083E+02 0.  0.
         23    2    4    4    0    0  0.96485482777E+02  0.18372539975E+03  0.12230457799E+03  0.25861773512E+03  0.94128912777E+02 0.  0.
          1    1    3    3  502    0 -0.23505938442E+03  0.72976689643E+02  0.40736250912E+03  0.47594403586E+03  0.00000000000E+00 0. -1.
         -1    1    3    3    0  502 -0.18551144237E+03  0.14872271995E+03  0.35483419924E+03  0.42713025136E+03  0.00000000000E+00 0.  1.
         11    1    5    5    0    0  0.40658293074E+02 -0.16608074744E+02  0.21498522975E+02  0.48898992142E+02  0.00000000000E+00 0. -1.
        -11    1    5    5    0    0  0.28342705094E+03 -0.38881673460E+03  0.61843244861E+02  0.48511228932E+03  0.00000000000E+00 0.  1.
          1    1    6    6  503    0 -0.76406794860E+01 -0.10553807871E+01  0.23310723306E+02  0.24553688780E+02  0.00000000000E+00 0. -1.
         -1    1    6    6    0  503  0.10412616226E+03  0.18478078054E+03  0.98993854688E+02  0.23406404634E+03  0.00000000000E+00 0.  1.
<mgrwt>
<rscale>  0 0.61439001E+03</rscale>
<asrwt>0</asrwt>
<pdfrwt beam="1">  1        3 0.55989251E-01 0.61439001E+03</pdfrwt>
<pdfrwt beam="2">  1       -3 0.20488818E+00 0.61439001E+03</pdfrwt>
<totfact> 0.11292669E+00</totfact>
</mgrwt>
</event>
<event>
12    1  0.1338445E-007  0.5201698E+03  0.7818608E-02  0.1008644E+00
          1   -1    0    0  501    0  0.00000000000E+00  0.00000000000E+00  0.78009683338E+03  0.78009683338E+03  0.00000000000E+00 0. -1.
         -1   -1    0    0    0  501 -0.00000000000E+00 -0.00000000000E+00 -0.52090167915E+03  0.52090167915E+03  0.00000000000E+00 0.  1.
         23    2    1    2    0    0 -0.45486714450E+03 -0.17391939706E+03  0.16650059240E+03  0.52267708640E+03  0.91196565476E+02 0.  0.
    5000000    2    1    2    0    0  0.45486714450E+03  0.17391939706E+03  0.92694561825E+02  0.77832142612E+03  0.60003323637E+03 0.  0.
         23    2    4    4    0    0  0.46468077347E+02 -0.36928019360E+02  0.25857269940E+03  0.28075147474E+03  0.91861792212E+02 0.  0.
         23    2    4    4    0    0  0.40839906716E+03  0.21084741642E+03 -0.16587813758E+03  0.49756995138E+03  0.93882207718E+02 0.  0.
          1    1    3    3  502    0 -0.20368997750E+03 -0.97502166248E+02  0.12107075172E+03  0.25623115790E+03  0.00000000000E+00 0. -1.
         -1    1    3    3    0  502 -0.25117716700E+03 -0.76417230815E+02  0.45429840676E+02  0.26644592850E+03  0.00000000000E+00 0.  1.
         11    1    5    5    0    0 -0.11765735138E+02 -0.28416859541E+02  0.24293906182E+02  0.39193676876E+02  0.00000000000E+00 0. -1.
        -11    1    5    5    0    0  0.58233812485E+02 -0.85111598198E+01  0.23427879322E+03  0.24155779787E+03  0.00000000000E+00 0.  1.
          2    1    6    6  503    0  0.50885754420E+02  0.46311629690E+02 -0.56677632687E+02  0.89143037274E+02  0.00000000000E+00 0. -1.
         -2    1    6    6    0  503  0.35751331274E+03  0.16453578673E+03 -0.10920050489E+03  0.40842691411E+03  0.00000000000E+00 0.  1.
<mgrwt>
<rscale>  0 0.52016981E+03</rscale>
<asrwt>0</asrwt>
<pdfrwt beam="1">  1        1 0.12001490E+00 0.52016981E+03</pdfrwt>
<pdfrwt beam="2">  1       -1 0.80138720E-01 0.52016981E+03</pdfrwt>
<totfact> 0.37669687E+01</totfact>
</mgrwt>
</event>
<event>
12    1  0.1338445E-007  0.6685320E+03  0.7818608E-02  0.9772613E-01
          1   -1    0    0  501    0  0.00000000000E+00  0.00000000000E+00  0.14949132817E+04  0.14949132817E+04  0.00000000000E+00 0. -1.
         -1   -1    0    0    0  501 -0.00000000000E+00 -0.00000000000E+00 -0.54540495876E+03  0.54540495876E+03  0.00000000000E+00 0.  1.
         23    2    1    2    0    0 -0.51406264520E+03  0.40885638905E+03  0.94004029267E+03  0.11506438016E+04  0.94241478636E+02 0.  0.
    5000000    2    1    2    0    0  0.51406264520E+03 -0.40885638905E+03  0.94680303011E+01  0.88967443888E+03  0.60000584460E+03 0.  0.
         23    2    4    4    0    0  0.21894115329E+03 -0.14066371235E+03  0.28474278993E+03  0.39641254877E+03  0.91339716638E+02 0.  0.
         23    2    4    4    0    0  0.29512149191E+03 -0.26819267670E+03 -0.27527475963E+03  0.49326189011E+03  0.92233898999E+02 0.  0.
          4    1    3    3  502    0 -0.97060567097E+02  0.41656168160E+02  0.18755008575E+03  0.21524642784E+03  0.00000000000E+00 0. -1.
         -4    1    3    3    0  502 -0.41700207810E+03  0.36720022089E+03  0.75249020691E+03  0.93539737377E+03  0.00000000000E+00 0.  1.
         13    1    5    5    0    0  0.79901569328E+02 -0.85218504626E+02  0.75321349619E+02  0.13899553957E+03  0.00000000000E+00 0. -1.
        -13    1    5    5    0    0  0.13903958396E+03 -0.55445207722E+02  0.20942144031E+03  0.25741700921E+03  0.00000000000E+00 0.  1.
          1    1    6    6  503    0  0.84546888073E+02 -0.13767343906E+03 -0.10896635246E+03  0.19487385169E+03  0.00000000000E+00 0. -1.
         -1    1    6    6    0  503  0.21057460384E+03 -0.13051923764E+03 -0.16630840717E+03  0.29838803842E+03  0.00000000000E+00 0.  1.
<mgrwt>
<rscale>  0 0.66853201E+03</rscale>
<asrwt>0</asrwt>
<pdfrwt beam="1">  1        1 0.22998666E+00 0.66853201E+03</pdfrwt>
<pdfrwt beam="2">  1       -1 0.83908456E-01 0.66853201E+03</pdfrwt>
<totfact> 0.97700153E+00</totfact>
</mgrwt>
</event>
<event>
12    1  0.1338445E-007  0.1029326E+04  0.7818608E-02  0.9276953E-01
          1   -1    0    0  501    0  0.00000000000E+00  0.00000000000E+00  0.57661745640E+03  0.57661745640E+03  0.00000000000E+00 0. -1.
         -1   -1    0    0    0  501 -0.00000000000E+00 -0.00000000000E+00 -0.25259427020E+04  0.25259427020E+04  0.00000000000E+00 0.  1.
         23    2    1    2    0    0 -0.93886458043E+03 -0.36898352298E+03 -0.26054833707E+03  0.10459838776E+04  0.92635283129E+02 0.  0.
    5000000    2    1    2    0    0  0.93886458043E+03  0.36898352298E+03 -0.16887769085E+04  0.20565762808E+04  0.59993583925E+03 0.  0.
         23    2    4    4    0    0  0.48792188303E+03  0.70254977863E+02 -0.12726602189E+04  0.13676620263E+04  0.88497794349E+02 0.  0.
         23    2    4    4    0    0  0.45094269739E+03  0.29872854512E+03 -0.41611668959E+03  0.68891425441E+03  0.94136552815E+02 0.  0.
          2    1    3    3  502    0 -0.45203095226E+03 -0.13224261279E+03 -0.10194993345E+03  0.48188575344E+03  0.00000000000E+00 0. -1.
         -2    1    3    3    0  502 -0.48683362817E+03 -0.23674091019E+03 -0.15859840362E+03  0.56409812418E+03  0.00000000000E+00 0.  1.
         13    1    5    5    0    0  0.24996177153E+03  0.75200348061E+02 -0.72324456072E+03  0.76890745489E+03  0.00000000000E+00 0.  1.
        -13    1    5    5    0    0  0.23796011150E+03 -0.49453701981E+01 -0.54941565821E+03  0.59875457145E+03  0.00000000000E+00 0. -1.
          4    1    6    6  503    0  0.69656228304E+02  0.86013548090E+02 -0.62800285637E+02  0.12725642016E+03  0.00000000000E+00 0. -1.
         -4    1    6    6    0  503  0.38128646909E+03  0.21271499703E+03 -0.35331640395E+03  0.56165783425E+03  0.00000000000E+00 0.  1.
<mgrwt>
<rscale>  0 0.10293258E+04</rscale>
<asrwt>0</asrwt>
<pdfrwt beam="1">  1        1 0.88710378E-01 0.10293258E+04</pdfrwt>
<pdfrwt beam="2">  1       -1 0.38860657E+00 0.10293258E+04</pdfrwt>
<totfact> 0.31649890E-01</totfact>
</mgrwt>
</event>
<event>
12    1  0.1338445E-007  0.1260799E+04  0.7818608E-02  0.9061243E-01
         -2   -1    0    0    0  501 -0.00000000000E+00  0.00000000000E+00  0.72984597792E+03  0.72984597792E+03  0.00000000000E+00 0.  1.
          2   -1    0    0  501    0  0.00000000000E+00 -0.00000000000E+00 -0.24711804239E+04  0.24711804239E+04  0.00000000000E+00 0. -1.
         23    2    1    2    0    0  0.11822547133E+04  0.23212002347E+03 -0.33278028334E+03  0.12528461826E+04  0.85293188237E+02 0.  0.
    5000000    2    1    2    0    0 -0.11822547133E+04 -0.23212002347E+03 -0.14085541626E+04  0.19481802192E+04  0.59981282494E+03 0.  0.
         23    2    4    4    0    0 -0.21956016693E+03  0.15272418679E+03 -0.16249425104E+03  0.32471746080E+03  0.86635463822E+02 0.  0.
         23    2    4    4    0    0 -0.96269454635E+03 -0.38484421025E+03 -0.12460599116E+04  0.16234627584E+04  0.89889759392E+02 0.  0.
          1    1    3    3  502    0  0.48153451406E+03  0.87541604360E+02 -0.17819074421E+03  0.52085598974E+03  0.00000000000E+00 0. -1.
         -1    1    3    3    0  502  0.70072019922E+03  0.14457841911E+03 -0.15458953913E+03  0.73199019288E+03  0.00000000000E+00 0.  1.
         11    1    5    5    0    0 -0.18939874286E+03  0.15688911900E+03 -0.16155536714E+03  0.29425535868E+03  0.00000000000E+00 0.  1.
        -11    1    5    5    0    0 -0.30161424073E+02 -0.41649322162E+01 -0.93888389735E+00  0.30462102118E+02  0.00000000000E+00 0. -1.
          3    1    6    6  503    0 -0.35186785598E+03 -0.18550505618E+03 -0.45598573170E+03  0.60510007557E+03  0.00000000000E+00 0. -1.
         -3    1    6    6    0  503 -0.61082669037E+03 -0.19933915407E+03 -0.79007417988E+03  0.10183626828E+04  0.00000000000E+00 0.  1.
<mgrwt>
<rscale>  0 0.12607986E+04</rscale>
<asrwt>0</asrwt>
<pdfrwt beam="1">  1        2 0.38018161E+00 0.12607986E+04</pdfrwt>
<pdfrwt beam="2">  1       -2 0.11228400E+00 0.12607986E+04</pdfrwt>
<totfact> 0.22034253E+00</totfact>
</mgrwt>
</event>
<event>
12    1  0.1338445E-007  0.5300653E+03  0.7818608E-02  0.1006216E+00
         -2   -1    0    0    0  501 -0.00000000000E+00  0.00000000000E+00  0.29700173150E+03  0.29700173150E+03  0.00000000000E+00 0. -1.
          2   -1    0    0  501    0  0.00000000000E+00 -0.00000000000E+00 -0.15443245411E+04  0.15443245411E+04  0.00000000000E+00 0.  1.
         23    2    1    2    0    0 -0.17480067489E+03  0.47572233500E+03 -0.25147242294E+03  0.57300142151E+03  0.90693073611E+02 0.  0.
    5000000    2    1    2    0    0  0.17480067489E+03 -0.47572233500E+03 -0.99585038663E+03  0.12683248511E+04  0.60005243049E+03 0.  0.
         23    2    4    4    0    0  0.14623581897E+03 -0.43613233969E+03 -0.28370948081E+03  0.54861940706E+03  0.94317823496E+02 0.  0.
         23    2    4    4    0    0  0.28564855919E+02 -0.39589995306E+02 -0.71214090582E+03  0.71970544401E+03  0.91912663299E+02 0.  0.
          2    1    3    3  502    0 -0.39878891031E+02  0.96177354741E+02 -0.13090232590E+02  0.10493695109E+03  0.00000000000E+00 0. -1.
         -2    1    3    3    0  502 -0.13492178386E+03  0.37954498025E+03 -0.23838219035E+03  0.46806447042E+03  0.00000000000E+00 0.  1.
         11    1    5    5    0    0  0.37996512671E+02 -0.78464135873E+02 -0.98542921503E+02  0.13157151277E+03  0.00000000000E+00 0. -1.
        -11    1    5    5    0    0  0.10823930630E+03 -0.35766820382E+03 -0.18516655931E+03  0.41704789429E+03  0.00000000000E+00 0.  1.
          3    1    6    6  503    0 -0.40427896246E+01 -0.55780634183E+02 -0.25223419716E+03  0.25836004628E+03  0.00000000000E+00 0. -1.
         -3    1    6    6    0  503  0.32607645544E+02  0.16190638877E+02 -0.45990670866E+03  0.46134539773E+03  0.00000000000E+00 0.  1.
<mgrwt>
<rscale>  0 0.53006531E+03</rscale>
<asrwt>0</asrwt>
<pdfrwt beam="1">  1        2 0.23758839E+00 0.53006531E+03</pdfrwt>
<pdfrwt beam="2">  1       -2 0.45692574E-01 0.53006531E+03</pdfrwt>
<totfact> 0.57150186E+01</totfact>
</mgrwt>
</event>
<event>
12    1  0.1338445E-007  0.3562479E+03  0.7818608E-02  0.1060079E+00
          1   -1    0    0  501    0  0.00000000000E+00  0.00000000000E+00  0.98767528870E+03  0.98767528870E+03  0.00000000000E+00 0. -1.
         -1   -1    0    0    0  501 -0.00000000000E+00 -0.00000000000E+00 -0.53532577338E+03  0.53532577338E+03  0.00000000000E+00 0.  1.
         23    2    1    2    0    0  0.32848351818E+02 -0.34180247318E+03  0.70280457408E+03  0.78746955380E+03  0.90918006586E+02 0.  0.
    5000000    2    1    2    0    0 -0.32848351818E+02  0.34180247318E+03 -0.25045505876E+03  0.73553150829E+03  0.60030901904E+03 0.  0.
         23    2    4    4    0    0 -0.17424417152E+02  0.30816508708E+03 -0.42754929863E+03  0.53526961377E+03  0.91901172264E+02 0.  0.
         23    2    4    4    0    0 -0.15423934666E+02  0.33637386096E+02  0.17709423987E+03  0.20026189451E+03  0.85866670457E+02 0.  0.
          3    1    3    3  502    0  0.47233173068E+02 -0.22782232259E+03  0.54212891385E+03  0.58994723708E+03  0.00000000000E+00 0. -1.
         -3    1    3    3    0  502 -0.14384821251E+02 -0.11398015058E+03  0.16067566023E+03  0.19752231672E+03  0.00000000000E+00 0.  1.
         11    1    5    5    0    0 -0.45986660979E+01  0.20143119214E+03 -0.34579641123E+03  0.40021348168E+03  0.00000000000E+00 0.  1.
        -11    1    5    5    0    0 -0.12825751054E+02  0.10673389494E+03 -0.81752887400E+02  0.13505613210E+03  0.00000000000E+00 0. -1.
          3    1    6    6  503    0  0.11123274448E+02  0.26086291115E+02  0.87614180822E+01  0.29681379102E+02  0.00000000000E+00 0. -1.
         -3    1    6    6    0  503 -0.26547209115E+02  0.75510949808E+01  0.16833282179E+03  0.17058051541E+03  0.00000000000E+00 0.  1.
<mgrwt>
<rscale>  0 0.35624793E+03</rscale>
<asrwt>0</asrwt>
<pdfrwt beam="1">  1        1 0.15195004E+00 0.35624793E+03</pdfrwt>
<pdfrwt beam="2">  1       -1 0.82357811E-01 0.35624793E+03</pdfrwt>
<totfact> 0.24911233E+01</totfact>
</mgrwt>
</event>
<event>
12    1  0.1338445E-007  0.1562589E+04  0.7818608E-02  0.8843866E-01
          2   -1    0    0  501    0  0.00000000000E+00  0.00000000000E+00  0.20309702443E+04  0.20309702443E+04  0.00000000000E+00 0. -1.
         -2   -1    0    0    0  501 -0.00000000000E+00 -0.00000000000E+00 -0.12935223402E+04  0.12935223402E+04  0.00000000000E+00 0.  1.
         23    2    1    2    0    0 -0.44773845693E+02  0.15570777733E+04  0.49963339482E+03  0.16383960258E+04  0.90620741441E+02 0.  0.
    5000000    2    1    2    0    0  0.44773845693E+02 -0.15570777733E+04  0.23781450928E+03  0.16860965587E+04  0.59989163593E+03 0.  0.
         23    2    4    4    0    0  0.83441797053E+02 -0.48331324945E+03  0.34033928472E+03  0.60285101152E+03  0.83930225657E+02 0.  0.
         23    2    4    4    0    0 -0.38667951360E+02 -0.10737645239E+04 -0.10252477544E+03  0.10832455471E+04  0.91891907281E+02 0.  0.
          2    1    3    3  502    0 -0.33937639885E+01  0.76910796078E+03  0.20330401747E+03  0.79553195818E+03  0.00000000000E+00 0. -1.
         -2    1    3    3    0  502 -0.41380081704E+02  0.78796981254E+03  0.29632937735E+03  0.84286406764E+03  0.00000000000E+00 0.  1.
         13    1    5    5    0    0  0.33111388897E+02 -0.24582691176E+03  0.22155687959E+03  0.33258786134E+03  0.00000000000E+00 0.  1.
        -13    1    5    5    0    0  0.50330408156E+02 -0.23748633770E+03  0.11878240513E+03  0.27026315018E+03  0.00000000000E+00 0. -1.
          3    1    6    6  503    0 -0.34932373472E+01 -0.82014053167E+03 -0.48663829849E+02  0.82159044708E+03  0.00000000000E+00 0. -1.
         -3    1    6    6    0  503 -0.35174714013E+02 -0.25362399220E+03 -0.53860945591E+02  0.26165510005E+03  0.00000000000E+00 0.  1.
<mgrwt>
<rscale>  0 0.15625892E+04</rscale>
<asrwt>0</asrwt>
<pdfrwt beam="1">  1        2 0.31245696E+00 0.15625892E+04</pdfrwt>
<pdfrwt beam="2">  1       -2 0.19900344E+00 0.15625892E+04</pdfrwt>
<totfact> 0.80949692E-01</totfact>
</mgrwt>
</event>
<event>
12    1  0.1338445E-007  0.8152225E+03  0.7818608E-02  0.9538241E-01
         -2   -1    0    0    0  501 -0.00000000000E+00  0.00000000000E+00  0.40335456583E+03  0.40335456583E+03  0.00000000000E+00 0.  1.
          2   -1    0    0  501    0  0.00000000000E+00 -0.00000000000E+00 -0.18676566804E+04  0.18676566804E+04  0.00000000000E+00 0. -1.
         23    2    1    2    0    0  0.69440057689E+03 -0.17281497289E+03 -0.30692273873E+03  0.78389840253E+03  0.90763218811E+02 0.  0.
    5000000    2    1    2    0    0 -0.69440057689E+03  0.17281497289E+03 -0.11573793759E+04  0.14871128437E+04  0.59993367489E+03 0.  0.
         23    2    4    4    0    0 -0.16216375321E+03  0.31640726831E+03 -0.36267102165E+03  0.51618986202E+03  0.92255413998E+02 0.  0.
         23    2    4    4    0    0 -0.53223682368E+03 -0.14359229542E+03 -0.79470835422E+03  0.97092298172E+03  0.85060474777E+02 0.  0.
          2    1    3    3  502    0  0.31570581025E+03 -0.12508017296E+03 -0.14025431309E+03  0.36740506343E+03  0.00000000000E+00 0.  1.
         -2    1    3    3    0  502  0.37869476664E+03 -0.47734799935E+02 -0.16666842565E+03  0.41649333910E+03  0.00000000000E+00 0. -1.
         13    1    5    5    0    0 -0.13374517349E+03  0.22474547292E+03 -0.20796887638E+03  0.33413972013E+03  0.00000000000E+00 0. -1.
        -13    1    5    5    0    0 -0.28418579713E+02  0.91661795393E+02 -0.15470214528E+03  0.18205014189E+03  0.00000000000E+00 0.  1.
          1    1    6    6  503    0 -0.31264428984E+03 -0.95162809859E+02 -0.53965147963E+03  0.63089312234E+03  0.00000000000E+00 0. -1.
         -1    1    6    6    0  503 -0.21959253385E+03 -0.48429485560E+02 -0.25505687459E+03  0.34002985938E+03  0.00000000000E+00 0.  1.
<mgrwt>
<rscale>  0 0.81522253E+03</rscale>
<asrwt>0</asrwt>
<pdfrwt beam="1">  1        2 0.28733179E+00 0.81522253E+03</pdfrwt>
<pdfrwt beam="2">  1       -2 0.62054549E-01 0.81522253E+03</pdfrwt>
<totfact> 0.19512917E+01</totfact>
</mgrwt>
</event>
<event>
12    1  0.1338445E-007  0.1268254E+04  0.7818608E-02  0.9055126E-01
         -2   -1    0    0    0  501 -0.00000000000E+00  0.00000000000E+00  0.47219346846E+04  0.47219346846E+04  0.00000000000E+00 0.  1.
          2   -1    0    0  501    0  0.00000000000E+00 -0.00000000000E+00 -0.52491098477E+03  0.52491098477E+03  0.00000000000E+00 0. -1.
         23    2    1    2    0    0  0.10366728350E+04 -0.63075951057E+03  0.35375414616E+04  0.37409920220E+04  0.90959272243E+02 0.  0.
    5000000    2    1    2    0    0 -0.10366728350E+04  0.63075951057E+03  0.65948223822E+03  0.15058536474E+04  0.60010853838E+03 0.  0.
         23    2    4    4    0    0 -0.10350236719E+04  0.46010933153E+03  0.46533120083E+03  0.12278684520E+04  0.90295131011E+02 0.  0.
         23    2    4    4    0    0 -0.16491630457E+01  0.17065017904E+03  0.19415103739E+03  0.27798519532E+03  0.10225918126E+03 0.  0.
          1    1    3    3  502    0  0.23889064841E+03 -0.14220758597E+03  0.69841982978E+03  0.75171936122E+03  0.00000000000E+00 0. -1.
         -1    1    3    3    0  502  0.79778218654E+03 -0.48855192460E+03  0.28391216319E+04  0.29892726608E+04  0.00000000000E+00 0.  1.
         11    1    5    5    0    0 -0.35755256185E+03  0.13164119243E+03  0.19406216368E+03  0.42759017926E+03  0.00000000000E+00 0. -1.
        -11    1    5    5    0    0 -0.67747111005E+03  0.32846813910E+03  0.27126903715E+03  0.80027827278E+03  0.00000000000E+00 0.  1.
          2    1    6    6  503    0 -0.22741725868E+02  0.16592302548E+03  0.19410722550E+03  0.25636936532E+03  0.00000000000E+00 0. -1.
         -2    1    6    6    0  503  0.21092562822E+02  0.47271535582E+01  0.43811888201E-01  0.21615830002E+02  0.00000000000E+00 0.  1.
<mgrwt>
<rscale>  0 0.12682545E+04</rscale>
<asrwt>0</asrwt>
<pdfrwt beam="1">  1        2 0.80755540E-01 0.12682545E+04</pdfrwt>
<pdfrwt beam="2">  1       -2 0.72645146E+00 0.12682545E+04</pdfrwt>
<totfact> 0.10352394E-02</totfact>
</mgrwt>
</event>
<event>
12    1  0.1338445E-007  0.1396089E+04  0.7818608E-02  0.8956654E-01
          1   -1    0    0  501    0  0.00000000000E+00  0.00000000000E+00  0.27817366156E+04  0.27817366156E+04  0.00000000000E+00 0. -1.
         -1   -1    0    0    0  501 -0.00000000000E+00 -0.00000000000E+00 -0.71532177422E+03  0.71532177422E+03  0.00000000000E+00 0.  1.
         23    2    1    2    0    0 -0.11211906254E+04  0.74080429490E+03  0.91321683497E+03  0.16273326772E+04  0.91581837214E+02 0.  0.
    5000000    2    1    2    0    0  0.11211906254E+04 -0.74080429490E+03  0.11531980064E+04  0.18697257125E+04  0.60012430085E+03 0.  0.
         23    2    4    4    0    0  0.11275371269E+04 -0.54935135381E+03  0.95067177041E+03  0.15764749924E+04  0.91486087142E+02 0.  0.
         23    2    4    4    0    0 -0.63465014966E+01 -0.19145294109E+03  0.20252623596E+03  0.29325072016E+03  0.91019788440E+02 0.  0.
          1    1    3    3  502    0 -0.75666018609E+03  0.50491045684E+03  0.56589712487E+03  0.10713117019E+04  0.00000000000E+00 0. -1.
         -1    1    3    3    0  502 -0.36453043930E+03  0.23589383806E+03  0.34731971010E+03  0.55602097535E+03  0.00000000000E+00 0.  1.
         13    1    5    5    0    0  0.92936958747E+03 -0.41942312311E+03  0.79532481855E+03  0.12931299831E+04  0.00000000000E+00 0.  1.
        -13    1    5    5    0    0  0.19816753941E+03 -0.12992823070E+03  0.15534695186E+03  0.28334500924E+03  0.00000000000E+00 0. -1.
          3    1    6    6  503    0 -0.61731068157E+01 -0.67682606205E+02  0.16711457153E+02  0.69987964899E+02  0.00000000000E+00 0. -1.
         -3    1    6    6    0  503 -0.17339468093E+00 -0.12377033489E+03  0.18581477880E+03  0.22326275526E+03  0.00000000000E+00 0.  1.
<mgrwt>
<rscale>  0 0.13960893E+04</rscale>
<asrwt>0</asrwt>
<pdfrwt beam="1">  1        1 0.42795947E+00 0.13960893E+04</pdfrwt>
<pdfrwt beam="2">  1       -1 0.11004951E+00 0.13960893E+04</pdfrwt>
<totfact> 0.63357635E-01</totfact>
</mgrwt>
</event>
<event>
12    1  0.1338445E-007  0.5989234E+03  0.7818608E-02  0.9907642E-01
          2   -1    0    0  501    0  0.00000000000E+00  0.00000000000E+00  0.35383651620E+04  0.35383651620E+04  0.00000000000E+00 0. -1.
         -2   -1    0    0    0  501 -0.00000000000E+00 -0.00000000000E+00 -0.29139551773E+03  0.29139551773E+03  0.00000000000E+00 0.  1.
         23    2    1    2    0    0 -0.17021888847E+03 -0.50876256594E+03  0.29045907137E+04  0.29551374264E+04  0.91521451948E+02 0.  0.
    5000000    2    1    2    0    0  0.17021888847E+03  0.50876256594E+03  0.34237893057E+03  0.87462325335E+03  0.59994056765E+03 0.  0.
         23    2    4    4    0    0  0.13132400267E+03  0.56708231456E+03  0.43087380279E+03  0.72909034671E+03  0.84214930833E+02 0.  0.
         23    2    4    4    0    0  0.38894885803E+02 -0.58319748626E+02 -0.88494872212E+02  0.14553290664E+03  0.91839421198E+02 0.  0.
          2    1    3    3  502    0 -0.89272049920E+02 -0.36969715111E+03  0.21764010503E+04  0.22093815909E+04  0.00000000000E+00 0.  1.
         -2    1    3    3    0  502 -0.80946838549E+02 -0.13906541483E+03  0.72818966335E+03  0.74575583543E+03  0.00000000000E+00 0. -1.
         11    1    5    5    0    0  0.11534487930E+03  0.41480164015E+03  0.27662263122E+03  0.51174693156E+03  0.00000000000E+00 0.  1.
        -11    1    5    5    0    0  0.15979123366E+02  0.15228067441E+03  0.15425117156E+03  0.21734341516E+03  0.00000000000E+00 0. -1.
          3    1    6    6  503    0  0.24017088118E+02 -0.51011616005E+02 -0.90658770384E+00  0.56389958240E+02  0.00000000000E+00 0. -1.
         -3    1    6    6    0  503  0.14877797685E+02 -0.73081326211E+01 -0.87588284508E+02  0.89142948400E+02  0.00000000000E+00 0.  1.
<mgrwt>
<rscale>  0 0.59892344E+03</rscale>
<asrwt>0</asrwt>
<pdfrwt beam="1">  1        2 0.54436384E+00 0.59892344E+03</pdfrwt>
<pdfrwt beam="2">  1       -2 0.44830082E-01 0.59892344E+03</pdfrwt>
<totfact> 0.40604825E+00</totfact>
</mgrwt>
</event>
<event>
12    1  0.1338445E-007  0.1156156E+04  0.7818608E-02  0.9152123E-01
          2   -1    0    0  501    0  0.00000000000E+00  0.00000000000E+00  0.21139342150E+04  0.21139342150E+04  0.00000000000E+00 0.  1.
         -2   -1    0    0    0  501 -0.00000000000E+00 -0.00000000000E+00 -0.70451341194E+03  0.70451341194E+03  0.00000000000E+00 0. -1.
         23    2    1    2    0    0  0.91198192970E+03  0.67283533752E+03  0.47764407218E+03  0.12333037722E+04  0.92064669362E+02 0.  0.
    5000000    2    1    2    0    0 -0.91198192970E+03 -0.67283533752E+03  0.93177673088E+03  0.15851438547E+04  0.60004560866E+03 0.  0.
         23    2    4    4    0    0 -0.84655617763E+03 -0.65052815535E+03  0.58659490746E+03  0.12214260322E+04  0.89127571060E+02 0.  0.
         23    2    4    4    0    0 -0.65425752066E+02 -0.22307182172E+02  0.34518182342E+03  0.36371782252E+03  0.91444101978E+02 0.  0.
          4    1    3    3  502    0  0.80327489167E+03  0.62562733661E+03  0.43740260128E+03  0.11081431097E+04  0.00000000000E+00 0. -1.
         -4    1    3    3    0  502  0.10870703803E+03  0.47208000906E+02  0.40241470898E+02  0.12516066254E+03  0.00000000000E+00 0.  1.
         13    1    5    5    0    0 -0.38410639073E+03 -0.24737407023E+03  0.22477412065E+03  0.50917094903E+03  0.00000000000E+00 0.  1.
        -13    1    5    5    0    0 -0.46244978690E+03 -0.40315408511E+03  0.36182078681E+03  0.71225508318E+03  0.00000000000E+00 0. -1.
          2    1    6    6  503    0 -0.77086011522E+02 -0.37805479834E+02  0.20577448692E+03  0.22296781594E+03  0.00000000000E+00 0. -1.
         -2    1    6    6    0  503  0.11660259456E+02  0.15498297663E+02  0.13940733651E+03  0.14075000658E+03  0.00000000000E+00 0.  1.
<mgrwt>
<rscale>  0 0.11561564E+04</rscale>
<asrwt>0</asrwt>
<pdfrwt beam="1">  1        2 0.32522065E+00 0.11561564E+04</pdfrwt>
<pdfrwt beam="2">  1       -2 0.10838668E+00 0.11561564E+04</pdfrwt>
<totfact> 0.38638394E+00</totfact>
</mgrwt>
</event>
<event>
12    1  0.1338445E-007  0.9769959E+03  0.7818608E-02  0.9334141E-01
          2   -1    0    0  501    0  0.00000000000E+00  0.00000000000E+00  0.19661459715E+04  0.19661459715E+04  0.00000000000E+00 0.  1.
         -2   -1    0    0    0  501 -0.00000000000E+00 -0.00000000000E+00 -0.15275189528E+04  0.15275189528E+04  0.00000000000E+00 0. -1.
         23    2    1    2    0    0  0.32063112468E+03 -0.85092521689E+03 -0.12108843440E+04  0.15168469878E+04  0.87782952609E+02 0.  0.
    5000000    2    1    2    0    0 -0.32063112468E+03  0.85092521689E+03  0.16495113627E+04  0.19768179365E+04  0.60003614501E+03 0.  0.
         23    2    4    4    0    0  0.28469833521E+02  0.59477627093E+03  0.66679689370E+03  0.89891970836E+03  0.94176434091E+02 0.  0.
         23    2    4    4    0    0 -0.34910095820E+03  0.25614894595E+03  0.98271446904E+03  0.10778982281E+04  0.93022045733E+02 0.  0.
          4    1    3    3  502    0  0.19470027601E+03 -0.40206583184E+03 -0.62089160353E+03  0.76489967574E+03  0.00000000000E+00 0. -1.
         -4    1    3    3    0  502  0.12593084867E+03 -0.44885938505E+03 -0.58999274051E+03  0.75194731202E+03  0.00000000000E+00 0.  1.
         11    1    5    5    0    0  0.58462814195E+02  0.48728683726E+03  0.52896541234E+03  0.72157520042E+03  0.00000000000E+00 0. -1.
        -11    1    5    5    0    0 -0.29992980674E+02  0.10748943368E+03  0.13783148137E+03  0.17734450794E+03  0.00000000000E+00 0.  1.
          4    1    6    6  503    0 -0.22743520265E+03  0.12388943436E+03  0.65113107594E+03  0.70074748762E+03  0.00000000000E+00 0. -1.
         -4    1    6    6    0  503 -0.12166575555E+03  0.13225951159E+03  0.33158339311E+03  0.37715074051E+03  0.00000000000E+00 0.  1.
<mgrwt>
<rscale>  0 0.97699592E+03</rscale>
<asrwt>0</asrwt>
<pdfrwt beam="1">  1        2 0.30248399E+00 0.97699592E+03</pdfrwt>
<pdfrwt beam="2">  1       -2 0.23500292E+00 0.97699592E+03</pdfrwt>
<totfact> 0.55788844E-01</totfact>
</mgrwt>
</event>
<event>
12    1  0.1338445E-007  0.4081186E+03  0.7818608E-02  0.1041004E+00
          2   -1    0    0  501    0  0.00000000000E+00  0.00000000000E+00  0.24743309675E+03  0.24743309675E+03  0.00000000000E+00 0. -1.
         -2   -1    0    0    0  501 -0.00000000000E+00 -0.00000000000E+00 -0.82405364264E+03  0.82405364264E+03  0.00000000000E+00 0.  1.
         23    2    1    2    0    0 -0.18296668422E+03  0.85263302619E+02 -0.31648551200E+03  0.38717118453E+03  0.94825147074E+02 0.  0.
    5000000    2    1    2    0    0  0.18296668422E+03 -0.85263302619E+02 -0.26013503390E+03  0.68431555486E+03  0.59989241074E+03 0.  0.
         23    2    4    4    0    0 -0.17022611605E+03 -0.14288881202E+03 -0.19483679614E+03  0.30922207304E+03  0.90899780765E+02 0.  0.
         23    2    4    4    0    0  0.35319280027E+03  0.57625509397E+02 -0.65298237753E+02  0.37509348182E+03  0.91462597566E+02 0.  0.
          4    1    3    3  502    0 -0.11983757971E+03  0.98020373155E+02 -0.25381714971E+03  0.29730823156E+03  0.00000000000E+00 0. -1.
         -4    1    3    3    0  502 -0.63129104518E+02 -0.12757070536E+02 -0.62668362287E+02  0.89862952977E+02  0.00000000000E+00 0.  1.
         13    1    5    5    0    0 -0.94555189365E+02 -0.13100400108E+03 -0.15003150402E+03  0.22048170975E+03  0.00000000000E+00 0.  1.
        -13    1    5    5    0    0 -0.75670926683E+02 -0.11884810938E+02 -0.44805292121E+02  0.88740363297E+02  0.00000000000E+00 0. -1.
          4    1    6    6  503    0  0.80987936230E+02  0.24647683280E+02 -0.54507987783E+02  0.10068602107E+03  0.00000000000E+00 0. -1.
         -4    1    6    6    0  503  0.27220486404E+03  0.32977826116E+02 -0.10790249969E+02  0.27440746075E+03  0.00000000000E+00 0.  1.
<mgrwt>
<rscale>  0 0.40811862E+03</rscale>
<asrwt>0</asrwt>
<pdfrwt beam="1">  1        2 0.38066630E-01 0.40811862E+03</pdfrwt>
<pdfrwt beam="2">  1       -2 0.12677748E+00 0.40811862E+03</pdfrwt>
<totfact> 0.65072293E+01</totfact>
</mgrwt>
</event>
<event>
12    1  0.1338445E-007  0.2157077E+03  0.7818608E-02  0.1137124E+00
         -2   -1    0    0    0  501 -0.00000000000E+00  0.00000000000E+00  0.11086767188E+03  0.11086767188E+03  0.00000000000E+00 0.  1.
          2   -1    0    0  501    0  0.00000000000E+00 -0.00000000000E+00 -0.33878799605E+04  0.33878799605E+04  0.00000000000E+00 0. -1.
         23    2    1    2    0    0  0.52823343064E+01 -0.18095158965E+03 -0.46284868245E+02  0.20784389728E+03  0.91024259154E+02 0.  0.
    5000000    2    1    2    0    0 -0.52823343064E+01  0.18095158965E+03 -0.32307274204E+04  0.32909037351E+04  0.59973022941E+03 0.  0.
         23    2    4    4    0    0  0.28718142260E+02  0.49735976162E+02 -0.30334627622E+04  0.30353694060E+04  0.90954399019E+02 0.  0.
         23    2    4    4    0    0 -0.34000476566E+02  0.13121561349E+03 -0.19726465825E+03  0.25553432910E+03  0.89503510096E+02 0.  0.
          1    1    3    3  502    0  0.79159203240E+01 -0.66171598375E+01  0.19038405915E+02  0.21654318245E+02  0.00000000000E+00 0. -1.
         -1    1    3    3    0  502 -0.26335860176E+01 -0.17433442982E+03 -0.65323274160E+02  0.18618957904E+03  0.00000000000E+00 0.  1.
         11    1    5    5    0    0  0.24784770899E+02  0.76550344751E+02 -0.22818867273E+04  0.22833049022E+04  0.00000000000E+00 0. -1.
        -11    1    5    5    0    0  0.39333713611E+01 -0.26814368588E+02 -0.75157603484E+03  0.75206450383E+03  0.00000000000E+00 0.  1.
          1    1    6    6  503    0 -0.58052401821E+01  0.83898539072E+02 -0.48916659789E+02  0.97290828329E+02  0.00000000000E+00 0. -1.
         -1    1    6    6    0  503 -0.28195236384E+02  0.47317074420E+02 -0.14834799846E+03  0.15824350077E+03  0.00000000000E+00 0.  1.
<mgrwt>
<rscale>  0 0.21570774E+03</rscale>
<asrwt>0</asrwt>
<pdfrwt beam="1">  1        2 0.52121221E+00 0.21570774E+03</pdfrwt>
<pdfrwt beam="2">  1       -2 0.17056568E-01 0.21570774E+03</pdfrwt>
<totfact> 0.34337400E+01</totfact>
</mgrwt>
</event>
<event>
12    1  0.1338445E-007  0.1678478E+04  0.7818608E-02  0.8773735E-01
         -2   -1    0    0    0  501 -0.00000000000E+00  0.00000000000E+00  0.19615791719E+04  0.19615791719E+04  0.00000000000E+00 0.  1.
          2   -1    0    0  501    0  0.00000000000E+00 -0.00000000000E+00 -0.15260341084E+04  0.15260341084E+04  0.00000000000E+00 0. -1.
         23    2    1    2    0    0  0.11875013600E+04 -0.11774706882E+04  0.86589641919E+02  0.16770400353E+04  0.91481213765E+02 0.  0.
    5000000    2    1    2    0    0 -0.11875013600E+04  0.11774706882E+04  0.34895542150E+03  0.18105732450E+04  0.59984071858E+03 0.  0.
         23    2    4    4    0    0 -0.10930169067E+04  0.11024983039E+04  0.45809021908E+03  0.16214551778E+04  0.95298353821E+02 0.  0.
         23    2    4    4    0    0 -0.94484453315E+02  0.74972384223E+02 -0.10913479758E+03  0.18911806718E+03  0.96473151573E+02 0.  0.
          4    1    3    3  502    0  0.95496689219E+03 -0.94397246250E+03  0.10585803295E+03  0.13469416091E+04  0.00000000000E+00 0. -1.
         -4    1    3    3    0  502  0.23253446784E+03 -0.23349822567E+03 -0.19268391031E+02  0.33009842626E+03  0.00000000000E+00 0.  1.
         11    1    5    5    0    0 -0.10881909472E+04  0.10843715455E+04  0.45651331515E+03  0.16026308350E+04  0.00000000000E+00 0. -1.
        -11    1    5    5    0    0 -0.48259594681E+01  0.18126758424E+02  0.15769039359E+01  0.18824342797E+02  0.00000000000E+00 0.  1.
          2    1    6    6  503    0 -0.84549266775E+02  0.40451117631E+02 -0.11936632493E+03  0.15176689677E+03  0.00000000000E+00 0. -1.
         -2    1    6    6    0  503 -0.99351865408E+01  0.34521266592E+02  0.10231527343E+02  0.37351170403E+02  0.00000000000E+00 0.  1.
<mgrwt>
<rscale>  0 0.16784777E+04</rscale>
<asrwt>0</asrwt>
<pdfrwt beam="1">  1        2 0.23477448E+00 0.16784777E+04</pdfrwt>
<pdfrwt beam="2">  1       -2 0.30178141E+00 0.16784777E+04</pdfrwt>
<totfact> 0.35137158E-01</totfact>
</mgrwt>
</event>
<event>
12    1  0.1338445E-007  0.7993083E+03  0.7818608E-02  0.9561019E-01
         -1   -1    0    0    0  501 -0.00000000000E+00  0.00000000000E+00  0.85702180849E+03  0.85702180849E+03  0.00000000000E+00 0.  1.
          1   -1    0    0  501    0  0.00000000000E+00 -0.00000000000E+00 -0.11301513249E+04  0.11301513249E+04  0.00000000000E+00 0. -1.
         23    2    1    2    0    0  0.18496607863E+03 -0.71998282051E+03 -0.61795475846E+03  0.97159732438E+03  0.97701408238E+02 0.  0.
    5000000    2    1    2    0    0 -0.18496607863E+03  0.71998282051E+03  0.34482524206E+03  0.10155758090E+04  0.59991838125E+03 0.  0.
         23    2    4    4    0    0  0.97010198254E+02  0.37428811396E+03 -0.65717198529E+02  0.40235953486E+03  0.89843610228E+02 0.  0.
         23    2    4    4    0    0 -0.28197627688E+03  0.34569470656E+03  0.41054244059E+03  0.61321627412E+03  0.92052444064E+02 0.  0.
          2    1    3    3  502    0  0.55132150510E+02 -0.83168299321E+02 -0.78175544355E+02  0.12675936165E+03  0.00000000000E+00 0. -1.
         -2    1    3    3    0  502  0.12983392812E+03 -0.63681452119E+03 -0.53977921410E+03  0.84483796273E+03  0.00000000000E+00 0.  1.
         11    1    5    5    0    0 -0.68805625687E+01  0.14332351247E+03 -0.30113277423E+02  0.14661439508E+03  0.00000000000E+00 0. -1.
        -11    1    5    5    0    0  0.10389076082E+03  0.23096460149E+03 -0.35603921106E+02  0.25574513979E+03  0.00000000000E+00 0.  1.
          3    1    6    6  503    0 -0.14587205783E+03  0.12123274332E+03  0.20924272531E+03  0.28241556863E+03  0.00000000000E+00 0. -1.
         -3    1    6    6    0  503 -0.13610421905E+03  0.22446196324E+03  0.20129971528E+03  0.33080070549E+03  0.00000000000E+00 0.  1.
<mgrwt>
<rscale>  0 0.79930831E+03</rscale>
<asrwt>0</asrwt>
<pdfrwt beam="1">  1        1 0.17386943E+00 0.79930831E+03</pdfrwt>
<pdfrwt beam="2">  1       -1 0.13184951E+00 0.79930831E+03</pdfrwt>
<totfact> 0.60589076E+00</totfact>
</mgrwt>
</event>
<event>
12    1  0.1338445E-007  0.5883041E+03  0.7818608E-02  0.9929973E-01
         -1   -1    0    0    0  501 -0.00000000000E+00  0.00000000000E+00  0.31699400539E+03  0.31699400539E+03  0.00000000000E+00 0.  1.
          1   -1    0    0  501    0  0.00000000000E+00 -0.00000000000E+00 -0.11725347803E+04  0.11725347803E+04  0.00000000000E+00 0. -1.
         23    2    1    2    0    0 -0.29679631815E+03  0.32288308902E+03 -0.16856858309E+03  0.47752430401E+03  0.85279247600E+02 0.  0.
    5000000    2    1    2    0    0  0.29679631815E+03 -0.32288308902E+03 -0.68697219183E+03  0.10120044817E+04  0.59990060423E+03 0.  0.
         23    2    4    4    0    0  0.36767665781E+03  0.21918467157E+02 -0.36426054743E+03  0.52581613597E+03  0.90168278978E+02 0.  0.
         23    2    4    4    0    0 -0.70880339662E+02 -0.34480155618E+03 -0.32271164440E+03  0.48618834571E+03  0.91236869618E+02 0.  0.
          2    1    3    3  502    0 -0.68385299133E+02  0.11099420082E+03 -0.82558605175E+02  0.15431197310E+03  0.00000000000E+00 0. -1.
         -2    1    3    3    0  502 -0.22841101901E+03  0.21188888820E+03 -0.86009977911E+02  0.32321233091E+03  0.00000000000E+00 0.  1.
         13    1    5    5    0    0  0.21762488038E+03 -0.91421826460E+01 -0.15904099292E+03  0.26970021411E+03  0.00000000000E+00 0.  1.
        -13    1    5    5    0    0  0.15005177743E+03  0.31060649803E+02 -0.20521955451E+03  0.25611592186E+03  0.00000000000E+00 0. -1.
          1    1    6    6  503    0 -0.67672802416E+02 -0.11234896607E+03 -0.11447446220E+03  0.17408704966E+03  0.00000000000E+00 0. -1.
         -1    1    6    6    0  503 -0.32075372456E+01 -0.23245259011E+03 -0.20823718220E+03  0.31210129605E+03  0.00000000000E+00 0.  1.
<mgrwt>
<rscale>  0 0.58830413E+03</rscale>
<asrwt>0</asrwt>
<pdfrwt beam="1">  1        1 0.18038997E+00 0.58830413E+03</pdfrwt>
<pdfrwt beam="2">  1       -1 0.48768309E-01 0.58830413E+03</pdfrwt>
<totfact> 0.49234697E+01</totfact>
</mgrwt>
</event>
<event>
12    1  0.1338445E-007  0.7952278E+03  0.7818608E-02  0.9566951E-01
         -1   -1    0    0    0  501 -0.00000000000E+00  0.00000000000E+00  0.74893806896E+03  0.74893806896E+03  0.00000000000E+00 0.  1.
          1   -1    0    0  501    0  0.00000000000E+00 -0.00000000000E+00 -0.10375568745E+04  0.10375568745E+04  0.00000000000E+00 0. -1.
         23    2    1    2    0    0 -0.50480024694E+03 -0.47914123301E+03 -0.47673949084E+03  0.84846669414E+03  0.90639828196E+02 0.  0.
    5000000    2    1    2    0    0  0.50480024694E+03  0.47914123301E+03  0.18812068530E+03  0.93802824933E+03  0.60008998810E+03 0.  0.
         23    2    4    4    0    0  0.60065588425E+03  0.27336722985E+03  0.80077153116E+02  0.67055581857E+03  0.87838611811E+02 0.  0.
         23    2    4    4    0    0 -0.95855637310E+02  0.20577400316E+03  0.10804353218E+03  0.26747243076E+03  0.91306367729E+02 0.  0.
          2    1    3    3  502    0 -0.25296034110E+03 -0.26116832025E+03 -0.30018170445E+03  0.47149430681E+03  0.00000000000E+00 0. -1.
         -2    1    3    3    0  502 -0.25183990584E+03 -0.21797291277E+03 -0.17655778639E+03  0.37697238733E+03  0.00000000000E+00 0.  1.
         11    1    5    5    0    0  0.15466876833E+02 -0.66000784771E+01  0.48155303831E+01  0.17492131023E+02  0.00000000000E+00 0. -1.
        -11    1    5    5    0    0  0.58518900742E+03  0.27996730833E+03  0.75261622732E+02  0.65306368755E+03  0.00000000000E+00 0.  1.
          1    1    6    6  503    0 -0.96780541048E+00  0.16608849902E+02  0.42947480382E+02  0.46057318784E+02  0.00000000000E+00 0. -1.
         -1    1    6    6    0  503 -0.94887831900E+02  0.18916515326E+03  0.65096051800E+02  0.22141511198E+03  0.00000000000E+00 0.  1.
<mgrwt>
<rscale>  0 0.79522776E+03</rscale>
<asrwt>0</asrwt>
<pdfrwt beam="1">  1        1 0.15962413E+00 0.79522776E+03</pdfrwt>
<pdfrwt beam="2">  1       -1 0.11522124E+00 0.79522776E+03</pdfrwt>
<totfact> 0.99242467E+00</totfact>
</mgrwt>
</event>
<event>
12    1  0.1338445E-007  0.6041796E+03  0.7818608E-02  0.9896772E-01
          1   -1    0    0  501    0  0.00000000000E+00  0.00000000000E+00  0.40814117254E+03  0.40814117254E+03  0.00000000000E+00 0. -1.
         -1   -1    0    0    0  501 -0.00000000000E+00 -0.00000000000E+00 -0.13662104435E+04  0.13662104435E+04  0.00000000000E+00 0.  1.
         23    2    1    2    0    0 -0.53953348651E+03  0.10583191794E+03 -0.56539646367E+02  0.55983904917E+03  0.89029497574E+02 0.  0.
    5000000    2    1    2    0    0  0.53953348651E+03 -0.10583191794E+03 -0.90152962462E+03  0.12145125669E+04  0.59999027756E+03 0.  0.
         23    2    4    4    0    0  0.50927096517E+03 -0.19136237813E+03 -0.93132620886E+03  0.10829642208E+04  0.97296045611E+02 0.  0.
         23    2    4    4    0    0  0.30262521342E+02  0.85530460189E+02  0.29796584247E+02  0.13154834610E+03  0.90475693477E+02 0.  0.
          2    1    3    3  502    0 -0.17555535872E+03  0.77401936007E+02 -0.22177172115E+02  0.19313873417E+03  0.00000000000E+00 0. -1.
         -2    1    3    3    0  502 -0.36397812779E+03  0.28429981931E+02 -0.34362474252E+02  0.36670031500E+03  0.00000000000E+00 0.  1.
         13    1    5    5    0    0  0.38139398710E+03 -0.15716368282E+03 -0.62026992831E+03  0.74491380747E+03  0.00000000000E+00 0.  1.
        -13    1    5    5    0    0  0.12787697807E+03 -0.34198695303E+02 -0.31105628056E+03  0.33805041333E+03  0.00000000000E+00 0. -1.
          2    1    6    6  503    0  0.46886779868E+02  0.63525179529E+02  0.53342706441E+02  0.95285166165E+02  0.00000000000E+00 0. -1.
         -2    1    6    6    0  503 -0.16624258526E+02  0.22005280660E+02 -0.23546122194E+02  0.36263179933E+02  0.00000000000E+00 0.  1.
<mgrwt>
<rscale>  0 0.60417960E+03</rscale>
<asrwt>0</asrwt>
<pdfrwt beam="1">  1        1 0.62790949E-01 0.60417960E+03</pdfrwt>
<pdfrwt beam="2">  1       -1 0.21018623E+00 0.60417960E+03</pdfrwt>
<totfact> 0.79028697E+00</totfact>
</mgrwt>
</event>
<event>
12    1  0.1338445E-007  0.8849413E+03  0.7818608E-02  0.9444604E-01
         -2   -1    0    0    0  501 -0.00000000000E+00  0.00000000000E+00  0.42219052010E+03  0.42219052010E+03  0.00000000000E+00 0. -1.
          2   -1    0    0  501    0  0.00000000000E+00 -0.00000000000E+00 -0.24698068588E+04  0.24698068588E+04  0.00000000000E+00 0.  1.
         23    2    1    2    0    0 -0.14550266645E+03 -0.83712282730E+03 -0.40333879847E+03  0.94630798394E+03  0.10426389684E+03 0.  0.
    5000000    2    1    2    0    0  0.14550266645E+03  0.83712282730E+03 -0.16442775402E+04  0.19456893950E+04  0.60009410798E+03 0.  0.
         23    2    4    4    0    0 -0.72638895220E+02  0.44609111674E+02 -0.26391097963E+02  0.12864755750E+03  0.92667804846E+02 0.  0.
         23    2    4    4    0    0  0.21814156167E+03  0.79251371563E+03 -0.16178864423E+04  0.18170418375E+04  0.91764746238E+02 0.  0.
          3    1    3    3  502    0 -0.11904120699E+03 -0.46067691433E+03 -0.26319268542E+03  0.54375032691E+03  0.00000000000E+00 0. -1.
         -3    1    3    3    0  502 -0.26461459460E+02 -0.37644591297E+03 -0.14014611305E+03  0.40255765703E+03  0.00000000000E+00 0.  1.
         11    1    5    5    0    0  0.44689546598E+01  0.77443577488E+01  0.26615697177E+02  0.28077428104E+02  0.00000000000E+00 0. -1.
        -11    1    5    5    0    0 -0.77107849880E+02  0.36864753925E+02 -0.53006795140E+02  0.10057012939E+03  0.00000000000E+00 0.  1.
          2    1    6    6  503    0  0.18869507704E+02  0.95734365784E+02 -0.26287522595E+03  0.28040062684E+03  0.00000000000E+00 0. -1.
         -2    1    6    6    0  503  0.19927205397E+03  0.69677934984E+03 -0.13550112163E+04  0.15366412106E+04  0.00000000000E+00 0.  1.
<mgrwt>
<rscale>  0 0.88494129E+03</rscale>
<asrwt>0</asrwt>
<pdfrwt beam="1">  1        2 0.37997028E+00 0.88494129E+03</pdfrwt>
<pdfrwt beam="2">  1       -2 0.64952388E-01 0.88494129E+03</pdfrwt>
<totfact> 0.81340496E+00</totfact>
</mgrwt>
</event>
<event>
12    1  0.1338445E-007  0.9426444E+03  0.7818608E-02  0.9373790E-01
          2   -1    0    0  501    0  0.00000000000E+00  0.00000000000E+00  0.30485332464E+03  0.30485332464E+03  0.00000000000E+00 0. -1.
         -2   -1    0    0    0  501 -0.00000000000E+00 -0.00000000000E+00 -0.29557836763E+04  0.29557836763E+04  0.00000000000E+00 0.  1.
         23    2    1    2    0    0 -0.38332213183E+03  0.76052323581E+03 -0.11682523270E+04  0.14485571434E+04  0.90403812742E+02 0.  0.
    5000000    2    1    2    0    0  0.38332213183E+03 -0.76052323581E+03 -0.14826780247E+04  0.18120798575E+04  0.59997319616E+03 0.  0.
         23    2    4    4    0    0  0.49348817752E+03 -0.37722000985E+03 -0.98018488025E+03  0.11640886491E+04  0.92273865574E+02 0.  0.
         23    2    4    4    0    0 -0.11016604570E+03 -0.38330322596E+03 -0.50249314440E+03  0.64799120838E+03  0.91298002821E+02 0.  0.
          1    1    3    3  502    0 -0.16060564997E+03  0.24318747363E+03 -0.44331548679E+03  0.53053081245E+03  0.00000000000E+00 0. -1.
         -1    1    3    3    0  502 -0.22271648185E+03  0.51733576218E+03 -0.72493684020E+03  0.91802633099E+03  0.00000000000E+00 0.  1.
         13    1    5    5    0    0  0.42762701992E+03 -0.28258497422E+03 -0.79179138856E+03  0.94321404719E+03  0.00000000000E+00 0.  1.
        -13    1    5    5    0    0  0.65861157598E+02 -0.94635035633E+02 -0.18839349169E+03  0.22087460189E+03  0.00000000000E+00 0. -1.
          3    1    6    6  503    0 -0.53380382425E+02 -0.27837564808E+03 -0.40268389755E+03  0.49243962881E+03  0.00000000000E+00 0. -1.
         -3    1    6    6    0  503 -0.56785663271E+02 -0.10492757788E+03 -0.99809246849E+02  0.15555157958E+03  0.00000000000E+00 0.  1.
<mgrwt>
<rscale>  0 0.94264441E+03</rscale>
<asrwt>0</asrwt>
<pdfrwt beam="1">  1        2 0.46900513E-01 0.94264441E+03</pdfrwt>
<pdfrwt beam="2">  1       -2 0.45473594E+00 0.94264441E+03</pdfrwt>
<totfact> 0.35917827E-01</totfact>
</mgrwt>
</event>
<event>
12    1  0.1338445E-007  0.7720764E+03  0.7818608E-02  0.9601339E-01
         -2   -1    0    0    0  501 -0.00000000000E+00  0.00000000000E+00  0.76765545250E+03  0.76765545250E+03  0.00000000000E+00 0.  1.
          2   -1    0    0  501    0  0.00000000000E+00 -0.00000000000E+00 -0.86639135658E+03  0.86639135658E+03  0.00000000000E+00 0. -1.
         23    2    1    2    0    0 -0.33422321440E+03 -0.61509363079E+03 -0.94221904173E+02  0.71219323826E+03  0.91082982579E+02 0.  0.
    5000000    2    1    2    0    0  0.33422321440E+03  0.61509363079E+03 -0.45139999098E+01  0.92185357081E+03  0.59979021177E+03 0.  0.
         23    2    4    4    0    0 -0.23947527731E+02 -0.57126570784E+02 -0.10008388827E+03  0.14845455963E+03  0.90471224202E+02 0.  0.
         23    2    4    4    0    0  0.35817074213E+03  0.67222020158E+03  0.95569888359E+02  0.77339901119E+03  0.94053957993E+02 0.  0.
          1    1    3    3  502    0 -0.17602843967E+03 -0.25920990998E+03 -0.75423700111E+02  0.32228019415E+03  0.00000000000E+00 0. -1.
         -1    1    3    3    0  502 -0.15819477473E+03 -0.35588372081E+03 -0.18798204063E+02  0.38991304411E+03  0.00000000000E+00 0.  1.
         11    1    5    5    0    0 -0.35090626486E+02 -0.35479095154E+02 -0.11105397261E+03  0.12175016670E+03  0.00000000000E+00 0. -1.
        -11    1    5    5    0    0  0.11143098754E+02 -0.21647475630E+02  0.10970084339E+02  0.26704392923E+02  0.00000000000E+00 0.  1.
          3    1    6    6  503    0  0.20250905075E+03  0.28361927591E+03  0.31681815418E+02  0.34993363189E+03  0.00000000000E+00 0. -1.
         -3    1    6    6    0  503  0.15566169138E+03  0.38860092567E+03  0.63888072941E+02  0.42346537929E+03  0.00000000000E+00 0.  1.
<mgrwt>
<rscale>  0 0.77207637E+03</rscale>
<asrwt>0</asrwt>
<pdfrwt beam="1">  1        2 0.13329098E+00 0.77207637E+03</pdfrwt>
<pdfrwt beam="2">  1       -2 0.11810084E+00 0.77207637E+03</pdfrwt>
<totfact> 0.17302007E+01</totfact>
</mgrwt>
</event>
<event>
12    1  0.1338445E-007  0.9736376E+03  0.7818608E-02  0.9337941E-01
          2   -1    0    0  501    0  0.00000000000E+00  0.00000000000E+00  0.13781257379E+04  0.13781257379E+04  0.00000000000E+00 0.  1.
         -2   -1    0    0    0  501 -0.00000000000E+00 -0.00000000000E+00 -0.10629586636E+04  0.10629586636E+04  0.00000000000E+00 0. -1.
         23    2    1    2    0    0 -0.15614437523E+03  0.89496850817E+03  0.83249178316E+03  0.12356472108E+04  0.91824637439E+02 0.  0.
    5000000    2    1    2    0    0  0.15614437523E+03 -0.89496850817E+03 -0.51732470886E+03  0.12054371907E+04  0.60008688524E+03 0.  0.
         23    2    4    4    0    0 -0.16073054014E+03 -0.49943514753E+03 -0.98295539812E+02  0.54150210223E+03  0.91064485128E+02 0.  0.
         23    2    4    4    0    0  0.31687491536E+03 -0.39553336064E+03 -0.41902916905E+03  0.66393508849E+03  0.91476804969E+02 0.  0.
          1    1    3    3  502    0 -0.13655671611E+03  0.65693769779E+03  0.56629580684E+03  0.87801242380E+03  0.00000000000E+00 0. -1.
         -1    1    3    3    0  502 -0.19587659115E+02  0.23803081038E+03  0.26619597632E+03  0.35763478702E+03  0.00000000000E+00 0.  1.
         13    1    5    5    0    0 -0.10937262278E+03 -0.32330734926E+03 -0.10742268230E+03  0.35781230467E+03  0.00000000000E+00 0. -1.
        -13    1    5    5    0    0 -0.51357917353E+02 -0.17612779827E+03  0.91271424855E+01  0.18368979756E+03  0.00000000000E+00 0.  1.
          2    1    6    6  503    0  0.19057692941E+03 -0.29527673292E+03 -0.25735654190E+03  0.43559190154E+03  0.00000000000E+00 0. -1.
         -2    1    6    6    0  503  0.12629798595E+03 -0.10025662772E+03 -0.16167262715E+03  0.22834318695E+03  0.00000000000E+00 0.  1.
<mgrwt>
<rscale>  0 0.97363761E+03</rscale>
<asrwt>0</asrwt>
<pdfrwt beam="1">  1        2 0.21201934E+00 0.97363761E+03</pdfrwt>
<pdfrwt beam="2">  1       -2 0.16353210E+00 0.97363761E+03</pdfrwt>
<totfact> 0.35164085E+00</totfact>
</mgrwt>
</event>
<event>
12    1  0.1338445E-007  0.8911627E+03  0.7818608E-02  0.9436696E-01
          2   -1    0    0  501    0  0.00000000000E+00  0.00000000000E+00  0.12370133910E+04  0.12370133910E+04  0.00000000000E+00 0.  1.
         -2   -1    0    0    0  501 -0.00000000000E+00 -0.00000000000E+00 -0.95360062093E+03  0.95360062093E+03  0.00000000000E+00 0. -1.
         23    2    1    2    0    0 -0.44471977261E+03  0.76285103223E+03  0.60653087945E+03  0.10753023901E+04  0.93156582564E+02 0.  0.
    5000000    2    1    2    0    0  0.44471977261E+03 -0.76285103223E+03 -0.32311810939E+03  0.11153116218E+04  0.59983108260E+03 0.  0.
         23    2    4    4    0    0  0.20917627574E+03 -0.24831049322E+03 -0.41406511827E+03  0.53453863348E+03  0.94174376224E+02 0.  0.
         23    2    4    4    0    0  0.23554349687E+03 -0.51454053901E+03  0.90947008883E+02  0.58077298836E+03  0.93772066078E+02 0.  0.
          4    1    3    3  502    0 -0.27369073998E+03  0.52487428691E+03  0.36405065110E+03  0.69493346069E+03  0.00000000000E+00 0. -1.
         -4    1    3    3    0  502 -0.17102903263E+03  0.23797674532E+03  0.24248022834E+03  0.38036892940E+03  0.00000000000E+00 0.  1.
         11    1    5    5    0    0  0.20030352391E+03 -0.21862141828E+03 -0.40558947767E+03  0.50241382407E+03  0.00000000000E+00 0. -1.
        -11    1    5    5    0    0  0.88727518301E+01 -0.29689074947E+02 -0.84756406059E+01  0.32124809415E+02  0.00000000000E+00 0.  1.
          2    1    6    6  503    0  0.16726103320E+03 -0.28616980488E+03  0.19957004057E+02  0.33206579538E+03  0.00000000000E+00 0. -1.
         -2    1    6    6    0  503  0.68282463676E+02 -0.22837073413E+03  0.70990004826E+02  0.24870719297E+03  0.00000000000E+00 0.  1.
<mgrwt>
<rscale>  0 0.89116268E+03</rscale>
<asrwt>0</asrwt>
<pdfrwt beam="1">  1        2 0.19030975E+00 0.89116268E+03</pdfrwt>
<pdfrwt beam="2">  1       -2 0.14670779E+00 0.89116268E+03</pdfrwt>
<totfact> 0.57400574E+00</totfact>
</mgrwt>
</event>
<event>
12    1  0.1338445E-007  0.1946609E+04  0.7818608E-02  0.8631998E-01
          2   -1    0    0  501    0  0.00000000000E+00  0.00000000000E+00  0.22199503577E+04  0.22199503577E+04  0.00000000000E+00 0. -1.
         -2   -1    0    0    0  501 -0.00000000000E+00 -0.00000000000E+00 -0.22498312366E+04  0.22498312366E+04  0.00000000000E+00 0.  1.
         23    2    1    2    0    0  0.18552298019E+04  0.48600376967E+03 -0.10791333296E+04  0.22028553532E+04  0.99828262548E+02 0.  0.
    5000000    2    1    2    0    0 -0.18552298019E+04 -0.48600376967E+03  0.10492524507E+04  0.22669262410E+04  0.59995549413E+03 0.  0.
         23    2    4    4    0    0 -0.11227602096E+04 -0.54549713821E+02  0.41358808688E+03  0.12014330220E+04  0.93915073971E+02 0.  0.
         23    2    4    4    0    0 -0.73246959231E+03 -0.43145405585E+03  0.63566436378E+03  0.10654932190E+04  0.92424620541E+02 0.  0.
          4    1    3    3  502    0  0.10424885497E+04  0.26131372064E+03 -0.65984284463E+03  0.12611343372E+04  0.00000000000E+00 0. -1.
         -4    1    3    3    0  502  0.81274125220E+03  0.22469004902E+03 -0.41929048493E+03  0.94172101596E+03  0.00000000000E+00 0.  1.
         13    1    5    5    0    0 -0.88975298072E+03 -0.55579652498E+02  0.36555197137E+03  0.96352358987E+03  0.00000000000E+00 0. -1.
        -13    1    5    5    0    0 -0.23300722890E+03  0.10299386769E+01  0.48036115514E+02  0.23790943211E+03  0.00000000000E+00 0.  1.
          2    1    6    6  503    0 -0.68895878785E+03 -0.39624308397E+03  0.61807457267E+03  0.10068212206E+04  0.00000000000E+00 0. -1.
         -2    1    6    6    0  503 -0.43510804460E+02 -0.35210971877E+02  0.17589791107E+02  0.58671998402E+02  0.00000000000E+00 0.  1.
<mgrwt>
<rscale>  0 0.19466086E+04</rscale>
<asrwt>0</asrwt>
<pdfrwt beam="1">  1        2 0.34153082E+00 0.19466086E+04</pdfrwt>
<pdfrwt beam="2">  1       -2 0.34612788E+00 0.19466086E+04</pdfrwt>
<totfact> 0.73802975E-02</totfact>
</mgrwt>
</event>
<event>
12    1  0.1338445E-007  0.1323589E+04  0.7818608E-02  0.9011065E-01
          2   -1    0    0  501    0  0.00000000000E+00  0.00000000000E+00  0.23175522687E+04  0.23175522687E+04  0.00000000000E+00 0. -1.
         -2   -1    0    0    0  501 -0.00000000000E+00 -0.00000000000E+00 -0.83199964663E+03  0.83199964663E+03  0.00000000000E+00 0.  1.
         23    2    1    2    0    0  0.24290231678E+02 -0.12800398809E+04  0.10833164354E+04  0.16795804975E+04  0.91236157454E+02 0.  0.
    5000000    2    1    2    0    0 -0.24290231678E+02  0.12800398809E+04  0.40223618671E+03  0.14699714179E+04  0.59994158667E+03 0.  0.
         23    2    4    4    0    0  0.69776071700E+02  0.12143780139E+04  0.22737814382E+03  0.12407434567E+04  0.90337390974E+02 0.  0.
         23    2    4    4    0    0 -0.94066303378E+02  0.65661866966E+02  0.17485804290E+03  0.22922796115E+03  0.93862520768E+02 0.  0.
          2    1    3    3  502    0  0.12567751199E+02 -0.54715505455E+03  0.40449972777E+03  0.68055611955E+03  0.00000000000E+00 0. -1.
         -2    1    3    3    0  502  0.11722480479E+02 -0.73288482633E+03  0.67881670763E+03  0.99902437796E+03  0.00000000000E+00 0.  1.
         13    1    5    5    0    0 -0.15863965743E+02  0.26993122203E+03  0.29546445380E+02  0.27200647505E+03  0.00000000000E+00 0.  1.
        -13    1    5    5    0    0  0.85640037442E+02  0.94444679188E+03  0.19783169844E+03  0.96873698165E+03  0.00000000000E+00 0. -1.
          2    1    6    6  503    0 -0.57706479548E+01  0.59383278422E+02  0.67749771227E+02  0.90275720076E+02  0.00000000000E+00 0. -1.
         -2    1    6    6    0  503 -0.88295655424E+02  0.62785885441E+01  0.10710827167E+03  0.13895224108E+03  0.00000000000E+00 0.  1.
<mgrwt>
<rscale>  0 0.13235891E+04</rscale>
<asrwt>0</asrwt>
<pdfrwt beam="1">  1        2 0.35654650E+00 0.13235891E+04</pdfrwt>
<pdfrwt beam="2">  1       -2 0.12799995E+00 0.13235891E+04</pdfrwt>
<totfact> 0.19302945E+00</totfact>
</mgrwt>
</event>
<event>
12    1  0.1338445E-007  0.4610995E+03  0.7818608E-02  0.1024463E+00
         -2   -1    0    0    0  501 -0.00000000000E+00  0.00000000000E+00  0.22818079514E+03  0.22818079514E+03  0.00000000000E+00 0.  1.
          2   -1    0    0  501    0  0.00000000000E+00 -0.00000000000E+00 -0.14705015053E+04  0.14705015053E+04  0.00000000000E+00 0. -1.
         23    2    1    2    0    0  0.53371102665E+02  0.27066704029E+03  0.16942528746E+01  0.29026521905E+03  0.90232508539E+02 0.  0.
    5000000    2    1    2    0    0 -0.53371102665E+02 -0.27066704029E+03 -0.12440149630E+04  0.14084170814E+04  0.59996360355E+03 0.  0.
         23    2    4    4    0    0 -0.28987604249E+03 -0.26868171867E+03 -0.70748468115E+03  0.81538027393E+03  0.89957940662E+02 0.  0.
         23    2    4    4    0    0  0.23650493983E+03 -0.19853216171E+01 -0.53653028190E+03  0.59303680747E+03  0.88822201950E+02 0.  0.
          1    1    3    3  502    0 -0.51723766719E+01  0.12079760760E+03 -0.33706606507E+02  0.12551872691E+03  0.00000000000E+00 0. -1.
         -1    1    3    3    0  502  0.58543479337E+02  0.14986943269E+03  0.35400859381E+02  0.16474649214E+03  0.00000000000E+00 0.  1.
         11    1    5    5    0    0 -0.21397930963E+03 -0.14447981704E+03 -0.41680016549E+03  0.49028964953E+03  0.00000000000E+00 0. -1.
        -11    1    5    5    0    0 -0.75896732864E+02 -0.12420190163E+03 -0.29068451566E+03  0.32509062440E+03  0.00000000000E+00 0.  1.
          3    1    6    6  503    0  0.11427225365E+03  0.30318110959E+01 -0.15651176896E+03  0.19381247033E+03  0.00000000000E+00 0. -1.
         -3    1    6    6    0  503  0.12223268618E+03 -0.50171327130E+01 -0.38001851294E+03  0.39922433715E+03  0.00000000000E+00 0.  1.
<mgrwt>
<rscale>  0 0.46109951E+03</rscale>
<asrwt>0</asrwt>
<pdfrwt beam="1">  1        2 0.22623100E+00 0.46109951E+03</pdfrwt>
<pdfrwt beam="2">  1       -2 0.35104737E-01 0.46109951E+03</pdfrwt>
<totfact> 0.10563221E+02</totfact>
</mgrwt>
</event>
<event>
12    1  0.1338445E-007  0.7577337E+03  0.7818608E-02  0.9623295E-01
          2   -1    0    0  501    0  0.00000000000E+00  0.00000000000E+00  0.85343414138E+03  0.85343414138E+03  0.00000000000E+00 0. -1.
         -2   -1    0    0    0  501 -0.00000000000E+00 -0.00000000000E+00 -0.16373903885E+04  0.16373903885E+04  0.00000000000E+00 0.  1.
         23    2    1    2    0    0 -0.67843041461E+03  0.29178853479E+03  0.49697660649E+03  0.89488167961E+03  0.91755635256E+02 0.  0.
    5000000    2    1    2    0    0  0.67843041461E+03 -0.29178853479E+03 -0.12809328536E+04  0.15959428503E+04  0.60069645363E+03 0.  0.
         23    2    4    4    0    0  0.14358670261E+03 -0.15525392105E+03 -0.38526076474E+02  0.23330656861E+03  0.90701572312E+02 0.  0.
         23    2    4    4    0    0  0.53484371199E+03 -0.13653461374E+03 -0.12424067771E+04  0.13626362817E+04  0.92214636772E+02 0.  0.
          4    1    3    3  502    0 -0.39031102019E+03  0.18152404940E+03  0.23663538091E+03  0.49121276092E+03  0.00000000000E+00 0. -1.
         -4    1    3    3    0  502 -0.28811939442E+03  0.11026448539E+03  0.26034122559E+03  0.40366891869E+03  0.00000000000E+00 0.  1.
         11    1    5    5    0    0  0.10072781927E+03 -0.62843263651E+02  0.12491704999E+02  0.11937927816E+03  0.00000000000E+00 0.  1.
        -11    1    5    5    0    0  0.42858883344E+02 -0.92410657397E+02 -0.51017781473E+02  0.11392729045E+03  0.00000000000E+00 0. -1.
          3    1    6    6  503    0  0.31138714333E+03 -0.11288630902E+03 -0.81567076200E+03  0.88035451029E+03  0.00000000000E+00 0. -1.
         -3    1    6    6    0  503  0.22345656866E+03 -0.23648304717E+02 -0.42673601514E+03  0.48228177139E+03  0.00000000000E+00 0.  1.
<mgrwt>
<rscale>  0 0.75773372E+03</rscale>
<asrwt>0</asrwt>
<pdfrwt beam="1">  1        2 0.13129756E+00 0.75773372E+03</pdfrwt>
<pdfrwt beam="2">  1       -2 0.25190621E+00 0.75773372E+03</pdfrwt>
<totfact> 0.20364000E+00</totfact>
</mgrwt>
</event>
<event>
12    1  0.1338445E-007  0.5155928E+03  0.7818608E-02  0.1009787E+00
          2   -1    0    0  501    0  0.00000000000E+00  0.00000000000E+00  0.15959253242E+04  0.15959253242E+04  0.00000000000E+00 0.  1.
         -2   -1    0    0    0  501 -0.00000000000E+00 -0.00000000000E+00 -0.23048981926E+03  0.23048981926E+03  0.00000000000E+00 0. -1.
         23    2    1    2    0    0  0.26736505822E+03 -0.25044500369E+03  0.11958425226E+03  0.39583776023E+03  0.90445369174E+02 0.  0.
    5000000    2    1    2    0    0 -0.26736505822E+03  0.25044500369E+03  0.12458512527E+04  0.14305773832E+04  0.60016625313E+03 0.  0.
         23    2    4    4    0    0  0.53698229370E+01  0.35256637779E+03  0.45959920108E+03  0.58708604455E+03  0.95429095793E+02 0.  0.
         23    2    4    4    0    0 -0.27273488116E+03 -0.10212137410E+03  0.78625205161E+03  0.84349133870E+03  0.92044876850E+02 0.  0.
          4    1    3    3  502    0  0.12636980519E+03 -0.12037515991E+03  0.97659094502E+01  0.17479954169E+03  0.00000000000E+00 0. -1.
         -4    1    3    3    0  502  0.14099525303E+03 -0.13006984377E+03  0.10981834281E+03  0.22103821854E+03  0.00000000000E+00 0.  1.
         13    1    5    5    0    0 -0.21680986655E+02  0.32424523289E+03  0.39447337909E+03  0.51109126685E+03  0.00000000000E+00 0. -1.
        -13    1    5    5    0    0  0.27050809592E+02  0.28321144892E+02  0.65125821993E+02  0.75994777701E+02  0.00000000000E+00 0.  1.
          2    1    6    6  503    0 -0.60568142486E+02 -0.58269913058E+02  0.15849475729E+03  0.17940030864E+03  0.00000000000E+00 0. -1.
         -2    1    6    6    0  503 -0.21216673867E+03 -0.43851461043E+02  0.62775729432E+03  0.66409103006E+03  0.00000000000E+00 0.  1.
<mgrwt>
<rscale>  0 0.51559277E+03</rscale>
<asrwt>0</asrwt>
<pdfrwt beam="1">  1        2 0.24552697E+00 0.51559277E+03</pdfrwt>
<pdfrwt beam="2">  1       -2 0.35459973E-01 0.51559277E+03</pdfrwt>
<totfact> 0.87818211E+01</totfact>
</mgrwt>
</event>
<event>
12    1  0.1338445E-007  0.1579583E+04  0.7818608E-02  0.8833190E-01
         -2   -1    0    0    0  501 -0.00000000000E+00  0.00000000000E+00  0.10666670759E+04  0.10666670759E+04  0.00000000000E+00 0.  1.
          2   -1    0    0  501    0  0.00000000000E+00 -0.00000000000E+00 -0.24880836184E+04  0.24880836184E+04  0.00000000000E+00 0. -1.
         23    2    1    2    0    0 -0.81726194973E+03  0.13388066792E+04 -0.56664752268E+03  0.16703706344E+04  0.93424957781E+02 0.  0.
    5000000    2    1    2    0    0  0.81726194973E+03 -0.13388066792E+04 -0.85476901981E+03  0.18843800598E+04  0.59994809267E+03 0.  0.
         23    2    4    4    0    0  0.47073253064E+03 -0.52232217756E+03 -0.66672334536E+03  0.97321868064E+03  0.90691832707E+02 0.  0.
         23    2    4    4    0    0  0.34652941909E+03 -0.81648450161E+03 -0.18804567445E+03  0.91116137917E+03  0.90134918584E+02 0.  0.
          3    1    3    3  502    0 -0.84303525001E+02  0.13864742036E+03 -0.29079338356E+02  0.16485083991E+03  0.00000000000E+00 0. -1.
         -3    1    3    3    0  502 -0.73295842473E+03  0.12001592588E+04 -0.53756818433E+03  0.15055197945E+04  0.00000000000E+00 0.  1.
         11    1    5    5    0    0  0.79623475873E+02 -0.88884227321E+02 -0.69729335135E+02  0.13821173595E+03  0.00000000000E+00 0. -1.
        -11    1    5    5    0    0  0.39110905477E+03 -0.43343795024E+03 -0.59699401022E+03  0.83500694468E+03  0.00000000000E+00 0.  1.
          4    1    6    6  503    0  0.27114303083E+03 -0.60565561871E+03 -0.17798364045E+03  0.68703380406E+03  0.00000000000E+00 0. -1.
         -4    1    6    6    0  503  0.75386388252E+02 -0.21082888289E+03 -0.10062033997E+02  0.22412757511E+03  0.00000000000E+00 0.  1.
<mgrwt>
<rscale>  0 0.15795826E+04</rscale>
<asrwt>0</asrwt>
<pdfrwt beam="1">  1        2 0.38278209E+00 0.15795826E+04</pdfrwt>
<pdfrwt beam="2">  1       -2 0.16410263E+00 0.15795826E+04</pdfrwt>
<totfact> 0.77760182E-01</totfact>
</mgrwt>
</event>
<event>
12    1  0.1338445E-007  0.3539136E+03  0.7818608E-02  0.1061020E+00
         -2   -1    0    0    0  501 -0.00000000000E+00  0.00000000000E+00  0.76183077477E+02  0.76183077477E+02  0.00000000000E+00 0.  1.
          2   -1    0    0  501    0  0.00000000000E+00 -0.00000000000E+00 -0.30797450904E+04  0.30797450904E+04  0.00000000000E+00 0. -1.
         23    2    1    2    0    0 -0.26999487629E+03 -0.66623654547E+02 -0.68751912695E+03  0.74744917897E+03  0.93068687846E+02 0.  0.
    5000000    2    1    2    0    0  0.26999487629E+03  0.66623654547E+02 -0.23160428860E+04  0.24084789889E+04  0.59948348247E+03 0.  0.
         23    2    4    4    0    0  0.30506477864E+01  0.11516124607E+03 -0.18903414907E+04  0.18961475449E+04  0.93344209339E+02 0.  0.
         23    2    4    4    0    0  0.26694422850E+03 -0.48537591520E+02 -0.42570139526E+03  0.51233144402E+03  0.87445478337E+02 0.  0.
          3    1    3    3  502    0 -0.91673740029E+02 -0.30045521085E+02 -0.36043865771E+03  0.37312576154E+03  0.00000000000E+00 0. -1.
         -3    1    3    3    0  502 -0.17832113626E+03 -0.36578133462E+02 -0.32708046923E+03  0.37432341743E+03  0.00000000000E+00 0.  1.
         13    1    5    5    0    0 -0.45144556427E+02  0.55683310480E+02 -0.89379460277E+03  0.89666462738E+03  0.00000000000E+00 0.  1.
        -13    1    5    5    0    0  0.48195204213E+02  0.59477935586E+02 -0.99654688797E+03  0.99948291754E+03  0.00000000000E+00 0. -1.
          2    1    6    6  503    0  0.26392890666E+02 -0.29794484877E+02 -0.34333220491E+02  0.52564874546E+02  0.00000000000E+00 0.  1.
         -2    1    6    6    0  503  0.24055133784E+03 -0.18743106643E+02 -0.39136817477E+03  0.45976656947E+03  0.00000000000E+00 0. -1.
<mgrwt>
<rscale>  0 0.35391360E+03</rscale>
<asrwt>0</asrwt>
<pdfrwt beam="1">  1        2 0.47380678E+00 0.35391360E+03</pdfrwt>
<pdfrwt beam="2">  1       -2 0.11720477E-01 0.35391360E+03</pdfrwt>
<totfact> 0.93638000E+01</totfact>
</mgrwt>
</event>
<event>
12    1  0.1853746E-007  0.1083029E+04  0.7818608E-02  0.9221892E-01
         -1   -1    0    0    0  501 -0.00000000000E+00  0.00000000000E+00  0.85853352818E+03  0.85853352818E+03  0.00000000000E+00 0.  1.
          1   -1    0    0  501    0  0.00000000000E+00 -0.00000000000E+00 -0.17496244683E+04  0.17496244683E+04  0.00000000000E+00 0. -1.
         23    2    1    2    0    0  0.10045887852E+04  0.22497464927E+03  0.12643267527E+03  0.10412361513E+04  0.91516561820E+02 0.  0.
    5000000    2    1    2    0    0 -0.10045887852E+04 -0.22497464927E+03 -0.10175236154E+04  0.15669218452E+04  0.60006461399E+03 0.  0.
         23    2    4    4    0    0 -0.24875850214E+03 -0.26255278141E+03 -0.57438276491E+03  0.68515345670E+03  0.93300285050E+02 0.  0.
         23    2    4    4    0    0 -0.75583028309E+03  0.37578132144E+02 -0.44314085046E+03  0.88176838851E+03  0.91924669081E+02 0.  0.
          4    1    3    3  502    0  0.32245447834E+03  0.29887000439E+02  0.49411200713E+02  0.32758447788E+03  0.00000000000E+00 0.  1.
         -4    1    3    3    0  502  0.68213430689E+03  0.19508764883E+03  0.77021474553E+02  0.71365167337E+03  0.00000000000E+00 0. -1.
         13    1    5    5    0    0 -0.77471598280E+02 -0.14922977273E+03 -0.25953734414E+03  0.30924263389E+03  0.00000000000E+00 0. -1.
        -13    1    5    5    0    0 -0.17128690386E+03 -0.11332300868E+03 -0.31484542076E+03  0.37591082281E+03  0.00000000000E+00 0.  1.
          4    1    6    6  503    0 -0.17014367366E+03  0.34061694137E+02 -0.68794202296E+02  0.18665934470E+03  0.00000000000E+00 0. -1.
         -4    1    6    6    0  503 -0.58568660942E+03  0.35164380068E+01 -0.37434664816E+03  0.69510904381E+03  0.00000000000E+00 0.  1.
<mgrwt>
<rscale>  0 0.10830292E+04</rscale>
<asrwt>0</asrwt>
<pdfrwt beam="1">  1        1 0.26917299E+00 0.10830292E+04</pdfrwt>
<pdfrwt beam="2">  1       -1 0.13208208E+00 0.10830292E+04</pdfrwt>
<totfact> 0.21404084E+00</totfact>
</mgrwt>
</event>
<event>
12    1  0.1338445E-007  0.1083038E+04  0.7818608E-02  0.9221884E-01
          1   -1    0    0  501    0  0.00000000000E+00  0.00000000000E+00  0.43801186752E+04  0.43801186752E+04  0.00000000000E+00 0. -1.
         -1   -1    0    0    0  501 -0.00000000000E+00 -0.00000000000E+00 -0.29865059670E+03  0.29865059670E+03  0.00000000000E+00 0.  1.
         23    2    1    2    0    0 -0.10515920465E+04 -0.14988112044E+03  0.18179595197E+04  0.21074356217E+04  0.89430989571E+02 0.  0.
    5000000    2    1    2    0    0  0.10515920465E+04  0.14988112044E+03  0.22635085588E+04  0.25713336502E+04  0.59997963507E+03 0.  0.
         23    2    4    4    0    0  0.10900305224E+03  0.10769715877E+03  0.85605295246E+03  0.87436567619E+03  0.90599861399E+02 0.  0.
         23    2    4    4    0    0  0.94258899421E+03  0.42183961669E+02  0.14074556063E+04  0.16969679740E+04  0.92279588027E+02 0.  0.
          3    1    3    3  502    0 -0.87207393285E+03 -0.15568294752E+03  0.15352058151E+04  0.17724579034E+04  0.00000000000E+00 0. -1.
         -3    1    3    3    0  502 -0.17951811360E+03  0.58018270757E+01  0.28275370459E+03  0.33497771831E+03  0.00000000000E+00 0.  1.
         11    1    5    5    0    0  0.52594795469E+02  0.48980297404E+02  0.18630937472E+03  0.19969092406E+03  0.00000000000E+00 0. -1.
        -11    1    5    5    0    0  0.56408256772E+02  0.58716861371E+02  0.66974357773E+03  0.67467475213E+03  0.00000000000E+00 0.  1.
          4    1    6    6  503    0  0.30741703768E+03 -0.25866413743E+02  0.42765250719E+03  0.52731487114E+03  0.00000000000E+00 0. -1.
         -4    1    6    6    0  503  0.63517195653E+03  0.68050375412E+02  0.97980309911E+03  0.11696531028E+04  0.00000000000E+00 0.  1.
<mgrwt>
<rscale>  0 0.10830377E+04</rscale>
<asrwt>0</asrwt>
<pdfrwt beam="1">  1        1 0.67386436E+00 0.10830377E+04</pdfrwt>
<pdfrwt beam="2">  1       -1 0.45946249E-01 0.10830377E+04</pdfrwt>
<totfact> 0.21053942E-01</totfact>
</mgrwt>
</event>
<event>
12    1  0.1338445E-007  0.1815129E+04  0.7818608E-02  0.8698295E-01
          2   -1    0    0  501    0  0.00000000000E+00  0.00000000000E+00  0.10035902696E+04  0.10035902696E+04  0.00000000000E+00 0. -1.
         -2   -1    0    0    0  501 -0.00000000000E+00 -0.00000000000E+00 -0.39358247332E+04  0.39358247332E+04  0.00000000000E+00 0.  1.
         23    2    1    2    0    0  0.17709090156E+04  0.15759462007E+03 -0.46587480322E+03  0.18404016047E+04  0.95309645787E+02 0.  0.
    5000000    2    1    2    0    0 -0.17709090156E+04 -0.15759462007E+03 -0.24663596604E+04  0.30990133980E+04  0.59999938420E+03 0.  0.
         23    2    4    4    0    0 -0.10862808135E+04 -0.34797102654E+03 -0.13165311511E+04  0.17442021939E+04  0.88866080656E+02 0.  0.
         23    2    4    4    0    0 -0.68462820207E+03  0.19037640647E+03 -0.11498285093E+04  0.13548112041E+04  0.91917609011E+02 0.  0.
          4    1    3    3  502    0  0.23869711466E+03  0.10535214161E+02 -0.94819323575E+02  0.25705642845E+03  0.00000000000E+00 0. -1.
         -4    1    3    3    0  502  0.15322119009E+04  0.14705940591E+03 -0.37105547964E+03  0.15833451763E+04  0.00000000000E+00 0.  1.
         11    1    5    5    0    0 -0.70859268030E+03 -0.20653024412E+03 -0.90797936314E+03  0.11701217254E+04  0.00000000000E+00 0.  1.
        -11    1    5    5    0    0 -0.37768813323E+03 -0.14144078243E+03 -0.40855178799E+03  0.57408046857E+03  0.00000000000E+00 0. -1.
          3    1    6    6  503    0 -0.27126635042E+03  0.69690339663E+02 -0.53941860964E+03  0.60779487719E+03  0.00000000000E+00 0. -1.
         -3    1    6    6    0  503 -0.41336185165E+03  0.12068606681E+03 -0.61040989962E+03  0.74701632691E+03  0.00000000000E+00 0.  1.
<mgrwt>
<rscale>  0 0.18151292E+04</rscale>
<asrwt>0</asrwt>
<pdfrwt beam="1">  1        2 0.15439851E+00 0.18151292E+04</pdfrwt>
<pdfrwt beam="2">  1       -2 0.60551149E+00 0.18151292E+04</pdfrwt>
<totfact> 0.10770321E-02</totfact>
</mgrwt>
</event>
<event>
12    1  0.1338445E-007  0.2878918E+03  0.7818608E-02  0.1091455E+00
         -1   -1    0    0    0  501 -0.00000000000E+00  0.00000000000E+00  0.28636608038E+03  0.28636608038E+03  0.00000000000E+00 0.  1.
          1   -1    0    0  501    0  0.00000000000E+00 -0.00000000000E+00 -0.61429039375E+03  0.61429039375E+03  0.00000000000E+00 0. -1.
         23    2    1    2    0    0 -0.10534824684E+03 -0.99390820804E+02  0.19183739701E+02  0.19257418594E+03  0.12545920791E+03 0.  0.
    5000000    2    1    2    0    0  0.10534824684E+03  0.99390820804E+02 -0.34710805307E+03  0.70808228819E+03  0.59993311124E+03 0.  0.
         23    2    4    4    0    0  0.28569992908E+02  0.23002419311E+03  0.66704585217E+02  0.25853671287E+03  0.93082524155E+02 0.  0.
         23    2    4    4    0    0  0.76778253932E+02 -0.13063337231E+03 -0.41381263828E+03  0.44954557531E+03  0.88827622072E+02 0.  0.
          2    1    3    3  502    0 -0.61136748383E+02 -0.96200784105E+02  0.63009534165E+02  0.13024014074E+03  0.00000000000E+00 0. -1.
         -2    1    3    3    0  502 -0.44211498458E+02 -0.31900366991E+01 -0.43825794465E+02  0.62334045196E+02  0.00000000000E+00 0.  1.
         11    1    5    5    0    0  0.32889684893E+02  0.33769107287E+02 -0.92753260151E+01  0.48042852246E+02  0.00000000000E+00 0. -1.
        -11    1    5    5    0    0 -0.43196919842E+01  0.19625508582E+03  0.75979911232E+02  0.21049386063E+03  0.00000000000E+00 0.  1.
          3    1    6    6  503    0  0.76678638577E+02 -0.46040986255E+02 -0.18220286863E+03  0.20297110968E+03  0.00000000000E+00 0. -1.
         -3    1    6    6    0  503  0.99615355048E-01 -0.84592386051E+02 -0.23160976966E+03  0.24657446563E+03  0.00000000000E+00 0.  1.
<mgrwt>
<rscale>  0 0.28789176E+03</rscale>
<asrwt>0</asrwt>
<pdfrwt beam="1">  1        1 0.94506214E-01 0.28789176E+03</pdfrwt>
<pdfrwt beam="2">  1       -1 0.44056320E-01 0.28789176E+03</pdfrwt>
<totfact> 0.17793823E+02</totfact>
</mgrwt>
</event>
<event>
12    1  0.1338445E-007  0.5588990E+03  0.7818608E-02  0.9994549E-01
          2   -1    0    0  501    0  0.00000000000E+00  0.00000000000E+00  0.95185126949E+03  0.95185126949E+03  0.00000000000E+00 0. -1.
         -2   -1    0    0    0  501 -0.00000000000E+00 -0.00000000000E+00 -0.48989576654E+03  0.48989576654E+03  0.00000000000E+00 0.  1.
         23    2    1    2    0    0  0.53326332123E+03  0.94093971086E+02  0.26475033070E+03  0.60965919291E+03  0.91477585943E+02 0.  0.
    5000000    2    1    2    0    0 -0.53326332123E+03 -0.94093971086E+02  0.19720517225E+03  0.83208784313E+03  0.60021400646E+03 0.  0.
         23    2    4    4    0    0 -0.11906273347E+03 -0.74850215110E+02  0.34544924175E+03  0.38433012651E+03  0.92714498936E+02 0.  0.
         23    2    4    4    0    0 -0.41420058776E+03 -0.19243755976E+02 -0.14824406950E+03  0.44775771662E+03  0.81106224195E+02 0.  0.
          4    1    3    3  502    0  0.35859826809E+03  0.71323265018E+02  0.13059613911E+03  0.38824615589E+03  0.00000000000E+00 0. -1.
         -4    1    3    3    0  502  0.17466505314E+03  0.22770706067E+02  0.13415419159E+03  0.22141303702E+03  0.00000000000E+00 0.  1.
         13    1    5    5    0    0 -0.41565265618E+02  0.11179450557E+02  0.16011315694E+03  0.16579769132E+03  0.00000000000E+00 0.  1.
        -13    1    5    5    0    0 -0.77497467849E+02 -0.86029665667E+02  0.18533608481E+03  0.21853243519E+03  0.00000000000E+00 0. -1.
          1    1    6    6  503    0 -0.11991183524E+03 -0.26576197906E+02 -0.76717499729E+02  0.14481269727E+03  0.00000000000E+00 0. -1.
         -1    1    6    6    0  503 -0.29428875252E+03  0.73324419300E+01 -0.71526569771E+02  0.30294501935E+03  0.00000000000E+00 0.  1.
<mgrwt>
<rscale>  0 0.55889900E+03</rscale>
<asrwt>0</asrwt>
<pdfrwt beam="1">  1        2 0.14643866E+00 0.55889900E+03</pdfrwt>
<pdfrwt beam="2">  1       -2 0.75368580E-01 0.55889900E+03</pdfrwt>
<totfact> 0.44261908E+01</totfact>
</mgrwt>
</event>
<event>
12    1  0.1338445E-007  0.6477300E+03  0.7818608E-02  0.9811048E-01
          1   -1    0    0  501    0  0.00000000000E+00  0.00000000000E+00  0.15955116722E+04  0.15955116722E+04  0.00000000000E+00 0. -1.
         -1   -1    0    0    0  501 -0.00000000000E+00 -0.00000000000E+00 -0.41531952144E+03  0.41531952144E+03  0.00000000000E+00 0.  1.
         23    2    1    2    0    0 -0.53298945932E+03  0.30945829407E+03  0.92095802676E+03  0.11120334313E+04  0.92803371152E+02 0.  0.
    5000000    2    1    2    0    0  0.53298945932E+03 -0.30945829407E+03  0.25923412397E+03  0.89879776235E+03  0.60066037581E+03 0.  0.
         23    2    4    4    0    0  0.55269044993E+03 -0.32708424174E+03  0.37645808217E+03  0.74989175156E+03  0.90366568934E+02 0.  0.
         23    2    4    4    0    0 -0.19700990618E+02  0.17625947669E+02 -0.11722395820E+03  0.14890601079E+03  0.87936002930E+02 0.  0.
          4    1    3    3  502    0 -0.10327315410E+03  0.48654445058E+02  0.11409718912E+03  0.16140250292E+03  0.00000000000E+00 0.  1.
         -4    1    3    3    0  502 -0.42971630521E+03  0.26080384901E+03  0.80686083765E+03  0.95063092836E+03  0.00000000000E+00 0. -1.
         13    1    5    5    0    0  0.37490268253E+03 -0.20216123389E+03  0.29369086346E+03  0.51737366490E+03  0.00000000000E+00 0. -1.
        -13    1    5    5    0    0  0.17778776740E+03 -0.12492300785E+03  0.82767218715E+02  0.23251808666E+03  0.00000000000E+00 0.  1.
          3    1    6    6  503    0 -0.12449298425E+02 -0.36146706775E+01  0.12049500442E+02  0.17698625265E+02  0.00000000000E+00 0. -1.
         -3    1    6    6    0  503 -0.72516921931E+01  0.21240618347E+02 -0.12927345864E+03  0.13120738553E+03  0.00000000000E+00 0.  1.
<mgrwt>
<rscale>  0 0.64772997E+03</rscale>
<asrwt>0</asrwt>
<pdfrwt beam="1">  1        1 0.24546333E+00 0.64772997E+03</pdfrwt>
<pdfrwt beam="2">  1       -1 0.63895312E-01 0.64772997E+03</pdfrwt>
<totfact> 0.14715720E+01</totfact>
</mgrwt>
</event>
<event>
12    1  0.1338445E-007  0.3422659E+03  0.7818608E-02  0.1065835E+00
         -2   -1    0    0    0  501 -0.00000000000E+00  0.00000000000E+00  0.27458872011E+04  0.27458872011E+04  0.00000000000E+00 0.  1.
          2   -1    0    0  501    0  0.00000000000E+00 -0.00000000000E+00 -0.10824701509E+03  0.10824701509E+03  0.00000000000E+00 0. -1.
         23    2    1    2    0    0 -0.10426098874E+03  0.26276849162E+03  0.29163521904E+03  0.41591392922E+03  0.89530227159E+02 0.  0.
    5000000    2    1    2    0    0  0.10426098874E+03 -0.26276849162E+03  0.23460049670E+04  0.24382202870E+04  0.60105010507E+03 0.  0.
         23    2    4    4    0    0  0.10477666013E+03 -0.59009777166E+01  0.89933830456E+02  0.16576102790E+03  0.91518601747E+02 0.  0.
         23    2    4    4    0    0 -0.51567139031E+00 -0.25686751390E+03  0.22560711365E+04  0.22724592591E+04  0.90735469911E+02 0.  0.
          2    1    3    3  502    0 -0.10916607711E+03  0.17627073257E+03  0.17974315477E+03  0.27440154016E+03  0.00000000000E+00 0. -1.
         -2    1    3    3    0  502  0.49050883747E+01  0.86497759042E+02  0.11189206427E+03  0.14151238906E+03  0.00000000000E+00 0.  1.
         13    1    5    5    0    0  0.35304117588E+01  0.23766339368E+02  0.45152288362E+02  0.51147158655E+02  0.00000000000E+00 0. -1.
        -13    1    5    5    0    0  0.10124624837E+03 -0.29667317084E+02  0.44781542094E+02  0.11461386925E+03  0.00000000000E+00 0.  1.
          4    1    6    6  503    0  0.22946860649E+02 -0.12939685166E+03  0.14603667530E+04  0.14662677644E+04  0.00000000000E+00 0. -1.
         -4    1    6    6    0  503 -0.23462532039E+02 -0.12747066224E+03  0.79570438349E+03  0.80619149466E+03  0.00000000000E+00 0.  1.
<mgrwt>
<rscale>  0 0.34226592E+03</rscale>
<asrwt>0</asrwt>
<pdfrwt beam="1">  1        2 0.16653389E-01 0.34226592E+03</pdfrwt>
<pdfrwt beam="2">  1       -2 0.42244413E+00 0.34226592E+03</pdfrwt>
<totfact> 0.21691280E+00</totfact>
</mgrwt>
</event>
<event>
12    1  0.1338445E-007  0.1509954E+04  0.7818608E-02  0.8877860E-01
          1   -1    0    0  501    0  0.00000000000E+00  0.00000000000E+00  0.13474631410E+04  0.13474631410E+04  0.00000000000E+00 0. -1.
         -1   -1    0    0    0  501 -0.00000000000E+00 -0.00000000000E+00 -0.17459159839E+04  0.17459159839E+04  0.00000000000E+00 0.  1.
         23    2    1    2    0    0 -0.95220822242E+03  0.11242597886E+04 -0.22810337948E+03  0.14934370641E+04  0.87535944548E+02 0.  0.
    5000000    2    1    2    0    0  0.95220822242E+03 -0.11242597886E+04 -0.17034946343E+03  0.15999420608E+04  0.60011256202E+03 0.  0.
         23    2    4    4    0    0  0.21590290264E+03 -0.26926156899E+02 -0.14187697446E+03  0.27504419300E+03  0.90449714900E+02 0.  0.
         23    2    4    4    0    0  0.73630531978E+03 -0.10973336317E+04 -0.28472488968E+02  0.13248978678E+04  0.90868334694E+02 0.  0.
          4    1    3    3  502    0 -0.21968767238E+03  0.31697629069E+03 -0.49904009458E+02  0.38887922600E+03  0.00000000000E+00 0. -1.
         -4    1    3    3    0  502 -0.73252055004E+03  0.80728349792E+03 -0.17819937002E+03  0.11045578381E+04  0.00000000000E+00 0.  1.
         13    1    5    5    0    0  0.18618699262E+03 -0.38351977794E+02 -0.81586866737E+02  0.20686441754E+03  0.00000000000E+00 0.  1.
        -13    1    5    5    0    0  0.29715910021E+02  0.11425820894E+02 -0.60290107728E+02  0.68179775457E+02  0.00000000000E+00 0. -1.
          2    1    6    6  503    0  0.11372449615E+03 -0.19980793669E+03  0.25069449224E+02  0.23126813415E+03  0.00000000000E+00 0. -1.
         -2    1    6    6    0  503  0.62258082364E+03 -0.89752569502E+03 -0.53541938192E+02  0.10936297336E+04  0.00000000000E+00 0.  1.
<mgrwt>
<rscale>  0 0.15099544E+04</rscale>
<asrwt>0</asrwt>
<pdfrwt beam="1">  1        1 0.20730202E+00 0.15099544E+04</pdfrwt>
<pdfrwt beam="2">  1       -1 0.26860246E+00 0.15099544E+04</pdfrwt>
<totfact> 0.41760161E-01</totfact>
</mgrwt>
</event>
<event>
12    1  0.1338445E-007  0.1187542E+04  0.7818608E-02  0.9123831E-01
          1   -1    0    0  501    0  0.00000000000E+00  0.00000000000E+00  0.16339020369E+04  0.16339020369E+04  0.00000000000E+00 0. -1.
         -1   -1    0    0    0  501 -0.00000000000E+00 -0.00000000000E+00 -0.10904654119E+04  0.10904654119E+04  0.00000000000E+00 0.  1.
         23    2    1    2    0    0 -0.71312504534E+03 -0.86342632969E+03 -0.34365946286E+03  0.11750174999E+04  0.92260184267E+02 0.  0.
    5000000    2    1    2    0    0  0.71312504534E+03  0.86342632969E+03  0.88709608779E+03  0.15493499489E+04  0.59957771639E+03 0.  0.
         23    2    4    4    0    0  0.17725677245E+02  0.42418039002E+03  0.22448208028E+03  0.48881416392E+03  0.91125625206E+02 0.  0.
         23    2    4    4    0    0  0.69539936810E+03  0.43924593968E+03  0.66261400751E+03  0.10605357850E+04  0.95715994242E+02 0.  0.
          1    1    3    3  502    0 -0.38359147261E+03 -0.43944077753E+03 -0.22412469141E+03  0.62488598329E+03  0.00000000000E+00 0. -1.
         -1    1    3    3    0  502 -0.32953357274E+03 -0.42398555216E+03 -0.11953477145E+03  0.55013151663E+03  0.00000000000E+00 0.  1.
         13    1    5    5    0    0 -0.18069870943E+02  0.22905360936E+03  0.79616261427E+02  0.24316830648E+03  0.00000000000E+00 0. -1.
        -13    1    5    5    0    0  0.35795548188E+02  0.19512678066E+03  0.14486581885E+03  0.24564585743E+03  0.00000000000E+00 0.  1.
          4    1    6    6  503    0  0.58522827525E+03  0.33177783069E+03  0.56271864217E+03  0.87705241196E+03  0.00000000000E+00 0. -1.
         -4    1    6    6    0  503  0.11017109285E+03  0.10746810898E+03  0.99895365345E+02  0.18348337299E+03  0.00000000000E+00 0.  1.
<mgrwt>
<rscale>  0 0.11875423E+04</rscale>
<asrwt>0</asrwt>
<pdfrwt beam="1">  1        1 0.25136955E+00 0.11875423E+04</pdfrwt>
<pdfrwt beam="2">  1       -1 0.16776391E+00 0.11875423E+04</pdfrwt>
<totfact> 0.13276578E+00</totfact>
</mgrwt>
</event>
<event>
12    1  0.1338445E-007  0.6988389E+03  0.7818608E-02  0.9719220E-01
         -1   -1    0    0    0  501 -0.00000000000E+00  0.00000000000E+00  0.44084448695E+03  0.44084448695E+03  0.00000000000E+00 0.  1.
          1   -1    0    0  501    0  0.00000000000E+00 -0.00000000000E+00 -0.19990041375E+04  0.19990041375E+04  0.00000000000E+00 0. -1.
         23    2    1    2    0    0  0.67999304900E+03 -0.11294705314E+01 -0.13423366737E+04  0.15075179744E+04  0.91383123100E+02 0.  0.
    5000000    2    1    2    0    0 -0.67999304900E+03  0.11294705314E+01 -0.21582297690E+03  0.93233065010E+03  0.60022417592E+03 0.  0.
         23    2    4    4    0    0 -0.19895415973E+03 -0.57115862134E+02 -0.35357340431E+03  0.42032922658E+03  0.93901688505E+02 0.  0.
         23    2    4    4    0    0 -0.48103888928E+03  0.58245332666E+02  0.13775042741E+03  0.51200142352E+03  0.91538765898E+02 0.  0.
          4    1    3    3  502    0  0.67112265384E+03 -0.38172613667E+01 -0.12876827496E+04  0.14520836930E+04  0.00000000000E+00 0. -1.
         -4    1    3    3    0  502  0.88703951604E+01  0.26877908353E+01 -0.54653924126E+02  0.55434281381E+02  0.00000000000E+00 0.  1.
         11    1    5    5    0    0 -0.10355693889E+03 -0.75647571368E+02 -0.22739343851E+03  0.26106392038E+03  0.00000000000E+00 0.  1.
        -11    1    5    5    0    0 -0.95397220842E+02  0.18531709233E+02 -0.12617996580E+03  0.15926530620E+03  0.00000000000E+00 0. -1.
          4    1    6    6  503    0 -0.22846823270E+03  0.70162884000E+02  0.85315428797E+02  0.25377014410E+03  0.00000000000E+00 0.  1.
         -4    1    6    6    0  503 -0.25257065657E+03 -0.11917551334E+02  0.52434998609E+02  0.25823127942E+03  0.00000000000E+00 0. -1.
<mgrwt>
<rscale>  0 0.69883886E+03</rscale>
<asrwt>0</asrwt>
<pdfrwt beam="1">  1        1 0.30753910E+00 0.69883886E+03</pdfrwt>
<pdfrwt beam="2">  1       -1 0.67822229E-01 0.69883886E+03</pdfrwt>
<totfact> 0.69472954E+00</totfact>
</mgrwt>
</event>
<event>
12    1  0.1338445E-007  0.7747651E+03  0.7818608E-02  0.9597279E-01
         -1   -1    0    0    0  501 -0.00000000000E+00  0.00000000000E+00  0.27655786310E+03  0.27655786310E+03  0.00000000000E+00 0.  1.
          1   -1    0    0  501    0  0.00000000000E+00 -0.00000000000E+00 -0.24872717220E+04  0.24872717220E+04  0.00000000000E+00 0. -1.
         23    2    1    2    0    0 -0.62023830911E+03  0.35594518921E+03 -0.10625766230E+04  0.12841044313E+04  0.91992243536E+02 0.  0.
    5000000    2    1    2    0    0  0.62023830911E+03 -0.35594518921E+03 -0.11481372360E+04  0.14797251539E+04  0.59997906683E+03 0.  0.
         23    2    4    4    0    0  0.65981422342E+02  0.66991028981E+02  0.46573187593E+01  0.12943376875E+03  0.88826031182E+02 0.  0.
         23    2    4    4    0    0  0.55425688676E+03 -0.42293621819E+03 -0.11527945547E+04  0.13502913851E+04  0.90971414205E+02 0.  0.
          2    1    3    3  502    0 -0.22428392888E+03  0.84691287211E+02 -0.31810467510E+03  0.39832961125E+03  0.00000000000E+00 0. -1.
         -2    1    3    3    0  502 -0.39595438023E+03  0.27125390200E+03 -0.74447194790E+03  0.88577482002E+03  0.00000000000E+00 0.  1.
         11    1    5    5    0    0  0.75358661144E+02  0.15851072576E+02  0.74435025509E+01  0.77366595126E+02  0.00000000000E+00 0. -1.
        -11    1    5    5    0    0 -0.93772388019E+01  0.51139956404E+02 -0.27861837915E+01  0.52067173619E+02  0.00000000000E+00 0.  1.
          4    1    6    6  503    0  0.30959352558E+03 -0.28026919436E+03 -0.63301064208E+03  0.75835443256E+03  0.00000000000E+00 0. -1.
         -4    1    6    6    0  503  0.24466336118E+03 -0.14266702383E+03 -0.51978391263E+03  0.59193695257E+03  0.00000000000E+00 0.  1.
<mgrwt>
<rscale>  0 0.77476513E+03</rscale>
<asrwt>0</asrwt>
<pdfrwt beam="1">  1        1 0.38265719E+00 0.77476513E+03</pdfrwt>
<pdfrwt beam="2">  1       -1 0.42547364E-01 0.77476513E+03</pdfrwt>
<totfact> 0.78977433E+00</totfact>
</mgrwt>
</event>
<event>
12    1  0.1338445E-007  0.1167992E+04  0.7818608E-02  0.9141344E-01
          1   -1    0    0  501    0  0.00000000000E+00  0.00000000000E+00  0.10579280440E+04  0.10579280440E+04  0.00000000000E+00 0. -1.
         -1   -1    0    0    0  501 -0.00000000000E+00 -0.00000000000E+00 -0.13373503001E+04  0.13373503001E+04  0.00000000000E+00 0.  1.
         23    2    1    2    0    0  0.11038779314E+04 -0.94248245110E+02 -0.35959480603E+02  0.11121103697E+04  0.89817431777E+02 0.  0.
    5000000    2    1    2    0    0 -0.11038779314E+04  0.94248245110E+02 -0.24346277549E+03  0.12831679744E+04  0.59984723747E+03 0.  0.
         23    2    4    4    0    0 -0.90854003218E+03 -0.14018344110E+03 -0.27283261698E+03  0.96366159269E+03  0.95444439790E+02 0.  0.
         23    2    4    4    0    0 -0.19533789918E+03  0.23443168621E+03  0.29369841488E+02  0.31950638167E+03  0.90036825703E+02 0.  0.
          1    1    3    3  502    0  0.58297919853E+03 -0.20187835126E+02 -0.52720423431E+02  0.58570618714E+03  0.00000000000E+00 0. -1.
         -1    1    3    3    0  502  0.52089873283E+03 -0.74060409984E+02  0.16760942828E+02  0.52640418254E+03  0.00000000000E+00 0.  1.
         11    1    5    5    0    0 -0.44610171370E+03 -0.50974976926E+02 -0.17940575730E+03  0.48352002336E+03  0.00000000000E+00 0.  1.
        -11    1    5    5    0    0 -0.46243831848E+03 -0.89208464175E+02 -0.93426859682E+02  0.48014156932E+03  0.00000000000E+00 0. -1.
          1    1    6    6  503    0 -0.68061216919E+02  0.60786418021E+02  0.48537497419E+02  0.10335959810E+03  0.00000000000E+00 0. -1.
         -1    1    6    6    0  503 -0.12727668226E+03  0.17364526819E+03 -0.19167655931E+02  0.21614678356E+03  0.00000000000E+00 0.  1.
<mgrwt>
<rscale>  0 0.11679921E+04</rscale>
<asrwt>0</asrwt>
<pdfrwt beam="1">  1        1 0.16275816E+00 0.11679921E+04</pdfrwt>
<pdfrwt beam="2">  1       -1 0.20574620E+00 0.11679921E+04</pdfrwt>
<totfact> 0.18460170E+00</totfact>
</mgrwt>
</event>
<event>
12    1  0.1338445E-007  0.7313581E+03  0.7818608E-02  0.9665059E-01
         -1   -1    0    0    0  501 -0.00000000000E+00  0.00000000000E+00  0.56320958274E+03  0.56320958274E+03  0.00000000000E+00 0.  1.
          1   -1    0    0  501    0  0.00000000000E+00 -0.00000000000E+00 -0.98308362084E+03  0.98308362084E+03  0.00000000000E+00 0. -1.
         23    2    1    2    0    0 -0.45868483795E+03  0.41453508243E+03 -0.21292021259E+03  0.66023144987E+03  0.91320508864E+02 0.  0.
    5000000    2    1    2    0    0  0.45868483795E+03 -0.41453508243E+03 -0.20695382550E+03  0.88606175371E+03  0.60003702417E+03 0.  0.
         23    2    4    4    0    0  0.31101974249E+03  0.64210173016E+02  0.17838057557E+02  0.33091129210E+03  0.91257111516E+02 0.  0.
         23    2    4    4    0    0  0.14766509546E+03 -0.47874525545E+03 -0.22479188306E+03  0.55515046161E+03  0.81600516610E+02 0.  0.
          1    1    3    3  502    0 -0.39126778335E+03  0.30404058143E+03 -0.16747990836E+03  0.52304939838E+03  0.00000000000E+00 0. -1.
         -1    1    3    3    0  502 -0.67417054603E+02  0.11049450100E+03 -0.45440304236E+02  0.13718205149E+03  0.00000000000E+00 0.  1.
         13    1    5    5    0    0  0.20885411561E+03 -0.13255379961E+01  0.16735809351E+02  0.20952776898E+03  0.00000000000E+00 0. -1.
        -13    1    5    5    0    0  0.10216562688E+03  0.65535711013E+02  0.11022482061E+01  0.12138352312E+03  0.00000000000E+00 0.  1.
          3    1    6    6  503    0  0.15265918590E+03 -0.47878812619E+03 -0.22162172476E+03  0.54923500044E+03  0.00000000000E+00 0. -1.
         -3    1    6    6    0  503 -0.49940904399E+01  0.42870748883E-01 -0.31701583037E+01  0.59154611734E+01  0.00000000000E+00 0.  1.
<mgrwt>
<rscale>  0 0.73135809E+03</rscale>
<asrwt>0</asrwt>
<pdfrwt beam="1">  1        1 0.15124363E+00 0.73135809E+03</pdfrwt>
<pdfrwt beam="2">  1       -1 0.86647629E-01 0.73135809E+03</pdfrwt>
<totfact> 0.21120353E+01</totfact>
</mgrwt>
</event>
<event>
12    1  0.1338445E-007  0.7542758E+03  0.7818608E-02  0.9628666E-01
          2   -1    0    0  501    0  0.00000000000E+00  0.00000000000E+00  0.18908264528E+04  0.18908264528E+04  0.00000000000E+00 0. -1.
         -2   -1    0    0    0  501 -0.00000000000E+00 -0.00000000000E+00 -0.34478487206E+03  0.34478487206E+03  0.00000000000E+00 0.  1.
         23    2    1    2    0    0 -0.63942537620E+03 -0.54734199281E+01  0.10368317517E+04  0.12216013772E+04  0.91624632129E+02 0.  0.
    5000000    2    1    2    0    0  0.63942537620E+03  0.54734199281E+01  0.50920982900E+03  0.10140099477E+04  0.60002229459E+03 0.  0.
         23    2    4    4    0    0  0.16288626253E+03  0.25877077906E+03  0.26432331759E+03  0.41412881904E+03  0.90230881206E+02 0.  0.
         23    2    4    4    0    0  0.47653911367E+03 -0.25329735913E+03  0.24488651141E+03  0.59988112864E+03  0.92945607944E+02 0.  0.
          4    1    3    3  502    0 -0.32641477476E+03 -0.47070565603E+02  0.50749227929E+03  0.60523603401E+03  0.00000000000E+00 0. -1.
         -4    1    3    3    0  502 -0.31301060145E+03  0.41597145675E+02  0.52933947246E+03  0.61636534316E+03  0.00000000000E+00 0.  1.
         13    1    5    5    0    0  0.57412088797E+01  0.67891800811E+02  0.83754838732E+02  0.10796819489E+03  0.00000000000E+00 0. -1.
        -13    1    5    5    0    0  0.15714505365E+03  0.19087897825E+03  0.18056847886E+03  0.30616062415E+03  0.00000000000E+00 0.  1.
          4    1    6    6  503    0  0.36216753788E+03 -0.23516748794E+03  0.19316199501E+03  0.47305457316E+03  0.00000000000E+00 0. -1.
         -4    1    6    6    0  503  0.11437157579E+03 -0.18129871191E+02  0.51724516400E+02  0.12682655548E+03  0.00000000000E+00 0.  1.
<mgrwt>
<rscale>  0 0.75427580E+03</rscale>
<asrwt>0</asrwt>
<pdfrwt beam="1">  1        2 0.29089637E+00 0.75427580E+03</pdfrwt>
<pdfrwt beam="2">  1       -2 0.53043828E-01 0.75427580E+03</pdfrwt>
<totfact> 0.26528778E+01</totfact>
</mgrwt>
</event>
<event>
12    1  0.1338445E-007  0.4905417E+03  0.7818608E-02  0.1016278E+00
          1   -1    0    0  501    0  0.00000000000E+00  0.00000000000E+00  0.12922067305E+04  0.12922067305E+04  0.00000000000E+00 0. -1.
         -1   -1    0    0    0  501 -0.00000000000E+00 -0.00000000000E+00 -0.20686730143E+03  0.20686730143E+03  0.00000000000E+00 0.  1.
         23    2    1    2    0    0  0.21780456201E+03 -0.25372746107E+03  0.38612583525E+03  0.51890228317E+03  0.91378154397E+02 0.  0.
    5000000    2    1    2    0    0 -0.21780456201E+03  0.25372746107E+03  0.69921359380E+03  0.98017174873E+03  0.60001712936E+03 0.  0.
         23    2    4    4    0    0  0.10190963753E+02 -0.14690460741E+03  0.36425312173E+03  0.40312450979E+03  0.90245300576E+02 0.  0.
         23    2    4    4    0    0 -0.22799552577E+03  0.40063206848E+03  0.33496047207E+03  0.57704723894E+03  0.91087782178E+02 0.  0.
          2    1    3    3  502    0  0.19223523524E+03 -0.17872333180E+03  0.25666720337E+03  0.36711642334E+03  0.00000000000E+00 0. -1.
         -2    1    3    3    0  502  0.25569326777E+02 -0.75004129269E+02  0.12945863187E+03  0.15178585983E+03  0.00000000000E+00 0.  1.
         13    1    5    5    0    0  0.50072237436E+02 -0.92136435427E+02  0.22784819317E+03  0.25082095372E+03  0.00000000000E+00 0.  1.
        -13    1    5    5    0    0 -0.39881273684E+02 -0.54768171986E+02  0.13640492857E+03  0.15230355607E+03  0.00000000000E+00 0. -1.
          3    1    6    6  503    0 -0.82144873358E+02  0.21838042922E+03  0.13418584027E+03  0.26915354691E+03  0.00000000000E+00 0. -1.
         -3    1    6    6    0  503 -0.14585065241E+03  0.18225163926E+03  0.20077463180E+03  0.30789369203E+03  0.00000000000E+00 0.  1.
<mgrwt>
<rscale>  0 0.49054171E+03</rscale>
<asrwt>0</asrwt>
<pdfrwt beam="1">  1        1 0.19880103E+00 0.49054171E+03</pdfrwt>
<pdfrwt beam="2">  1       -1 0.31825740E-01 0.49054171E+03</pdfrwt>
<totfact> 0.88616399E+01</totfact>
</mgrwt>
</event>
<event>
12    1  0.1338445E-007  0.9695022E+03  0.7818608E-02  0.9342642E-01
          1   -1    0    0  501    0  0.00000000000E+00  0.00000000000E+00  0.33089749218E+04  0.33089749218E+04  0.00000000000E+00 0. -1.
         -1   -1    0    0    0  501 -0.00000000000E+00 -0.00000000000E+00 -0.31650266664E+03  0.31650266664E+03  0.00000000000E+00 0.  1.
         23    2    1    2    0    0 -0.72114833170E+03 -0.58775036325E+03  0.14925137387E+04  0.17610809791E+04  0.91123810994E+02 0.  0.
    5000000    2    1    2    0    0  0.72114833170E+03  0.58775036325E+03  0.14999585165E+04  0.18643966093E+04  0.60049459609E+03 0.  0.
         23    2    4    4    0    0  0.64870417074E+03  0.35315809826E+03  0.13982975760E+04  0.15840220301E+04  0.91388934217E+02 0.  0.
         23    2    4    4    0    0  0.72444160957E+02  0.23459226499E+03  0.10166094044E+03  0.28037457920E+03  0.89405092690E+02 0.  0.
          3    1    3    3  502    0 -0.45036702935E+03 -0.31058092786E+03  0.89230552209E+03  0.10466614155E+04  0.00000000000E+00 0. -1.
         -3    1    3    3    0  502 -0.27078130235E+03 -0.27716943539E+03  0.60020821656E+03  0.71441956359E+03  0.00000000000E+00 0.  1.
         11    1    5    5    0    0  0.19039681744E+03  0.62070172959E+02  0.34045502924E+03  0.39498516604E+03  0.00000000000E+00 0.  1.
        -11    1    5    5    0    0  0.45830735331E+03  0.29108792530E+03  0.10578425468E+04  0.11890368641E+04  0.00000000000E+00 0. -1.
          2    1    6    6  503    0  0.89151065911E+02  0.14577404601E+03  0.68955017484E+02  0.18426280004E+03  0.00000000000E+00 0. -1.
         -2    1    6    6    0  503 -0.16706904954E+02  0.88818218979E+02  0.32705922951E+02  0.96111779152E+02  0.00000000000E+00 0.  1.
<mgrwt>
<rscale>  0 0.96950220E+03</rscale>
<asrwt>0</asrwt>
<pdfrwt beam="1">  1        1 0.50907304E+00 0.96950220E+03</pdfrwt>
<pdfrwt beam="2">  1       -1 0.48692720E-01 0.96950220E+03</pdfrwt>
<totfact> 0.15429506E+00</totfact>
</mgrwt>
</event>
<event>
12    1  0.1338445E-007  0.6292832E+03  0.7818608E-02  0.9846449E-01
         -1   -1    0    0    0  501 -0.00000000000E+00  0.00000000000E+00  0.20153573744E+03  0.20153573744E+03  0.00000000000E+00 0.  1.
          1   -1    0    0  501    0  0.00000000000E+00 -0.00000000000E+00 -0.24343952792E+04  0.24343952792E+04  0.00000000000E+00 0. -1.
         23    2    1    2    0    0  0.30126834354E+03 -0.38009086359E+03 -0.14692561306E+04  0.15504239020E+04  0.99342936883E+02 0.  0.
    5000000    2    1    2    0    0 -0.30126834354E+03  0.38009086359E+03 -0.76360341119E+03  0.10855071147E+04  0.60000320589E+03 0.  0.
         23    2    4    4    0    0 -0.16317778476E+03  0.52167658079E+03 -0.55067974694E+03  0.78116485628E+03  0.90536758307E+02 0.  0.
         23    2    4    4    0    0 -0.13809055878E+03 -0.14158571720E+03 -0.21292366426E+03  0.30434225843E+03  0.90400252901E+02 0.  0.
          1    1    3    3  502    0  0.13518974005E+03 -0.96005450276E+02 -0.47187618715E+03  0.50016042256E+03  0.00000000000E+00 0. -1.
         -1    1    3    3    0  502  0.16607860349E+03 -0.28408541331E+03 -0.99737994344E+03  0.10502634794E+04  0.00000000000E+00 0.  1.
         11    1    5    5    0    0 -0.13599709662E+03  0.50273487814E+03 -0.51387425906E+03  0.73164494265E+03  0.00000000000E+00 0. -1.
        -11    1    5    5    0    0 -0.27180688140E+02  0.18941702656E+02 -0.36805487880E+02  0.49519913624E+02  0.00000000000E+00 0.  1.
          2    1    6    6  503    0 -0.49681343182E+02 -0.10082025809E+03 -0.73510574700E+02  0.13430102343E+03  0.00000000000E+00 0. -1.
         -2    1    6    6    0  503 -0.88409215600E+02 -0.40765459109E+02 -0.13941308956E+03  0.17004123500E+03  0.00000000000E+00 0.  1.
<mgrwt>
<rscale>  0 0.62928319E+03</rscale>
<asrwt>0</asrwt>
<pdfrwt beam="1">  1        1 0.37452237E+00 0.62928319E+03</pdfrwt>
<pdfrwt beam="2">  1       -1 0.31005496E-01 0.62928319E+03</pdfrwt>
<totfact> 0.15501057E+01</totfact>
</mgrwt>
</event>
<event>
12    1  0.1338445E-007  0.1024273E+04  0.7818608E-02  0.9282316E-01
         -1   -1    0    0    0  501 -0.00000000000E+00  0.00000000000E+00  0.20284486607E+04  0.20284486607E+04  0.00000000000E+00 0.  1.
          1   -1    0    0  501    0  0.00000000000E+00 -0.00000000000E+00 -0.60654459883E+03  0.60654459883E+03  0.00000000000E+00 0. -1.
         23    2    1    2    0    0  0.81665305825E+03  0.60777891456E+03  0.80941327618E+03  0.13037735360E+04  0.91422945965E+02 0.  0.
    5000000    2    1    2    0    0 -0.81665305825E+03 -0.60777891456E+03  0.61249078566E+03  0.13312197235E+04  0.60056936580E+03 0.  0.
         23    2    4    4    0    0 -0.69366190175E+02 -0.38248151558E+02  0.31565616015E+03  0.34151822710E+03  0.10354370362E+03 0.  0.
         23    2    4    4    0    0 -0.74728686808E+03 -0.56953076300E+03  0.29683462550E+03  0.98970149639E+03  0.92710861558E+02 0.  0.
          3    1    3    3  502    0  0.22955514158E+03  0.22254444004E+03  0.24228385367E+03  0.40115216137E+03  0.00000000000E+00 0. -1.
         -3    1    3    3    0  502  0.58709791667E+03  0.38523447452E+03  0.56712942251E+03  0.90262137466E+03  0.00000000000E+00 0.  1.
         13    1    5    5    0    0 -0.23307894395E+02  0.26305181305E+01  0.25149038696E+03  0.25258185268E+03  0.00000000000E+00 0. -1.
        -13    1    5    5    0    0 -0.46058295780E+02 -0.40878669688E+02  0.64165773193E+02  0.88936374421E+02  0.00000000000E+00 0.  1.
          1    1    6    6  503    0 -0.75873185737E+02 -0.82784610331E+02  0.12334432298E+02  0.11296977579E+03  0.00000000000E+00 0. -1.
         -1    1    6    6    0  503 -0.67141368234E+03 -0.48674615267E+03  0.28450019320E+03  0.87673172060E+03  0.00000000000E+00 0.  1.
<mgrwt>
<rscale>  0 0.10242726E+04</rscale>
<asrwt>0</asrwt>
<pdfrwt beam="1">  1        1 0.93314555E-01 0.10242726E+04</pdfrwt>
<pdfrwt beam="2">  1       -1 0.31206902E+00 0.10242726E+04</pdfrwt>
<totfact> 0.94081101E-01</totfact>
</mgrwt>
</event>
<event>
12    1  0.1338445E-007  0.9282310E+03  0.7818608E-02  0.9390963E-01
         -1   -1    0    0    0  501 -0.00000000000E+00  0.00000000000E+00  0.79476016261E+03  0.79476016261E+03  0.00000000000E+00 0.  1.
          1   -1    0    0  501    0  0.00000000000E+00 -0.00000000000E+00 -0.12120612781E+04  0.12120612781E+04  0.00000000000E+00 0. -1.
         23    2    1    2    0    0  0.55193698275E+03 -0.64581072853E+03  0.68624127667E+02  0.85885571082E+03  0.10591473503E+03 0.  0.
    5000000    2    1    2    0    0 -0.55193698275E+03  0.64581072853E+03 -0.48592524314E+03  0.11479657299E+04  0.59999670419E+03 0.  0.
         23    2    4    4    0    0 -0.32696077501E+03  0.22279777148E+02 -0.29589938630E+03  0.45125737108E+03  0.93150583888E+02 0.  0.
         23    2    4    4    0    0 -0.22497620774E+03  0.62353095138E+03 -0.19002585685E+03  0.69670835879E+03  0.99436258816E+02 0.  0.
          4    1    3    3  502    0  0.77202140251E+02 -0.50119866986E+02 -0.12234002689E+02  0.92853876320E+02  0.00000000000E+00 0. -1.
         -4    1    3    3    0  502  0.47473484250E+03 -0.59569086154E+03  0.80858130356E+02  0.76600183450E+03  0.00000000000E+00 0.  1.
         11    1    5    5    0    0 -0.27698718882E+03  0.50261706024E+02 -0.26276540230E+03  0.38508933835E+03  0.00000000000E+00 0.  1.
        -11    1    5    5    0    0 -0.49973586192E+02 -0.27981928876E+02 -0.33133983998E+02  0.66168032735E+02  0.00000000000E+00 0. -1.
          1    1    6    6  503    0 -0.12007161223E+03  0.38604017314E+03 -0.68494470766E+02  0.41004353411E+03  0.00000000000E+00 0. -1.
         -1    1    6    6    0  503 -0.10490459551E+03  0.23749077824E+03 -0.12153138608E+03  0.28666482468E+03  0.00000000000E+00 0.  1.
<mgrwt>
<rscale>  0 0.92823102E+03</rscale>
<asrwt>0</asrwt>
<pdfrwt beam="1">  1        1 0.18647096E+00 0.92823102E+03</pdfrwt>
<pdfrwt beam="2">  1       -1 0.12227079E+00 0.92823102E+03</pdfrwt>
<totfact> 0.62637173E+00</totfact>
</mgrwt>
</event>
<event>
12    1  0.1338445E-007  0.9946906E+03  0.7818608E-02  0.9314387E-01
          2   -1    0    0  501    0  0.00000000000E+00  0.00000000000E+00  0.27997043963E+04  0.27997043963E+04  0.00000000000E+00 0. -1.
         -2   -1    0    0    0  501 -0.00000000000E+00 -0.00000000000E+00 -0.51917797084E+03  0.51917797084E+03  0.00000000000E+00 0.  1.
         23    2    1    2    0    0  0.58670551486E+03  0.74917729676E+03  0.23441867755E+03  0.98392470358E+03  0.87554113504E+02 0.  0.
    5000000    2    1    2    0    0 -0.58670551486E+03 -0.74917729676E+03  0.20461077479E+04  0.23349576636E+04  0.59998365927E+03 0.  0.
         23    2    4    4    0    0 -0.45558909159E+03 -0.26056768515E+03  0.14668032956E+04  0.15606129130E+04  0.92432771875E+02 0.  0.
         23    2    4    4    0    0 -0.13111642326E+03 -0.48860961161E+03  0.57930445234E+03  0.77434475058E+03  0.89918158567E+02 0.  0.
          1    1    3    3  502    0  0.33590685707E+03  0.42501174057E+03  0.88741633619E+02  0.54894760569E+03  0.00000000000E+00 0. -1.
         -1    1    3    3    0  502  0.25079865778E+03  0.32416555619E+03  0.14567704393E+03  0.43497709790E+03  0.00000000000E+00 0.  1.
         11    1    5    5    0    0 -0.36549936691E+03 -0.20603440941E+03  0.10503346641E+04  0.11310361938E+04  0.00000000000E+00 0.  1.
        -11    1    5    5    0    0 -0.90089724684E+02 -0.54533275741E+02  0.41646863151E+03  0.42957671921E+03  0.00000000000E+00 0. -1.
          2    1    6    6  503    0 -0.60455218125E+02 -0.36958489550E+03  0.40205165027E+03  0.54944823038E+03  0.00000000000E+00 0. -1.
         -2    1    6    6    0  503 -0.70661205138E+02 -0.11902471611E+03  0.17725280207E+03  0.22489652020E+03  0.00000000000E+00 0.  1.
<mgrwt>
<rscale>  0 0.99469064E+03</rscale>
<asrwt>0</asrwt>
<pdfrwt beam="1">  1        2 0.43072374E+00 0.99469064E+03</pdfrwt>
<pdfrwt beam="2">  1       -2 0.79873536E-01 0.99469064E+03</pdfrwt>
<totfact> 0.32646794E+00</totfact>
</mgrwt>
</event>
<event>
12    1  0.1338445E-007  0.7161651E+03  0.7818608E-02  0.9689980E-01
          1   -1    0    0  501    0  0.00000000000E+00  0.00000000000E+00  0.70411274611E+03  0.70411274611E+03  0.00000000000E+00 0.  1.
         -1   -1    0    0    0  501 -0.00000000000E+00 -0.00000000000E+00 -0.77198333791E+03  0.77198333791E+03  0.00000000000E+00 0. -1.
         23    2    1    2    0    0  0.56339107244E+03 -0.19229479446E+03 -0.16743968561E+03  0.62502004026E+03  0.90703990717E+02 0.  0.
    5000000    2    1    2    0    0 -0.56339107244E+03  0.19229479446E+03  0.99569093816E+02  0.85107604375E+03  0.60002469893E+03 0.  0.
         23    2    4    4    0    0  0.10500684447E+03  0.43107970014E+02 -0.29428741506E+02  0.14851849007E+03  0.91142507101E+02 0.  0.
         23    2    4    4    0    0 -0.66839791691E+03  0.14918682445E+03  0.12899783532E+03  0.70255755369E+03  0.89074074848E+02 0.  0.
          4    1    3    3  502    0  0.47015923719E+03 -0.14360915306E+03 -0.10495666372E+03  0.50268200527E+03  0.00000000000E+00 0. -1.
         -4    1    3    3    0  502  0.93231835247E+02 -0.48685641399E+02 -0.62483021892E+02  0.12233803500E+03  0.00000000000E+00 0.  1.
         13    1    5    5    0    0  0.89447113541E+02  0.70459084633E+02 -0.26552309219E+02  0.11692003187E+03  0.00000000000E+00 0.  1.
        -13    1    5    5    0    0  0.15559730928E+02 -0.27351114620E+02 -0.28764322873E+01  0.31598458193E+02  0.00000000000E+00 0. -1.
          3    1    6    6  503    0 -0.61867576723E+02 -0.11120677383E+02  0.49515885318E+01  0.63053824182E+02  0.00000000000E+00 0. -1.
         -3    1    6    6    0  503 -0.60653034019E+03  0.16030750183E+03  0.12404624679E+03  0.63950372951E+03  0.00000000000E+00 0.  1.
<mgrwt>
<rscale>  0 0.71616507E+03</rscale>
<asrwt>0</asrwt>
<pdfrwt beam="1">  1        1 0.10832504E+00 0.71616507E+03</pdfrwt>
<pdfrwt beam="2">  1       -1 0.11876667E+00 0.71616507E+03</pdfrwt>
<totfact> 0.17687856E+01</totfact>
</mgrwt>
</event>
<event>
12    1  0.1338445E-007  0.9425718E+03  0.7818608E-02  0.9373875E-01
          2   -1    0    0  501    0  0.00000000000E+00  0.00000000000E+00  0.88433873764E+03  0.88433873764E+03  0.00000000000E+00 0. -1.
         -2   -1    0    0    0  501 -0.00000000000E+00 -0.00000000000E+00 -0.10876215808E+04  0.10876215808E+04  0.00000000000E+00 0.  1.
         23    2    1    2    0    0 -0.80851505207E+03 -0.32946608874E+03  0.61526855413E+02  0.87994584740E+03  0.90965088777E+02 0.  0.
    5000000    2    1    2    0    0  0.80851505207E+03  0.32946608874E+03 -0.26480969856E+03  0.10920144710E+04  0.60010577020E+03 0.  0.
         23    2    4    4    0    0 -0.14850865667E+02 -0.62277118501E+02  0.50400440135E+02  0.12303262206E+03  0.92183697174E+02 0.  0.
         23    2    4    4    0    0  0.82336591773E+03  0.39174320724E+03 -0.31521013870E+03  0.96898184897E+03  0.90411377508E+02 0.  0.
          4    1    3    3  502    0 -0.17870173003E+03 -0.33161449169E+02  0.14177165728E+02  0.18230464079E+03  0.00000000000E+00 0. -1.
         -4    1    3    3    0  502 -0.62981332204E+03 -0.29630463957E+03  0.47349689684E+02  0.69764120661E+03  0.00000000000E+00 0.  1.
         13    1    5    5    0    0 -0.24243425836E+02 -0.74903612481E+02  0.96121913807E+01  0.79313864375E+02  0.00000000000E+00 0. -1.
        -13    1    5    5    0    0  0.93925601685E+01  0.12626493981E+02  0.40788248754E+02  0.43718757682E+02  0.00000000000E+00 0.  1.
          1    1    6    6  503    0  0.26563287788E+03  0.14961186920E+03 -0.14492921767E+03  0.33756335013E+03  0.00000000000E+00 0. -1.
         -1    1    6    6    0  503  0.55773303985E+03  0.24213133804E+03 -0.17028092103E+03  0.63141849883E+03  0.00000000000E+00 0.  1.
<mgrwt>
<rscale>  0 0.94257184E+03</rscale>
<asrwt>0</asrwt>
<pdfrwt beam="1">  1        2 0.13605211E+00 0.94257184E+03</pdfrwt>
<pdfrwt beam="2">  1       -2 0.16732640E+00 0.94257184E+03</pdfrwt>
<totfact> 0.66727817E+00</totfact>
</mgrwt>
</event>
<event>
12    1  0.1338445E-007  0.6554593E+03  0.7818608E-02  0.9796589E-01
         -2   -1    0    0    0  501 -0.00000000000E+00  0.00000000000E+00  0.14136548813E+04  0.14136548813E+04  0.00000000000E+00 0. -1.
          2   -1    0    0  501    0  0.00000000000E+00 -0.00000000000E+00 -0.62897133564E+03  0.62897133564E+03  0.00000000000E+00 0.  1.
         23    2    1    2    0    0  0.32790669387E+03 -0.51155810752E+03  0.98930153004E+03  0.11645483896E+04  0.90779607689E+02 0.  0.
    5000000    2    1    2    0    0 -0.32790669387E+03  0.51155810752E+03 -0.20461798434E+03  0.87807782735E+03  0.59994804285E+03 0.  0.
         23    2    4    4    0    0 -0.38745293842E+03  0.39830282993E+03  0.64057452702E+02  0.56645752441E+03  0.89475392680E+02 0.  0.
         23    2    4    4    0    0  0.59546244546E+02  0.11325527759E+03 -0.26867543704E+03  0.31162030294E+03  0.92456528138E+02 0.  0.
          4    1    3    3  502    0  0.80161529610E+02 -0.11908556999E+03  0.16622221725E+03  0.21962939083E+03  0.00000000000E+00 0. -1.
         -4    1    3    3    0  502  0.24774516426E+03 -0.39247253753E+03  0.82307931279E+03  0.94491899879E+03  0.00000000000E+00 0.  1.
         13    1    5    5    0    0 -0.22310246870E+03  0.20958627240E+03  0.77773643689E+02  0.31583200720E+03  0.00000000000E+00 0. -1.
        -13    1    5    5    0    0 -0.16435046972E+03  0.18871655753E+03 -0.13716190987E+02  0.25062551721E+03  0.00000000000E+00 0.  1.
          4    1    6    6  503    0  0.37201362928E+02  0.64368723683E+01 -0.26901613573E+02  0.46358079581E+02  0.00000000000E+00 0. -1.
         -4    1    6    6    0  503  0.22344881619E+02  0.10681840522E+03 -0.24177382347E+03  0.26526222336E+03  0.00000000000E+00 0.  1.
<mgrwt>
<rscale>  0 0.65545926E+03</rscale>
<asrwt>0</asrwt>
<pdfrwt beam="1">  1        2 0.96764821E-01 0.65545926E+03</pdfrwt>
<pdfrwt beam="2">  1       -2 0.21748537E+00 0.65545926E+03</pdfrwt>
<totfact> 0.49784396E+00</totfact>
</mgrwt>
</event>
<event>
12    1  0.1338445E-007  0.7265792E+03  0.7818608E-02  0.9672828E-01
          2   -1    0    0  501    0  0.00000000000E+00  0.00000000000E+00  0.84675312248E+03  0.84675312248E+03  0.00000000000E+00 0. -1.
         -2   -1    0    0    0  501 -0.00000000000E+00 -0.00000000000E+00 -0.65178390098E+03  0.65178390098E+03  0.00000000000E+00 0.  1.
         23    2    1    2    0    0  0.29613573221E+03  0.54301987548E+03  0.67324210939E+02  0.62734632083E+03  0.80398381931E+02 0.  0.
    5000000    2    1    2    0    0 -0.29613573221E+03 -0.54301987548E+03  0.12764501056E+03  0.87119070263E+03  0.60009418808E+03 0.  0.
         23    2    4    4    0    0  0.14413498362E+03 -0.36967762364E+02  0.78445170406E+02  0.19215726947E+03  0.92893823772E+02 0.  0.
         23    2    4    4    0    0 -0.44027071583E+03 -0.50605211312E+03  0.49199840151E+02  0.67903343316E+03  0.93481199530E+02 0.  0.
          4    1    3    3  502    0  0.20951482043E+03  0.37727262885E+03  0.97037788420E+01  0.43165409737E+03  0.00000000000E+00 0. -1.
         -4    1    3    3    0  502  0.86620911781E+02  0.16574724663E+03  0.57620432097E+02  0.19569222345E+03  0.00000000000E+00 0.  1.
         11    1    5    5    0    0  0.35573448970E+02 -0.40373312038E+02  0.62345608200E+02  0.82355627970E+02  0.00000000000E+00 0.  1.
        -11    1    5    5    0    0  0.10856153465E+03  0.34055496746E+01  0.16099562207E+02  0.10980164150E+03  0.00000000000E+00 0. -1.
          4    1    6    6  503    0 -0.18872749319E+03 -0.24994899169E+03 -0.18448766742E+02  0.31374021439E+03  0.00000000000E+00 0. -1.
         -4    1    6    6    0  503 -0.25154322263E+03 -0.25610312143E+03  0.67648606893E+02  0.36529321876E+03  0.00000000000E+00 0.  1.
<mgrwt>
<rscale>  0 0.72657924E+03</rscale>
<asrwt>0</asrwt>
<pdfrwt beam="1">  1        2 0.13026971E+00 0.72657924E+03</pdfrwt>
<pdfrwt beam="2">  1       -2 0.10027445E+00 0.72657924E+03</pdfrwt>
<totfact> 0.26626271E+01</totfact>
</mgrwt>
</event>
<event>
12    1  0.1338445E-007  0.1373625E+04  0.7818608E-02  0.8973134E-01
          1   -1    0    0  501    0  0.00000000000E+00  0.00000000000E+00  0.14593044814E+04  0.14593044814E+04  0.00000000000E+00 0. -1.
         -1   -1    0    0    0  501 -0.00000000000E+00 -0.00000000000E+00 -0.14501135625E+04  0.14501135625E+04  0.00000000000E+00 0.  1.
         23    2    1    2    0    0 -0.12834453907E+04 -0.43778423499E+03 -0.30655831986E+03  0.13933416972E+04  0.92390336485E+02 0.  0.
    5000000    2    1    2    0    0  0.12834453907E+04  0.43778423499E+03  0.31574923884E+03  0.15160763467E+04  0.59991899432E+03 0.  0.
         23    2    4    4    0    0  0.47775500839E+02  0.98322158138E+02  0.17382249503E+03  0.22366769304E+03  0.88674866051E+02 0.  0.
         23    2    4    4    0    0  0.12356698899E+04  0.33946207685E+03  0.14192674381E+03  0.12924086537E+04  0.89790584094E+02 0.  0.
          1    1    3    3  502    0 -0.79409552825E+03 -0.25669011095E+03 -0.14449254030E+03  0.84696848539E+03  0.00000000000E+00 0. -1.
         -1    1    3    3    0  502 -0.48934986250E+03 -0.18109412405E+03 -0.16206577956E+03  0.54637321182E+03  0.00000000000E+00 0.  1.
         13    1    5    5    0    0  0.14906160270E+02  0.26025018092E+02 -0.26896994818E+01  0.30111952178E+02  0.00000000000E+00 0. -1.
        -13    1    5    5    0    0  0.32869340568E+02  0.72297140046E+02  0.17651219451E+03  0.19355574086E+03  0.00000000000E+00 0.  1.
          4    1    6    6  503    0  0.33138575879E+03  0.96459152322E+02  0.78134747105E+02  0.35387275666E+03  0.00000000000E+00 0.  1.
         -4    1    6    6    0  503  0.90428413112E+03  0.24300292453E+03  0.63791996701E+02  0.93853589700E+03  0.00000000000E+00 0. -1.
<mgrwt>
<rscale>  0 0.13736252E+04</rscale>
<asrwt>0</asrwt>
<pdfrwt beam="1">  1        1 0.22450838E+00 0.13736252E+04</pdfrwt>
<pdfrwt beam="2">  1       -1 0.22309439E+00 0.13736252E+04</pdfrwt>
<totfact> 0.70321228E-01</totfact>
</mgrwt>
</event>
<event>
12    1  0.1338445E-007  0.6192965E+03  0.7818608E-02  0.9866161E-01
          2   -1    0    0  501    0  0.00000000000E+00  0.00000000000E+00  0.14663715385E+04  0.14663715385E+04  0.00000000000E+00 0. -1.
         -2   -1    0    0    0  501 -0.00000000000E+00 -0.00000000000E+00 -0.30983144136E+03  0.30983144136E+03  0.00000000000E+00 0.  1.
         23    2    1    2    0    0 -0.13744574958E+03  0.51785971966E+03  0.48266000821E+03  0.72682671653E+03  0.90809520519E+02 0.  0.
    5000000    2    1    2    0    0  0.13744574958E+03 -0.51785971966E+03  0.67388008890E+03  0.10493762633E+04  0.60000512033E+03 0.  0.
         23    2    4    4    0    0  0.23433515671E+03 -0.90140995256E+02  0.50520948680E+03  0.57080434880E+03  0.86848225985E+02 0.  0.
         23    2    4    4    0    0 -0.96889407129E+02 -0.42771872441E+03  0.16867060210E+03  0.47857191449E+03  0.90831937699E+02 0.  0.
          1    1    3    3  502    0 -0.72871246930E+02  0.41381464906E+03  0.38977460678E+03  0.57312915342E+03  0.00000000000E+00 0. -1.
         -1    1    3    3    0  502 -0.64574502654E+02  0.10404507060E+03  0.92885401427E+02  0.15369756311E+03  0.00000000000E+00 0.  1.
         11    1    5    5    0    0  0.13103586043E+03 -0.20039996542E+02  0.33035032090E+03  0.35595411600E+03  0.00000000000E+00 0. -1.
        -11    1    5    5    0    0  0.10329929629E+03 -0.70100998714E+02  0.17485916590E+03  0.21485023280E+03  0.00000000000E+00 0.  1.
          3    1    6    6  503    0 -0.93258696245E+02 -0.41060955879E+03  0.17979175702E+03  0.45784546529E+03  0.00000000000E+00 0. -1.
         -3    1    6    6    0  503 -0.36307108837E+01 -0.17109165616E+02 -0.11121154923E+02  0.20726449200E+02  0.00000000000E+00 0.  1.
<mgrwt>
<rscale>  0 0.61929646E+03</rscale>
<asrwt>0</asrwt>
<pdfrwt beam="1">  1        2 0.22559562E+00 0.61929646E+03</pdfrwt>
<pdfrwt beam="2">  1       -2 0.47666377E-01 0.61929646E+03</pdfrwt>
<totfact> 0.57287897E+01</totfact>
</mgrwt>
</event>
<event>
12    1  0.1338445E-007  0.5893867E+03  0.7818608E-02  0.9927673E-01
         -1   -1    0    0    0  501 -0.00000000000E+00  0.00000000000E+00  0.52678041228E+03  0.52678041228E+03  0.00000000000E+00 0.  1.
          1   -1    0    0  501    0  0.00000000000E+00 -0.00000000000E+00 -0.14496848785E+04  0.14496848785E+04  0.00000000000E+00 0. -1.
         23    2    1    2    0    0 -0.41269603010E+03  0.18457950391E+03 -0.11102436426E+04  0.12021737734E+04  0.90516456137E+02 0.  0.
    5000000    2    1    2    0    0  0.41269603010E+03 -0.18457950391E+03  0.18733917645E+03  0.77429151737E+03  0.60003648249E+03 0.  0.
         23    2    4    4    0    0  0.10429186353E+03  0.19022366112E+03  0.15063273228E+03  0.27937608558E+03  0.91098535189E+02 0.  0.
         23    2    4    4    0    0  0.30840416657E+03 -0.37480316504E+03  0.36706444175E+02  0.49491543179E+03  0.89461606868E+02 0.  0.
          1    1    3    3  502    0 -0.37164585954E+03  0.13864329265E+03 -0.91069050260E+03  0.99332763932E+03  0.00000000000E+00 0. -1.
         -1    1    3    3    0  502 -0.41050170558E+02  0.45936211262E+02 -0.19955314003E+03  0.20884613404E+03  0.00000000000E+00 0.  1.
         13    1    5    5    0    0  0.10928886083E+02  0.10827079691E+03  0.51249793085E+02  0.12028527468E+03  0.00000000000E+00 0.  1.
        -13    1    5    5    0    0  0.93362977448E+02  0.81952864212E+02  0.99382939191E+02  0.15909081090E+03  0.00000000000E+00 0. -1.
          1    1    6    6  503    0  0.10055096279E+03 -0.15655509888E+03  0.51826800072E+02  0.19314764381E+03  0.00000000000E+00 0. -1.
         -1    1    6    6    0  503  0.20785320377E+03 -0.21824806616E+03 -0.15120355898E+02  0.30176778798E+03  0.00000000000E+00 0.  1.
<mgrwt>
<rscale>  0 0.58938674E+03</rscale>
<asrwt>0</asrwt>
<pdfrwt beam="1">  1        1 0.22302844E+00 0.58938674E+03</pdfrwt>
<pdfrwt beam="2">  1       -1 0.81043143E-01 0.58938674E+03</pdfrwt>
<totfact> 0.11458505E+01</totfact>
</mgrwt>
</event>
<event>
12    1  0.1338445E-007  0.9719588E+03  0.7818608E-02  0.9339846E-01
          2   -1    0    0  501    0  0.00000000000E+00  0.00000000000E+00  0.17290711263E+04  0.17290711263E+04  0.00000000000E+00 0.  1.
         -2   -1    0    0    0  501 -0.00000000000E+00 -0.00000000000E+00 -0.66360662758E+03  0.66360662758E+03  0.00000000000E+00 0. -1.
         23    2    1    2    0    0 -0.92085266289E+03 -0.22341631849E+03  0.79206700864E+03  0.12382737868E+04  0.89818409502E+02 0.  0.
    5000000    2    1    2    0    0  0.92085266289E+03  0.22341631849E+03  0.27339749005E+03  0.11544039671E+04  0.60001487776E+03 0.  0.
         23    2    4    4    0    0  0.42945639258E+03  0.24219778199E+03 -0.12412048350E+03  0.51544900823E+03  0.84789309103E+02 0.  0.
         23    2    4    4    0    0  0.49139627031E+03 -0.18781463504E+02  0.39751797355E+03  0.63895495885E+03  0.91759807615E+02 0.  0.
          2    1    3    3  502    0 -0.43174797028E+03 -0.15092086741E+03  0.38154918211E+03  0.59562001010E+03  0.00000000000E+00 0. -1.
         -2    1    3    3    0  502 -0.48910469261E+03 -0.72495451079E+02  0.41051782653E+03  0.64265377666E+03  0.00000000000E+00 0.  1.
         11    1    5    5    0    0  0.29574102361E+03  0.12034023732E+03 -0.74727268341E+02  0.32791567574E+03  0.00000000000E+00 0.  1.
        -11    1    5    5    0    0  0.13371536896E+03  0.12185754467E+03 -0.49393215158E+02  0.18753333249E+03  0.00000000000E+00 0. -1.
          3    1    6    6  503    0  0.18583755130E+03 -0.12986713651E+02  0.20855093006E+03  0.27963858931E+03  0.00000000000E+00 0. -1.
         -3    1    6    6    0  503  0.30555871902E+03 -0.57947498524E+01  0.18896704350E+03  0.35931636954E+03  0.00000000000E+00 0.  1.
<mgrwt>
<rscale>  0 0.97195881E+03</rscale>
<asrwt>0</asrwt>
<pdfrwt beam="1">  1        2 0.26601094E+00 0.97195881E+03</pdfrwt>
<pdfrwt beam="2">  1       -2 0.10209333E+00 0.97195881E+03</pdfrwt>
<totfact> 0.74311566E+00</totfact>
</mgrwt>
</event>
<event>
12    1  0.1338445E-007  0.1043380E+04  0.7818608E-02  0.9262206E-01
         -2   -1    0    0    0  501 -0.00000000000E+00  0.00000000000E+00  0.21226932251E+04  0.21226932251E+04  0.00000000000E+00 0.  1.
          2   -1    0    0  501    0  0.00000000000E+00 -0.00000000000E+00 -0.81608804438E+03  0.81608804438E+03  0.00000000000E+00 0. -1.
         23    2    1    2    0    0  0.81050415963E+03  0.57499102902E+03  0.14596848182E+04  0.17679133970E+04  0.85477100955E+02 0.  0.
    5000000    2    1    2    0    0 -0.81050415963E+03 -0.57499102902E+03 -0.15307963743E+03  0.11708678725E+04  0.59997210200E+03 0.  0.
         23    2    4    4    0    0 -0.80273147329E+03 -0.60242989892E+03 -0.24933023047E+03  0.10380699936E+04  0.90134046910E+02 0.  0.
         23    2    4    4    0    0 -0.77726863387E+01  0.27438869908E+02  0.96250593039E+02  0.13279787890E+03  0.86935572378E+02 0.  0.
          4    1    3    3  502    0  0.50819943525E+03  0.40190382706E+03  0.90828620865E+03  0.11156958318E+04  0.00000000000E+00 0. -1.
         -4    1    3    3    0  502  0.30230472437E+03  0.17308720195E+03  0.55139860953E+03  0.65221756527E+03  0.00000000000E+00 0.  1.
         11    1    5    5    0    0 -0.44784762310E+03 -0.38998809897E+03 -0.13626322566E+03  0.60928308488E+03  0.00000000000E+00 0. -1.
        -11    1    5    5    0    0 -0.35488385018E+03 -0.21244179995E+03 -0.11306700481E+03  0.42878690869E+03  0.00000000000E+00 0.  1.
          3    1    6    6  503    0 -0.30756424097E+02 -0.15417268441E+02  0.13788561558E+02  0.37064460326E+02  0.00000000000E+00 0. -1.
         -3    1    6    6    0  503  0.22983737759E+02  0.42856138349E+02  0.82462031480E+02  0.95733418572E+02  0.00000000000E+00 0.  1.
<mgrwt>
<rscale>  0 0.10433799E+04</rscale>
<asrwt>0</asrwt>
<pdfrwt beam="1">  1        2 0.12555201E+00 0.10433799E+04</pdfrwt>
<pdfrwt beam="2">  1       -2 0.32656819E+00 0.10433799E+04</pdfrwt>
<totfact> 0.73304365E-01</totfact>
</mgrwt>
</event>
<event>
12    1  0.1338445E-007  0.1656533E+04  0.7818608E-02  0.8786551E-01
         -2   -1    0    0    0  501 -0.00000000000E+00  0.00000000000E+00  0.12032223288E+04  0.12032223288E+04  0.00000000000E+00 0.  1.
          2   -1    0    0  501    0  0.00000000000E+00 -0.00000000000E+00 -0.25160995607E+04  0.25160995607E+04  0.00000000000E+00 0. -1.
         23    2    1    2    0    0 -0.48205074512E+03  0.15797307839E+04 -0.10057580216E+04  0.19359107091E+04  0.90987939351E+02 0.  0.
    5000000    2    1    2    0    0  0.48205074512E+03 -0.15797307839E+04 -0.30711921037E+03  0.17834111804E+04  0.59859081074E+03 0.  0.
         23    2    4    4    0    0  0.12341429078E+03 -0.58512985633E+03 -0.38895950152E+03  0.71905822395E+03  0.90261839478E+02 0.  0.
         23    2    4    4    0    0  0.35863645433E+03 -0.99460092757E+03  0.81840291150E+02  0.10643529565E+04  0.91094847558E+02 0.  0.
          3    1    3    3  502    0 -0.10979659205E+03  0.36543863088E+03 -0.18830568328E+03  0.42551112197E+03  0.00000000000E+00 0. -1.
         -3    1    3    3    0  502 -0.37225415307E+03  0.12142921530E+04 -0.81745233830E+03  0.15103995871E+04  0.00000000000E+00 0.  1.
         11    1    5    5    0    0  0.10254565992E+03 -0.28280076694E+03 -0.21347752376E+03  0.36886927129E+03  0.00000000000E+00 0. -1.
        -11    1    5    5    0    0  0.20868630861E+02 -0.30232908939E+03 -0.17548197776E+03  0.35018895266E+03  0.00000000000E+00 0.  1.
          3    1    6    6  503    0  0.21756373456E+03 -0.63704856949E+03  0.94455641759E+02  0.67976961299E+03  0.00000000000E+00 0. -1.
         -3    1    6    6    0  503  0.14107271978E+03 -0.35755235807E+03 -0.12615350609E+02  0.38458334350E+03  0.00000000000E+00 0.  1.
<mgrwt>
<rscale>  0 0.16565328E+04</rscale>
<asrwt>0</asrwt>
<pdfrwt beam="1">  1        2 0.38709224E+00 0.16565328E+04</pdfrwt>
<pdfrwt beam="2">  1       -2 0.18511113E+00 0.16565328E+04</pdfrwt>
<totfact> 0.52760147E-01</totfact>
</mgrwt>
</event>
<event>
12    1  0.1338445E-007  0.6458689E+03  0.7818608E-02  0.9814562E-01
         -1   -1    0    0    0  501 -0.00000000000E+00  0.00000000000E+00  0.75810398902E+03  0.75810398902E+03  0.00000000000E+00 0.  1.
          1   -1    0    0  501    0  0.00000000000E+00 -0.00000000000E+00 -0.74843215045E+03  0.74843215045E+03  0.00000000000E+00 0. -1.
         23    2    1    2    0    0  0.53643121559E+03 -0.57853125773E+02 -0.32122105543E+03  0.63455857075E+03  0.91521473119E+02 0.  0.
    5000000    2    1    2    0    0 -0.53643121559E+03  0.57853125773E+02  0.33089289400E+03  0.87197756873E+03  0.59979108016E+03 0.  0.
         23    2    4    4    0    0 -0.45363409286E+03 -0.17210430726E+03  0.61002366260E+02  0.49734368486E+03  0.90695476225E+02 0.  0.
         23    2    4    4    0    0 -0.82797122737E+02  0.22995743303E+03  0.26989052774E+03  0.37463388386E+03  0.88169526678E+02 0.  0.
          3    1    3    3  502    0  0.38034432537E+03 -0.76529861221E+02 -0.25314835678E+03  0.46325232438E+03  0.00000000000E+00 0. -1.
         -3    1    3    3    0  502  0.15608689022E+03  0.18676735448E+02 -0.68072698646E+02  0.17130624638E+03  0.00000000000E+00 0.  1.
         11    1    5    5    0    0 -0.23552530845E+03 -0.43661875032E+02  0.14396429074E+02  0.23997038863E+03  0.00000000000E+00 0. -1.
        -11    1    5    5    0    0 -0.21810878441E+03 -0.12844243223E+03  0.46605937187E+02  0.25737329623E+03  0.00000000000E+00 0.  1.
          1    1    6    6  503    0 -0.90111224605E+02  0.22953255999E+03  0.24088896694E+03  0.34472122547E+03  0.00000000000E+00 0. -1.
         -1    1    6    6    0  503  0.73141018684E+01  0.42487303778E+00  0.29001560799E+02  0.29912658391E+02  0.00000000000E+00 0.  1.
<mgrwt>
<rscale>  0 0.64586886E+03</rscale>
<asrwt>0</asrwt>
<pdfrwt beam="1">  1        1 0.11514341E+00 0.64586886E+03</pdfrwt>
<pdfrwt beam="2">  1       -1 0.11663138E+00 0.64586886E+03</pdfrwt>
<totfact> 0.16986764E+01</totfact>
</mgrwt>
</event>
<event>
12    1  0.1338445E-007  0.3221794E+03  0.7818608E-02  0.1074651E+00
         -2   -1    0    0    0  501 -0.00000000000E+00  0.00000000000E+00  0.79079144720E+02  0.79079144720E+02  0.00000000000E+00 0.  1.
          2   -1    0    0  501    0  0.00000000000E+00 -0.00000000000E+00 -0.24316220217E+04  0.24316220217E+04  0.00000000000E+00 0. -1.
         23    2    1    2    0    0 -0.23529858021E+02 -0.16290080839E+03 -0.10524283673E+04  0.10693959319E+04  0.94402666425E+02 0.  0.
    5000000    2    1    2    0    0  0.23529858021E+02  0.16290080839E+03 -0.13001145098E+04  0.14413052345E+04  0.59997726040E+03 0.  0.
         23    2    4    4    0    0  0.16266711904E+03  0.23932977377E+03 -0.11885901169E+04  0.12266751049E+04  0.90807570238E+02 0.  0.
         23    2    4    4    0    0 -0.13913726102E+03 -0.76428965372E+02 -0.11152439287E+03  0.21463012962E+03  0.91803258024E+02 0.  0.
          3    1    3    3  502    0 -0.34109165080E+01 -0.14150914285E+03 -0.99373751262E+03  0.10037682580E+04  0.00000000000E+00 0. -1.
         -3    1    3    3    0  502 -0.20118941513E+02 -0.21391665541E+02 -0.58690854646E+02  0.65627673899E+02  0.00000000000E+00 0.  1.
         13    1    5    5    0    0  0.13530348265E+03  0.21728219263E+03 -0.89164740197E+03  0.92766032204E+03  0.00000000000E+00 0.  1.
        -13    1    5    5    0    0  0.27363636385E+02  0.22047581138E+02 -0.29694271491E+03  0.29901478286E+03  0.00000000000E+00 0. -1.
          1    1    6    6  503    0 -0.12130903810E+03 -0.19733966459E+02 -0.64220651532E+02  0.13867084856E+03  0.00000000000E+00 0. -1.
         -1    1    6    6    0  503 -0.17828222915E+02 -0.56694998914E+02 -0.47303741342E+02  0.75959281060E+02  0.00000000000E+00 0.  1.
<mgrwt>
<rscale>  0 0.32217940E+03</rscale>
<asrwt>0</asrwt>
<pdfrwt beam="1">  1        2 0.37409571E+00 0.32217940E+03</pdfrwt>
<pdfrwt beam="2">  1       -2 0.12166022E-01 0.32217940E+03</pdfrwt>
<totfact> 0.20927155E+02</totfact>
</mgrwt>
</event>
<event>
12    1  0.1338445E-007  0.1245113E+04  0.7818608E-02  0.9074261E-01
          2   -1    0    0  501    0  0.00000000000E+00  0.00000000000E+00  0.73480492030E+03  0.73480492030E+03  0.00000000000E+00 0. -1.
         -2   -1    0    0    0  501 -0.00000000000E+00 -0.00000000000E+00 -0.23083293782E+04  0.23083293782E+04  0.00000000000E+00 0.  1.
         23    2    1    2    0    0 -0.83735866582E+03  0.86271725312E+03 -0.10576661169E+04  0.16038628860E+04  0.90928258068E+02 0.  0.
    5000000    2    1    2    0    0  0.83735866582E+03 -0.86271725312E+03 -0.51585834098E+03  0.14392714125E+04  0.59995147874E+03 0.  0.
         23    2    4    4    0    0  0.17113518932E+03 -0.47542764820E+03 -0.40795178109E+03  0.65575729749E+03  0.90963046419E+02 0.  0.
         23    2    4    4    0    0  0.66622347650E+03 -0.38728960492E+03 -0.10790655988E+03  0.78351411502E+03  0.91671064358E+02 0.  0.
          2    1    3    3  502    0 -0.54416919900E+03  0.49973090877E+03 -0.66507520790E+03  0.99407048567E+03  0.00000000000E+00 0. -1.
         -2    1    3    3    0  502 -0.29318946682E+03  0.36298634435E+03 -0.39259090903E+03  0.60979240032E+03  0.00000000000E+00 0.  1.
         13    1    5    5    0    0 -0.62274359951E+01 -0.69846359845E+02 -0.45034610255E+02  0.83339132846E+02  0.00000000000E+00 0.  1.
        -13    1    5    5    0    0  0.17736262531E+03 -0.40558128836E+03 -0.36291717084E+03  0.57241816464E+03  0.00000000000E+00 0. -1.
          2    1    6    6  503    0  0.14650022908E+03 -0.63417961095E+02 -0.55040790664E+02  0.16885983402E+03  0.00000000000E+00 0. -1.
         -2    1    6    6    0  503  0.51972324743E+03 -0.32387164383E+03 -0.52865769219E+02  0.61465428099E+03  0.00000000000E+00 0.  1.
<mgrwt>
<rscale>  0 0.12451127E+04</rscale>
<asrwt>0</asrwt>
<pdfrwt beam="1">  1        2 0.11304691E+00 0.12451127E+04</pdfrwt>
<pdfrwt beam="2">  1       -2 0.35512760E+00 0.12451127E+04</pdfrwt>
<totfact> 0.54565431E-01</totfact>
</mgrwt>
</event>
<event>
12    1  0.1338445E-007  0.1502598E+04  0.7818608E-02  0.8882727E-01
         -1   -1    0    0    0  501 -0.00000000000E+00  0.00000000000E+00  0.24143248860E+04  0.24143248860E+04  0.00000000000E+00 0.  1.
          1   -1    0    0  501    0  0.00000000000E+00 -0.00000000000E+00 -0.11765355598E+04  0.11765355598E+04  0.00000000000E+00 0. -1.
         23    2    1    2    0    0  0.92120345144E+03 -0.11792071350E+04  0.12900256710E+04  0.19777814196E+04  0.91147385663E+02 0.  0.
    5000000    2    1    2    0    0 -0.92120345144E+03  0.11792071350E+04 -0.52236344706E+02  0.16130790262E+04  0.60012502283E+03 0.  0.
         23    2    4    4    0    0 -0.12557940536E+03  0.25463140738E+03  0.20587173064E+03  0.36291300222E+03  0.93355969412E+02 0.  0.
         23    2    4    4    0    0 -0.79562404608E+03  0.92457572757E+03 -0.25810807535E+03  0.12501660240E+04  0.91855376995E+02 0.  0.
          1    1    3    3  502    0  0.57541768324E+03 -0.68275044170E+03  0.80839709575E+03  0.12044747985E+04  0.00000000000E+00 0. -1.
         -1    1    3    3    0  502  0.34578576820E+03 -0.49645669326E+03  0.48162857522E+03  0.77330662110E+03  0.00000000000E+00 0.  1.
         11    1    5    5    0    0 -0.12132718886E+03  0.25299867510E+03  0.21448146252E+03  0.35317264068E+03  0.00000000000E+00 0.  1.
        -11    1    5    5    0    0 -0.42522165051E+01  0.16327322875E+01 -0.86097318807E+01  0.97403615429E+01  0.00000000000E+00 0. -1.
          2    1    6    6  503    0 -0.10728916064E+01 -0.15588826226E+01 -0.29636371200E+01  0.35162986803E+01  0.00000000000E+00 0. -1.
         -2    1    6    6    0  503 -0.79455115447E+03  0.92613461020E+03 -0.25514443823E+03  0.12466497253E+04  0.00000000000E+00 0.  1.
<mgrwt>
<rscale>  0 0.15025975E+04</rscale>
<asrwt>0</asrwt>
<pdfrwt beam="1">  1        1 0.18100547E+00 0.15025975E+04</pdfrwt>
<pdfrwt beam="2">  1       -1 0.37143460E+00 0.15025975E+04</pdfrwt>
<totfact> 0.11801523E-01</totfact>
</mgrwt>
</event>
<event>
12    1  0.1338445E-007  0.9703965E+03  0.7818608E-02  0.9341623E-01
         -1   -1    0    0    0  501 -0.00000000000E+00  0.00000000000E+00  0.77030924149E+03  0.77030924149E+03  0.00000000000E+00 0.  1.
          1   -1    0    0  501    0  0.00000000000E+00 -0.00000000000E+00 -0.13644706234E+04  0.13644706234E+04  0.00000000000E+00 0. -1.
         23    2    1    2    0    0 -0.84720470367E+03 -0.29292596153E+03 -0.54941685670E+03  0.10550850585E+04  0.88227940282E+02 0.  0.
    5000000    2    1    2    0    0  0.84720470367E+03  0.29292596153E+03 -0.44744525185E+02  0.10796948063E+04  0.60014779300E+03 0.  0.
         23    2    4    4    0    0  0.50045216144E+03 -0.10079387704E+03  0.98103896840E+02  0.52829683570E+03  0.94135012083E+02 0.  0.
         23    2    4    4    0    0  0.34675254223E+03  0.39371983858E+03 -0.14284842203E+03  0.55139797064E+03  0.91550060171E+02 0.  0.
          1    1    3    3  502    0 -0.39429323434E+03 -0.13741622475E+03 -0.30763803680E+03  0.51864393871E+03  0.00000000000E+00 0. -1.
         -1    1    3    3    0  502 -0.45291146933E+03 -0.15550973678E+03 -0.24177881990E+03  0.53644111982E+03  0.00000000000E+00 0.  1.
         13    1    5    5    0    0  0.39640239539E+03 -0.55173568502E+02  0.10717055684E+03  0.41432416051E+03  0.00000000000E+00 0. -1.
        -13    1    5    5    0    0  0.10404976605E+03 -0.45620308542E+02 -0.90666599980E+01  0.11397267519E+03  0.00000000000E+00 0.  1.
          2    1    6    6  503    0  0.18533307145E+03  0.26846575110E+03 -0.11114080246E+03  0.34463674334E+03  0.00000000000E+00 0. -1.
         -2    1    6    6    0  503  0.16141947078E+03  0.12525408748E+03 -0.31707619562E+02  0.20676122730E+03  0.00000000000E+00 0.  1.
<mgrwt>
<rscale>  0 0.97039653E+03</rscale>
<asrwt>0</asrwt>
<pdfrwt beam="1">  1        1 0.20991856E+00 0.97039653E+03</pdfrwt>
<pdfrwt beam="2">  1       -1 0.11850912E+00 0.97039653E+03</pdfrwt>
<totfact> 0.52368819E+00</totfact>
</mgrwt>
</event>
<event>
12    1  0.1338445E-007  0.1296376E+04  0.7818608E-02  0.9032444E-01
          1   -1    0    0  501    0  0.00000000000E+00  0.00000000000E+00  0.27996733368E+04  0.27996733368E+04  0.00000000000E+00 0.  1.
         -1   -1    0    0    0  501 -0.00000000000E+00 -0.00000000000E+00 -0.65331258323E+03  0.65331258323E+03  0.00000000000E+00 0. -1.
         23    2    1    2    0    0 -0.12294525420E+04 -0.34150948677E+03  0.83915604087E+03  0.15298407902E+04  0.89708972624E+02 0.  0.
    5000000    2    1    2    0    0  0.12294525420E+04  0.34150948677E+03  0.13072047127E+04  0.19231451299E+04  0.60126595380E+03 0.  0.
         23    2    4    4    0    0  0.99429222584E+03  0.16770144177E+03  0.66471194668E+03  0.12111700587E+04  0.91379074058E+02 0.  0.
         23    2    4    4    0    0  0.23516031613E+03  0.17380804500E+03  0.64249276605E+03  0.71197507118E+03  0.92746626684E+02 0.  0.
          2    1    3    3  502    0 -0.46635190599E+03 -0.11240621869E+03  0.36387633272E+03  0.60210069236E+03  0.00000000000E+00 0. -1.
         -2    1    3    3    0  502 -0.76310063598E+03 -0.22910326808E+03  0.47527970814E+03  0.92774009779E+03  0.00000000000E+00 0.  1.
         13    1    5    5    0    0  0.45048972530E+03  0.48226571644E+02  0.34180587923E+03  0.56753683043E+03  0.00000000000E+00 0. -1.
        -13    1    5    5    0    0  0.54380250054E+03  0.11947487013E+03  0.32290606745E+03  0.64363322831E+03  0.00000000000E+00 0.  1.
          4    1    6    6  503    0  0.35708607850E+02  0.76735981923E+02  0.16322986554E+03  0.18386817180E+03  0.00000000000E+00 0. -1.
         -4    1    6    6    0  503  0.19945170828E+03  0.97072063081E+02  0.47926290051E+03  0.52810689938E+03  0.00000000000E+00 0.  1.
<mgrwt>
<rscale>  0 0.12963755E+04</rscale>
<asrwt>0</asrwt>
<pdfrwt beam="1">  1        1 0.43071897E+00 0.12963755E+04</pdfrwt>
<pdfrwt beam="2">  1       -1 0.10050963E+00 0.12963755E+04</pdfrwt>
<totfact> 0.77053374E-01</totfact>
</mgrwt>
</event>
<event>
12    1  0.1338445E-007  0.2248947E+04  0.7818608E-02  0.8498327E-01
          2   -1    0    0  501    0  0.00000000000E+00  0.00000000000E+00  0.38733635469E+04  0.38733635469E+04  0.00000000000E+00 0.  1.
         -2   -1    0    0    0  501 -0.00000000000E+00 -0.00000000000E+00 -0.16856964350E+04  0.16856964350E+04  0.00000000000E+00 0. -1.
         23    2    1    2    0    0 -0.21991111639E+04 -0.36385566196E+03 -0.19775801575E+03  0.22396187540E+04  0.91121217934E+02 0.  0.
    5000000    2    1    2    0    0  0.21991111639E+04  0.36385566196E+03  0.23854251277E+04  0.33194412279E+04  0.59996347508E+03 0.  0.
         23    2    4    4    0    0  0.38424205875E+02  0.15261249206E+02  0.29055465611E+02  0.10220533747E+03  0.88839099500E+02 0.  0.
         23    2    4    4    0    0  0.21606869581E+04  0.34859441276E+03  0.23563696621E+04  0.32172358904E+04  0.89680515470E+02 0.  0.
          4    1    3    3  502    0 -0.32573137776E+03 -0.86730412751E+02 -0.26141337525E+02  0.33809239045E+03  0.00000000000E+00 0. -1.
         -4    1    3    3    0  502 -0.18733797862E+04 -0.27712524921E+03 -0.17161667822E+03  0.19015263635E+04  0.00000000000E+00 0.  1.
         11    1    5    5    0    0 -0.37430358465E+01 -0.21303649061E+02  0.39865405634E+02  0.45355334273E+02  0.00000000000E+00 0. -1.
        -11    1    5    5    0    0  0.42167241722E+02  0.36564898267E+02 -0.10809940023E+02  0.56850003193E+02  0.00000000000E+00 0.  1.
          4    1    6    6  503    0  0.14445691516E+04  0.26419781996E+03  0.15377135510E+04  0.21262980710E+04  0.00000000000E+00 0. -1.
         -4    1    6    6    0  503  0.71611780643E+03  0.84396592795E+02  0.81865611113E+03  0.10909378194E+04  0.00000000000E+00 0.  1.
<mgrwt>
<rscale>  0 0.22489465E+04</rscale>
<asrwt>0</asrwt>
<pdfrwt beam="1">  1        2 0.59590208E+00 0.22489465E+04</pdfrwt>
<pdfrwt beam="2">  1       -2 0.25933791E+00 0.22489465E+04</pdfrwt>
<totfact> 0.21004381E-02</totfact>
</mgrwt>
</event>
<event>
12    1  0.1338445E-007  0.9728667E+03  0.7818608E-02  0.9338815E-01
          1   -1    0    0  501    0  0.00000000000E+00  0.00000000000E+00  0.18941285140E+04  0.18941285140E+04  0.00000000000E+00 0. -1.
         -1   -1    0    0    0  501 -0.00000000000E+00 -0.00000000000E+00 -0.51570748418E+03  0.51570748418E+03  0.00000000000E+00 0.  1.
         23    2    1    2    0    0 -0.67704753131E+03 -0.58514828323E+03  0.62294338308E+03  0.10939564115E+04  0.88827353468E+02 0.  0.
    5000000    2    1    2    0    0  0.67704753131E+03  0.58514828323E+03  0.75547764675E+03  0.13158795867E+04  0.60000061578E+03 0.  0.
         23    2    4    4    0    0  0.67617505110E+02  0.38799429737E+03  0.15586969255E+03  0.43330697720E+03  0.91366698810E+02 0.  0.
         23    2    4    4    0    0  0.60943002619E+03  0.19715398586E+03  0.59960795421E+03  0.88257260950E+03  0.95551354346E+02 0.  0.
          2    1    3    3  502    0 -0.39836288787E+03 -0.36555674290E+03  0.32647355807E+03  0.63159299144E+03  0.00000000000E+00 0. -1.
         -2    1    3    3    0  502 -0.27868464343E+03 -0.21959154032E+03  0.29646982501E+03  0.46236342006E+03  0.00000000000E+00 0.  1.
         11    1    5    5    0    0  0.79541084977E+02  0.21186767187E+03  0.10578160795E+03  0.24980881322E+03  0.00000000000E+00 0.  1.
        -11    1    5    5    0    0 -0.11923579866E+02  0.17612662550E+03  0.50088084598E+02  0.18349816398E+03  0.00000000000E+00 0. -1.
          2    1    6    6  503    0  0.38614659986E+03  0.76591136749E+02  0.37504451383E+03  0.54372215898E+03  0.00000000000E+00 0. -1.
         -2    1    6    6    0  503  0.22328342634E+03  0.12056284911E+03  0.22456344038E+03  0.33885045052E+03  0.00000000000E+00 0.  1.
<mgrwt>
<rscale>  0 0.97286668E+03</rscale>
<asrwt>0</asrwt>
<pdfrwt beam="1">  1        1 0.29140438E+00 0.97286668E+03</pdfrwt>
<pdfrwt beam="2">  1       -1 0.79339614E-01 0.97286668E+03</pdfrwt>
<totfact> 0.56581376E+00</totfact>
</mgrwt>
</event>
<event>
12    1  0.1338445E-007  0.5896534E+03  0.7818608E-02  0.9927108E-01
         -1   -1    0    0    0  501 -0.00000000000E+00  0.00000000000E+00  0.57309919073E+03  0.57309919073E+03  0.00000000000E+00 0.  1.
          1   -1    0    0  501    0  0.00000000000E+00 -0.00000000000E+00 -0.87883141235E+03  0.87883141235E+03  0.00000000000E+00 0. -1.
         23    2    1    2    0    0 -0.35894640817E+03  0.33892148390E+03 -0.43568010225E+03  0.66423590302E+03  0.87646375739E+02 0.  0.
    5000000    2    1    2    0    0  0.35894640817E+03 -0.33892148390E+03  0.12994788063E+03  0.78769470006E+03  0.59988848350E+03 0.  0.
         23    2    4    4    0    0  0.37458783266E+03 -0.54878537069E+02 -0.10953455920E+03  0.40466913654E+03  0.91823701732E+02 0.  0.
         23    2    4    4    0    0 -0.15641424496E+02 -0.28404294683E+03  0.23948243983E+03  0.38302556351E+03  0.91824253399E+02 0.  0.
          1    1    3    3  502    0 -0.26015829062E+03  0.21786861851E+03 -0.24954302406E+03  0.42121347553E+03  0.00000000000E+00 0. -1.
         -1    1    3    3    0  502 -0.98788117551E+02  0.12105286539E+03 -0.18613707819E+03  0.24302242750E+03  0.00000000000E+00 0.  1.
         13    1    5    5    0    0  0.14716667409E+03 -0.60902638195E+02 -0.69048027875E+02  0.17359375408E+03  0.00000000000E+00 0. -1.
        -13    1    5    5    0    0  0.22742115858E+03  0.60241011261E+01 -0.40486531327E+02  0.23107538247E+03  0.00000000000E+00 0.  1.
          3    1    6    6  503    0 -0.47996037861E+02 -0.22030891748E+03  0.16219283940E+03  0.27775196836E+03  0.00000000000E+00 0. -1.
         -3    1    6    6    0  503  0.32354613365E+02 -0.63734029354E+02  0.77289600425E+02  0.10527359516E+03  0.00000000000E+00 0.  1.
<mgrwt>
<rscale>  0 0.58965339E+03</rscale>
<asrwt>0</asrwt>
<pdfrwt beam="1">  1        1 0.13520483E+00 0.58965339E+03</pdfrwt>
<pdfrwt beam="2">  1       -1 0.88169106E-01 0.58965339E+03</pdfrwt>
<totfact> 0.25098031E+01</totfact>
</mgrwt>
</event>
<event>
12    1  0.1338445E-007  0.8665625E+03  0.7818608E-02  0.9468373E-01
         -3   -1    0    0    0  501 -0.00000000000E+00  0.00000000000E+00  0.13847141918E+04  0.13847141918E+04  0.00000000000E+00 0. -1.
          3   -1    0    0  501    0  0.00000000000E+00 -0.00000000000E+00 -0.58335179998E+03  0.58335179998E+03  0.00000000000E+00 0.  1.
         23    2    1    2    0    0  0.75494105567E+03 -0.14917906492E+03  0.58052241168E+03  0.96758103820E+03  0.83763978412E+02 0.  0.
    5000000    2    1    2    0    0 -0.75494105567E+03  0.14917906492E+03  0.22083998013E+03  0.10004849536E+04  0.60000787872E+03 0.  0.
         23    2    4    4    0    0  0.41986189504E+02 -0.88762083398E+02  0.48737168505E+02  0.14573666074E+03  0.96032885673E+02 0.  0.
         23    2    4    4    0    0 -0.79692724518E+03  0.23794114832E+03  0.17210281162E+03  0.85474829283E+03  0.96261322181E+02 0.  0.
          1    1    3    3  502    0  0.41899910050E+03 -0.12488336054E+03  0.33341654723E+03  0.54983878903E+03  0.00000000000E+00 0. -1.
         -1    1    3    3    0  502  0.33594195518E+03 -0.24295704384E+02  0.24710586445E+03  0.41774224917E+03  0.00000000000E+00 0.  1.
         11    1    5    5    0    0  0.65726279734E+01 -0.91232183443E+02  0.81740346469E+01  0.91833139861E+02  0.00000000000E+00 0.  1.
        -11    1    5    5    0    0  0.35413561530E+02  0.24701000446E+01  0.40563133858E+02  0.53903520877E+02  0.00000000000E+00 0. -1.
          4    1    6    6  503    0 -0.17838562765E+03  0.41658453164E+02  0.77687258509E+02  0.19897781034E+03  0.00000000000E+00 0. -1.
         -4    1    6    6    0  503 -0.61854161753E+03  0.19628269516E+03  0.94415553113E+02  0.65577048249E+03  0.00000000000E+00 0.  1.
<mgrwt>
<rscale>  0 0.86656250E+03</rscale>
<asrwt>0</asrwt>
<pdfrwt beam="1">  1        3 0.89746431E-01 0.86656250E+03</pdfrwt>
<pdfrwt beam="2">  1       -3 0.21303295E+00 0.86656250E+03</pdfrwt>
<totfact> 0.35220188E-01</totfact>
</mgrwt>
</event>
<event>
12    1  0.1338445E-007  0.6003508E+03  0.7818608E-02  0.9904678E-01
          2   -1    0    0  501    0  0.00000000000E+00  0.00000000000E+00  0.13916987483E+04  0.13916987483E+04  0.00000000000E+00 0. -1.
         -2   -1    0    0    0  501 -0.00000000000E+00 -0.00000000000E+00 -0.38983208273E+03  0.38983208273E+03  0.00000000000E+00 0.  1.
         23    2    1    2    0    0 -0.20634993642E+03  0.43336503000E+03  0.87531221335E+03  0.10026972467E+04  0.94046543000E+02 0.  0.
    5000000    2    1    2    0    0  0.20634993642E+03 -0.43336503000E+03  0.12655445227E+03  0.77883358437E+03  0.60015012894E+03 0.  0.
         23    2    4    4    0    0  0.32100283748E+03 -0.86765122844E+02  0.19411034088E+03  0.39626801245E+03  0.93693676650E+02 0.  0.
         23    2    4    4    0    0 -0.11465290106E+03 -0.34659990716E+03 -0.67555888610E+02  0.38256557191E+03  0.92281283941E+02 0.  0.
          1    1    3    3  502    0 -0.19630114144E+03  0.37666913729E+03  0.70668505249E+03  0.82451048540E+03  0.00000000000E+00 0. -1.
         -1    1    3    3    0  502 -0.10048794984E+02  0.56695892709E+02  0.16862716086E+03  0.17818676132E+03  0.00000000000E+00 0.  1.
         13    1    5    5    0    0  0.21260540016E+03 -0.97191672125E+02  0.10835857044E+03  0.25766035220E+03  0.00000000000E+00 0. -1.
        -13    1    5    5    0    0  0.10839743732E+03  0.10426549282E+02  0.85751770434E+02  0.13860766025E+03  0.00000000000E+00 0.  1.
          4    1    6    6  503    0 -0.52473915872E+02 -0.49392498524E+02 -0.29332264730E+01  0.72123051620E+02  0.00000000000E+00 0.  1.
         -4    1    6    6    0  503 -0.62178985188E+02 -0.29720740863E+03 -0.64622662137E+02  0.31044252029E+03  0.00000000000E+00 0. -1.
<mgrwt>
<rscale>  0 0.60035083E+03</rscale>
<asrwt>0</asrwt>
<pdfrwt beam="1">  1        2 0.21410750E+00 0.60035083E+03</pdfrwt>
<pdfrwt beam="2">  1       -2 0.59974167E-01 0.60035083E+03</pdfrwt>
<totfact> 0.39411688E+01</totfact>
</mgrwt>
</event>
<event>
12    1  0.1338445E-007  0.4505604E+03  0.7818608E-02  0.1027555E+00
         -2   -1    0    0    0  501 -0.00000000000E+00  0.00000000000E+00  0.21030548959E+03  0.21030548959E+03  0.00000000000E+00 0.  1.
          2   -1    0    0  501    0  0.00000000000E+00 -0.00000000000E+00 -0.22741898154E+04  0.22741898154E+04  0.00000000000E+00 0. -1.
         23    2    1    2    0    0  0.31080781924E+03 -0.17015613789E+03 -0.16132855825E+04  0.16544383173E+04  0.94451910498E+02 0.  0.
    5000000    2    1    2    0    0 -0.31080781924E+03  0.17015613789E+03 -0.45059874326E+03  0.83005698761E+03  0.60033387668E+03 0.  0.
         23    2    4    4    0    0  0.66325307144E+02 -0.49413312640E+02  0.73260715161E+02  0.14209411840E+03  0.89346987994E+02 0.  0.
         23    2    4    4    0    0 -0.37713312639E+03  0.21956945053E+03 -0.52385945842E+03  0.68796286921E+03  0.91782561602E+02 0.  0.
          1    1    3    3  502    0  0.70048839584E+02 -0.85217279146E+02 -0.54731571443E+03  0.55832187478E+03  0.00000000000E+00 0. -1.
         -1    1    3    3    0  502  0.24075897966E+03 -0.84938858739E+02 -0.10659698681E+04  0.10961164426E+04  0.00000000000E+00 0.  1.
         13    1    5    5    0    0  0.69600842932E+02 -0.35774398911E+02  0.11906722527E+02  0.79157153787E+02  0.00000000000E+00 0. -1.
        -13    1    5    5    0    0 -0.32755357875E+01 -0.13638913729E+02  0.61353992634E+02  0.62936964612E+02  0.00000000000E+00 0.  1.
          2    1    6    6  503    0 -0.19241999956E+03  0.67338626892E+02 -0.27901701944E+03  0.34555816303E+03  0.00000000000E+00 0. -1.
         -2    1    6    6    0  503 -0.18471312683E+03  0.15223082363E+03 -0.24484243898E+03  0.34240470618E+03  0.00000000000E+00 0.  1.
<mgrwt>
<rscale>  0 0.45056044E+03</rscale>
<asrwt>0</asrwt>
<pdfrwt beam="1">  1        2 0.34987534E+00 0.45056044E+03</pdfrwt>
<pdfrwt beam="2">  1       -2 0.32354692E-01 0.45056044E+03</pdfrwt>
<totfact> 0.45452533E+01</totfact>
</mgrwt>
</event>
<event>
12    1  0.1338445E-007  0.1401416E+04  0.7818608E-02  0.8952794E-01
         -2   -1    0    0    0  501 -0.00000000000E+00  0.00000000000E+00  0.54138965493E+03  0.54138965493E+03  0.00000000000E+00 0. -1.
          2   -1    0    0  501    0  0.00000000000E+00 -0.00000000000E+00 -0.40134358432E+04  0.40134358432E+04  0.00000000000E+00 0.  1.
         23    2    1    2    0    0 -0.11100728493E+04 -0.80518788870E+03 -0.21838741019E+04  0.25803154504E+04  0.90180173389E+02 0.  0.
    5000000    2    1    2    0    0  0.11100728493E+04  0.80518788870E+03 -0.12881720863E+04  0.19745100477E+04  0.59892682156E+03 0.  0.
         23    2    4    4    0    0  0.11148073247E+04  0.71145897640E+03 -0.12831839653E+04  0.18451444045E+04  0.95013359435E+02 0.  0.
         23    2    4    4    0    0 -0.47344753396E+01  0.93728912297E+02 -0.49881209926E+01  0.12936564317E+03  0.88899178989E+02 0.  0.
          4    1    3    3  502    0 -0.81239175411E+03 -0.60834837957E+03 -0.15454021731E+04  0.18488742493E+04  0.00000000000E+00 0.  1.
         -4    1    3    3    0  502 -0.29768109520E+03 -0.19683950913E+03 -0.63847192881E+03  0.73144120111E+03  0.00000000000E+00 0. -1.
         11    1    5    5    0    0  0.23025213997E+03  0.15786520630E+03 -0.32510939867E+03  0.42852490292E+03  0.00000000000E+00 0.  1.
        -11    1    5    5    0    0  0.88455518468E+03  0.55359377011E+03 -0.95807456666E+03  0.14166195016E+04  0.00000000000E+00 0. -1.
          1    1    6    6  503    0  0.18597441736E+02  0.78072703778E+02  0.28937974146E+02  0.85314818537E+02  0.00000000000E+00 0. -1.
         -1    1    6    6    0  503 -0.23331917075E+02  0.15656208519E+02 -0.33926095139E+02  0.44050824634E+02  0.00000000000E+00 0.  1.
<mgrwt>
<rscale>  0 0.14014157E+04</rscale>
<asrwt>0</asrwt>
<pdfrwt beam="1">  1        2 0.61745166E+00 0.14014157E+04</pdfrwt>
<pdfrwt beam="2">  1       -2 0.83290717E-01 0.14014157E+04</pdfrwt>
<totfact> 0.41542438E-01</totfact>
</mgrwt>
</event>
<event>
12    1  0.1338445E-007  0.9763544E+03  0.7818608E-02  0.9334866E-01
         -1   -1    0    0    0  501 -0.00000000000E+00  0.00000000000E+00  0.87286324618E+03  0.87286324618E+03  0.00000000000E+00 0.  1.
          1   -1    0    0  501    0  0.00000000000E+00 -0.00000000000E+00 -0.12733821357E+04  0.12733821357E+04  0.00000000000E+00 0. -1.
         23    2    1    2    0    0  0.87057305675E+03  0.18275562615E+03 -0.56918188936E+03  0.10596611355E+04  0.87273322751E+02 0.  0.
    5000000    2    1    2    0    0 -0.87057305675E+03 -0.18275562615E+03  0.16866299987E+03  0.10865842464E+04  0.60076705208E+03 0.  0.
         23    2    4    4    0    0 -0.74220923849E+03  0.94519590355E+02  0.10408342581E+03  0.76115061740E+03  0.93318787914E+02 0.  0.
         23    2    4    4    0    0 -0.12836381826E+03 -0.27727521651E+03  0.64579574056E+02  0.32543362895E+03  0.91529830885E+02 0.  0.
          3    1    3    3  502    0  0.20063716137E+03  0.79232551195E+02 -0.14746938695E+03  0.26130497083E+03  0.00000000000E+00 0. -1.
         -3    1    3    3    0  502  0.66993589538E+03  0.10352307496E+03 -0.42171250241E+03  0.79835616466E+03  0.00000000000E+00 0.  1.
         11    1    5    5    0    0 -0.21357370263E+03  0.67869123798E+02  0.44822528279E+02  0.22853665671E+03  0.00000000000E+00 0.  1.
        -11    1    5    5    0    0 -0.52863553586E+03  0.26650466557E+02  0.59260897532E+02  0.53261396069E+03  0.00000000000E+00 0. -1.
          2    1    6    6  503    0 -0.94506616309E+02 -0.19358372794E+03  0.17249183283E+01  0.21542779670E+03  0.00000000000E+00 0. -1.
         -2    1    6    6    0  503 -0.33857201950E+02 -0.83691488567E+02  0.62854655728E+02  0.11000583225E+03  0.00000000000E+00 0.  1.
<mgrwt>
<rscale>  0 0.97635444E+03</rscale>
<asrwt>0</asrwt>
<pdfrwt beam="1">  1        1 0.19590494E+00 0.97635444E+03</pdfrwt>
<pdfrwt beam="2">  1       -1 0.13428665E+00 0.97635444E+03</pdfrwt>
<totfact> 0.44430402E+00</totfact>
</mgrwt>
</event>
<event>
12    1  0.1338445E-007  0.2043661E+04  0.7818608E-02  0.8586475E-01
          2   -1    0    0  501    0  0.00000000000E+00  0.00000000000E+00  0.40983064562E+04  0.40983064562E+04  0.00000000000E+00 0. -1.
         -2   -1    0    0    0  501 -0.00000000000E+00 -0.00000000000E+00 -0.10327567927E+04  0.10327567927E+04  0.00000000000E+00 0.  1.
         23    2    1    2    0    0 -0.14772005107E+03 -0.20070571575E+04  0.15121160796E+04  0.25189303931E+04  0.91736799678E+02 0.  0.
    5000000    2    1    2    0    0  0.14772005107E+03  0.20070571575E+04  0.15534335839E+04  0.26121328558E+04  0.59998542473E+03 0.  0.
         23    2    4    4    0    0 -0.52157477449E+01  0.18635622087E+04  0.14393171289E+04  0.23564381954E+04  0.90971761099E+02 0.  0.
         23    2    4    4    0    0  0.15293579882E+03  0.14349494882E+03  0.11411645493E+03  0.25569466043E+03  0.91526144832E+02 0.  0.
          2    1    3    3  502    0  0.17013501658E+01 -0.39117615916E+03  0.31873643275E+03  0.50459349545E+03  0.00000000000E+00 0. -1.
         -2    1    3    3    0  502 -0.14942140124E+03 -0.16158809983E+04  0.11933796468E+04  0.20143368977E+04  0.00000000000E+00 0.  1.
         13    1    5    5    0    0  0.60702460827E+01  0.98234191471E+03  0.81486835592E+03  0.12763396581E+04  0.00000000000E+00 0.  1.
        -13    1    5    5    0    0 -0.11285993828E+02  0.88122029395E+03  0.62444877301E+03  0.10800985373E+04  0.00000000000E+00 0. -1.
          1    1    6    6  503    0  0.13845488097E+03  0.12978871628E+03  0.61603975704E+02  0.19952422099E+03  0.00000000000E+00 0. -1.
         -1    1    6    6    0  503  0.14480917846E+02  0.13706232540E+02  0.52512479227E+02  0.56170439438E+02  0.00000000000E+00 0.  1.
<mgrwt>
<rscale>  0 0.20436613E+04</rscale>
<asrwt>0</asrwt>
<pdfrwt beam="1">  1        2 0.63050868E+00 0.20436613E+04</pdfrwt>
<pdfrwt beam="2">  1       -2 0.15888566E+00 0.20436613E+04</pdfrwt>
<totfact> 0.65596268E-02</totfact>
</mgrwt>
</event>
<event>
12    1  0.1338445E-007  0.8832535E+03  0.7818608E-02  0.9446761E-01
         -1   -1    0    0    0  501 -0.00000000000E+00  0.00000000000E+00  0.10549927558E+04  0.10549927558E+04  0.00000000000E+00 0.  1.
          1   -1    0    0  501    0  0.00000000000E+00 -0.00000000000E+00 -0.10168113805E+04  0.10168113805E+04  0.00000000000E+00 0. -1.
         23    2    1    2    0    0 -0.47122395706E+03  0.68426958540E+03 -0.43544933898E+03  0.94283218153E+03  0.95076350855E+02 0.  0.
    5000000    2    1    2    0    0  0.47122395706E+03 -0.68426958540E+03  0.47363071428E+03  0.11289719547E+04  0.59997894779E+03 0.  0.
         23    2    4    4    0    0  0.52967808918E+03 -0.61097157463E+03  0.54501719007E+03  0.97945713546E+03  0.91909735949E+02 0.  0.
         23    2    4    4    0    0 -0.58454132120E+02 -0.73298010778E+02 -0.71386475785E+02  0.14951481925E+03  0.92028084330E+02 0.  0.
          4    1    3    3  502    0 -0.11416459033E+03  0.14026506481E+03 -0.13728281341E+03  0.22705596876E+03  0.00000000000E+00 0.  1.
         -4    1    3    3    0  502 -0.35705936673E+03  0.54400452059E+03 -0.29816652557E+03  0.71577621277E+03  0.00000000000E+00 0. -1.
         13    1    5    5    0    0  0.30611952613E+03 -0.28384949771E+03  0.28834580523E+03  0.50736870718E+03  0.00000000000E+00 0.  1.
        -13    1    5    5    0    0  0.22355856305E+03 -0.32712207691E+03  0.25667138484E+03  0.47208842828E+03  0.00000000000E+00 0. -1.
          1    1    6    6  503    0 -0.59883695536E+02 -0.88021255068E+02 -0.38070753857E+02  0.11306272876E+03  0.00000000000E+00 0. -1.
         -1    1    6    6    0  503  0.14295634155E+01  0.14723244290E+02 -0.33315721929E+02  0.36452090497E+02  0.00000000000E+00 0.  1.
<mgrwt>
<rscale>  0 0.88325354E+03</rscale>
<asrwt>0</asrwt>
<pdfrwt beam="1">  1        1 0.15643252E+00 0.88325354E+03</pdfrwt>
<pdfrwt beam="2">  1       -1 0.16230658E+00 0.88325354E+03</pdfrwt>
<totfact> 0.41944860E+00</totfact>
</mgrwt>
</event>
<event>
12    1  0.1338445E-007  0.1850889E+04  0.7818608E-02  0.8679696E-01
         -1   -1    0    0    0  501 -0.00000000000E+00  0.00000000000E+00  0.20590479594E+04  0.20590479594E+04  0.00000000000E+00 0.  1.
          1   -1    0    0  501    0  0.00000000000E+00 -0.00000000000E+00 -0.17420777415E+04  0.17420777415E+04  0.00000000000E+00 0. -1.
         23    2    1    2    0    0 -0.45107848196E+03  0.17774134984E+04  0.36063544305E+03  0.18711870338E+04  0.92803294891E+02 0.  0.
    5000000    2    1    2    0    0  0.45107848196E+03 -0.17774134984E+04 -0.43665225089E+02  0.19299386671E+04  0.60007171715E+03 0.  0.
         23    2    4    4    0    0  0.44829601462E+02 -0.81049863342E+03  0.21694441314E+03  0.84529567691E+03  0.92423888048E+02 0.  0.
         23    2    4    4    0    0  0.40624888050E+03 -0.96691486498E+03 -0.26060963823E+03  0.10846429902E+04  0.92577122432E+02 0.  0.
          3    1    3    3  502    0 -0.27569116528E+03  0.12582054770E+04  0.25691674493E+03  0.13134279024E+04  0.00000000000E+00 0. -1.
         -3    1    3    3    0  502 -0.17538731668E+03  0.51920802136E+03  0.10371869812E+03  0.55775913138E+03  0.00000000000E+00 0.  1.
         11    1    5    5    0    0  0.29002213638E+02 -0.19618141412E+03  0.16891947692E+02  0.19903168978E+03  0.00000000000E+00 0.  1.
        -11    1    5    5    0    0  0.15827387823E+02 -0.61431721930E+03  0.20005246544E+03  0.64626398713E+03  0.00000000000E+00 0. -1.
          3    1    6    6  503    0  0.40360782701E+03 -0.90540486849E+03 -0.24417394702E+03  0.10209202566E+04  0.00000000000E+00 0. -1.
         -3    1    6    6    0  503  0.26410534875E+01 -0.61509996485E+02 -0.16435691205E+02  0.63722733592E+02  0.00000000000E+00 0.  1.
<mgrwt>
<rscale>  0 0.18508891E+04</rscale>
<asrwt>0</asrwt>
<pdfrwt beam="1">  1        1 0.26801196E+00 0.18508891E+04</pdfrwt>
<pdfrwt beam="2">  1       -1 0.31677661E+00 0.18508891E+04</pdfrwt>
<totfact> 0.10401039E-01</totfact>
</mgrwt>
</event>
<event>
12    1  0.1338445E-007  0.5038706E+03  0.7818608E-02  0.1012774E+00
          2   -1    0    0  501    0  0.00000000000E+00  0.00000000000E+00  0.46832813733E+03  0.46832813733E+03  0.00000000000E+00 0. -1.
         -2   -1    0    0    0  501 -0.00000000000E+00 -0.00000000000E+00 -0.60957543544E+03  0.60957543544E+03  0.00000000000E+00 0.  1.
         23    2    1    2    0    0 -0.99646559975E+02  0.34455588884E+03 -0.42755246710E+02  0.37193758864E+03  0.88664317915E+02 0.  0.
    5000000    2    1    2    0    0  0.99646559975E+02 -0.34455588884E+03 -0.98492051400E+02  0.70596598413E+03  0.60003257337E+03 0.  0.
         23    2    4    4    0    0  0.30503804973E+03 -0.26357077723E+03 -0.18436529757E+03  0.45244369430E+03  0.90537103868E+02 0.  0.
         23    2    4    4    0    0 -0.20539148975E+03 -0.80985111606E+02  0.85873246166E+02  0.25352228982E+03  0.90305507389E+02 0.  0.
          2    1    3    3  502    0 -0.55707901344E+02  0.75227714431E+02  0.95043093747E+01  0.94089910126E+02  0.00000000000E+00 0. -1.
         -2    1    3    3    0  502 -0.43938658631E+02  0.26932817441E+03 -0.52259556084E+02  0.27784767851E+03  0.00000000000E+00 0.  1.
         13    1    5    5    0    0  0.18224226245E+03 -0.18077511080E+03 -0.15965897666E+03  0.30229600019E+03  0.00000000000E+00 0. -1.
        -13    1    5    5    0    0  0.12279578728E+03 -0.82795666434E+02 -0.24706320910E+02  0.15014769411E+03  0.00000000000E+00 0.  1.
          1    1    6    6  503    0 -0.18859608376E+03 -0.98002020459E+02  0.66351055573E+02  0.22265520744E+03  0.00000000000E+00 0. -1.
         -1    1    6    6    0  503 -0.16795405993E+02  0.17016908853E+02  0.19522190592E+02  0.30867082384E+02  0.00000000000E+00 0.  1.
<mgrwt>
<rscale>  0 0.50387059E+03</rscale>
<asrwt>0</asrwt>
<pdfrwt beam="1">  1        2 0.72050482E-01 0.50387059E+03</pdfrwt>
<pdfrwt beam="2">  1       -2 0.93780837E-01 0.50387059E+03</pdfrwt>
<totfact> 0.65690888E+01</totfact>
</mgrwt>
</event>
<event>
12    1  0.1338445E-007  0.5035082E+03  0.7818608E-02  0.1012867E+00
         -1   -1    0    0    0  501 -0.00000000000E+00  0.00000000000E+00  0.44585531918E+03  0.44585531918E+03  0.00000000000E+00 0.  1.
          1   -1    0    0  501    0  0.00000000000E+00 -0.00000000000E+00 -0.89024235189E+03  0.89024235189E+03  0.00000000000E+00 0. -1.
         23    2    1    2    0    0 -0.19494159294E+03  0.28568204852E+03  0.18084881660E+03  0.40299743506E+03  0.10042002138E+03 0.  0.
    5000000    2    1    2    0    0  0.19494159294E+03 -0.28568204852E+03 -0.62523584931E+03  0.93310023601E+03  0.60011642678E+03 0.  0.
         23    2    4    4    0    0  0.83579195750E+02  0.16825295074E+03 -0.25096198445E+03  0.32644879366E+03  0.91062395371E+02 0.  0.
         23    2    4    4    0    0  0.11136239718E+03 -0.45393499926E+03 -0.37427386486E+03  0.60665144235E+03  0.97398560222E+02 0.  0.
          4    1    3    3  502    0 -0.11397430999E+03  0.18029050375E+03  0.55706269153E+02  0.22044953505E+03  0.00000000000E+00 0. -1.
         -4    1    3    3    0  502 -0.80967282946E+02  0.10539154477E+03  0.12514254745E+03  0.18254790001E+03  0.00000000000E+00 0.  1.
         11    1    5    5    0    0  0.69704021454E+02  0.90780693815E+02 -0.84336557292E+02  0.14217046062E+03  0.00000000000E+00 0.  1.
        -11    1    5    5    0    0  0.13875174296E+02  0.77472256924E+02 -0.16662542716E+03  0.18427833304E+03  0.00000000000E+00 0. -1.
          1    1    6    6  503    0  0.91870868962E+02 -0.34660714596E+03 -0.33499375955E+03  0.49071130936E+03  0.00000000000E+00 0. -1.
         -1    1    6    6    0  503  0.19491528223E+02 -0.10732785330E+03 -0.39280105315E+02  0.11594013300E+03  0.00000000000E+00 0.  1.
<mgrwt>
<rscale>  0 0.50350816E+03</rscale>
<asrwt>0</asrwt>
<pdfrwt beam="1">  1        1 0.13696036E+00 0.50350816E+03</pdfrwt>
<pdfrwt beam="2">  1       -1 0.68593127E-01 0.50350816E+03</pdfrwt>
<totfact> 0.42096595E+01</totfact>
</mgrwt>
</event>
<event>
12    1  0.1338445E-007  0.6337061E+03  0.7818608E-02  0.9837843E-01
          2   -1    0    0  501    0  0.00000000000E+00  0.00000000000E+00  0.79558458024E+03  0.79558458024E+03  0.00000000000E+00 0. -1.
         -2   -1    0    0    0  501 -0.00000000000E+00 -0.00000000000E+00 -0.58795291906E+03  0.58795291906E+03  0.00000000000E+00 0.  1.
         23    2    1    2    0    0  0.20289654682E+02  0.49993157087E+03 -0.14051580803E+03  0.52750878111E+03  0.90429951871E+02 0.  0.
    5000000    2    1    2    0    0 -0.20289654682E+02 -0.49993157087E+03  0.34814746921E+03  0.85602871819E+03  0.60102850216E+03 0.  0.
         23    2    4    4    0    0  0.96580864387E+02 -0.59198038594E+03  0.28270291749E+03  0.66955032899E+03  0.92779646388E+02 0.  0.
         23    2    4    4    0    0 -0.11687051907E+03  0.92048815070E+02  0.65444551712E+02  0.18647838920E+03  0.91430288779E+02 0.  0.
          4    1    3    3  502    0 -0.30744176889E+02  0.31288874391E+03 -0.80205502964E+02  0.32446493367E+03  0.00000000000E+00 0.  1.
         -4    1    3    3    0  502  0.51033831571E+02  0.18704282697E+03 -0.60310305070E+02  0.20304384744E+03  0.00000000000E+00 0. -1.
         13    1    5    5    0    0  0.16821198226E+02 -0.16297934124E+03  0.12305703489E+03  0.20491035165E+03  0.00000000000E+00 0.  1.
        -13    1    5    5    0    0  0.79759666161E+02 -0.42900104471E+03  0.15964588261E+03  0.46463997734E+03  0.00000000000E+00 0. -1.
          4    1    6    6  503    0 -0.10469944175E+03  0.51649323205E+02  0.10521013315E+02  0.11721910003E+03  0.00000000000E+00 0. -1.
         -4    1    6    6    0  503 -0.12171077315E+02  0.40399491865E+02  0.54923538397E+02  0.69259289167E+02  0.00000000000E+00 0.  1.
<mgrwt>
<rscale>  0 0.63370613E+03</rscale>
<asrwt>0</asrwt>
<pdfrwt beam="1">  1        2 0.12239763E+00 0.63370613E+03</pdfrwt>
<pdfrwt beam="2">  1       -2 0.90454295E-01 0.63370613E+03</pdfrwt>
<totfact> 0.37149738E+01</totfact>
</mgrwt>
</event>
<event>
12    1  0.1338445E-007  0.2014652E+04  0.7818608E-02  0.8599801E-01
         -2   -1    0    0    0  501 -0.00000000000E+00  0.00000000000E+00  0.21603426346E+04  0.21603426346E+04  0.00000000000E+00 0.  1.
          2   -1    0    0  501    0  0.00000000000E+00 -0.00000000000E+00 -0.19386740831E+04  0.19386740831E+04  0.00000000000E+00 0. -1.
         23    2    1    2    0    0 -0.27718385595E+02 -0.19927298570E+04 -0.74595106879E+02  0.19967473569E+04  0.98463116590E+02 0.  0.
    5000000    2    1    2    0    0  0.27718385595E+02  0.19927298570E+04  0.29626365829E+03  0.21022693608E+04  0.60001976471E+03 0.  0.
         23    2    4    4    0    0 -0.14810537928E+03  0.34451270675E+03 -0.93359656118E+02  0.39702277356E+03  0.91032130911E+02 0.  0.
         23    2    4    4    0    0  0.17582376487E+03  0.16482171503E+04  0.38962331441E+03  0.17052465872E+04  0.92335395655E+02 0.  0.
          4    1    3    3  502    0 -0.62437533510E+02 -0.14871459106E+04 -0.46003256874E+02  0.14891667820E+04  0.00000000000E+00 0. -1.
         -4    1    3    3    0  502  0.34719147915E+02 -0.50558394648E+03 -0.28591850005E+02  0.50758057494E+03  0.00000000000E+00 0.  1.
         11    1    5    5    0    0 -0.44022394981E+02  0.84172027298E+02 -0.65251282659E+02  0.11524162151E+03  0.00000000000E+00 0.  1.
        -11    1    5    5    0    0 -0.10408298430E+03  0.26034067945E+03 -0.28108373459E+02  0.28178115206E+03  0.00000000000E+00 0. -1.
          4    1    6    6  503    0  0.99634061623E+02  0.11936225888E+04  0.24950045784E+03  0.12234836775E+04  0.00000000000E+00 0. -1.
         -4    1    6    6    0  503  0.76189703248E+02  0.45459456152E+03  0.14012285657E+03  0.48176290972E+03  0.00000000000E+00 0.  1.
<mgrwt>
<rscale>  0 0.20146520E+04</rscale>
<asrwt>0</asrwt>
<pdfrwt beam="1">  1        2 0.29825755E+00 0.20146520E+04</pdfrwt>
<pdfrwt beam="2">  1       -2 0.33236041E+00 0.20146520E+04</pdfrwt>
<totfact> 0.12893365E-01</totfact>
</mgrwt>
</event>
<event>
12    1  0.1338445E-007  0.1036369E+04  0.7818608E-02  0.9269531E-01
         -2   -1    0    0    0  501 -0.00000000000E+00  0.00000000000E+00  0.87440013702E+03  0.87440013702E+03  0.00000000000E+00 0.  1.
          2   -1    0    0  501    0  0.00000000000E+00 -0.00000000000E+00 -0.14799894547E+04  0.14799894547E+04  0.00000000000E+00 0. -1.
         23    2    1    2    0    0  0.96956106781E+03  0.14749392035E+02  0.15100211009E+03  0.98578137921E+03  0.93258144750E+02 0.  0.
    5000000    2    1    2    0    0 -0.96956106781E+03 -0.14749392035E+02 -0.75659142779E+03  0.13686082125E+04  0.60032627964E+03 0.  0.
         23    2    4    4    0    0 -0.20365792230E+03  0.21160124054E+03 -0.79612332256E+02  0.31762800106E+03  0.91092202170E+02 0.  0.
         23    2    4    4    0    0 -0.76590314551E+03 -0.22635063258E+03 -0.67697909553E+03  0.10509802115E+04  0.91741331703E+02 0.  0.
          2    1    3    3  502    0  0.78628139649E+03  0.48346052063E+02  0.12594755862E+03  0.79777099643E+03  0.00000000000E+00 0. -1.
         -2    1    3    3    0  502  0.18327967132E+03 -0.33596660029E+02  0.25054551474E+02  0.18801038278E+03  0.00000000000E+00 0.  1.
         11    1    5    5    0    0 -0.35840995707E+02  0.52567942328E+02 -0.56826222386E+02  0.85306418777E+02  0.00000000000E+00 0. -1.
        -11    1    5    5    0    0 -0.16781692659E+03  0.15903329822E+03 -0.22786109871E+02  0.23232158229E+03  0.00000000000E+00 0.  1.
          4    1    6    6  503    0 -0.33866647050E+03 -0.14735214245E+03 -0.30326012593E+03  0.47788527504E+03  0.00000000000E+00 0. -1.
         -4    1    6    6    0  503 -0.42723667501E+03 -0.78998490133E+02 -0.37371896961E+03  0.57309493643E+03  0.00000000000E+00 0.  1.
<mgrwt>
<rscale>  0 0.10363689E+04</rscale>
<asrwt>0</asrwt>
<pdfrwt beam="1">  1        2 0.22769068E+00 0.10363689E+04</pdfrwt>
<pdfrwt beam="2">  1       -2 0.13452310E+00 0.10363689E+04</pdfrwt>
<totfact> 0.51307609E+00</totfact>
</mgrwt>
</event>
<event>
12    1  0.1338445E-007  0.6724874E+03  0.7818608E-02  0.9765475E-01
         -1   -1    0    0    0  501 -0.00000000000E+00  0.00000000000E+00  0.32413685459E+03  0.32413685459E+03  0.00000000000E+00 0.  1.
          1   -1    0    0  501    0  0.00000000000E+00 -0.00000000000E+00 -0.17824762136E+04  0.17824762136E+04  0.00000000000E+00 0. -1.
         23    2    1    2    0    0  0.55328122098E+03  0.22825884079E+03 -0.31257763322E+03  0.68141902716E+03  0.91678273867E+02 0.  0.
    5000000    2    1    2    0    0 -0.55328122098E+03 -0.22825884079E+03 -0.11457617257E+04  0.14251940410E+04  0.60015490865E+03 0.  0.
         23    2    4    4    0    0 -0.11303421195E+03 -0.26933396343E+03 -0.17139606930E+03  0.35125055152E+03  0.93181652935E+02 0.  0.
         23    2    4    4    0    0 -0.44024700903E+03  0.41075122645E+02 -0.97436565644E+03  0.10739434895E+04  0.91986909022E+02 0.  0.
          2    1    3    3  502    0  0.18437737541E+03  0.65740324811E+02 -0.56092052098E+02  0.20362496207E+03  0.00000000000E+00 0. -1.
         -2    1    3    3    0  502  0.36890384557E+03  0.16251851598E+03 -0.25648558112E+03  0.47779406509E+03  0.00000000000E+00 0.  1.
         13    1    5    5    0    0 -0.26449150551E+02 -0.11345019776E+03 -0.11631751083E+03  0.16462159112E+03  0.00000000000E+00 0. -1.
        -13    1    5    5    0    0 -0.86585061400E+02 -0.15588376567E+03 -0.55078558466E+02  0.18662896040E+03  0.00000000000E+00 0.  1.
          1    1    6    6  503    0 -0.59210708941E+02 -0.25546513720E+02 -0.15394326564E+03  0.16690434821E+03  0.00000000000E+00 0. -1.
         -1    1    6    6    0  503 -0.38103630009E+03  0.66621636365E+02 -0.82042239080E+03  0.90703914124E+03  0.00000000000E+00 0.  1.
<mgrwt>
<rscale>  0 0.67248736E+03</rscale>
<asrwt>0</asrwt>
<pdfrwt beam="1">  1        1 0.27422711E+00 0.67248736E+03</pdfrwt>
<pdfrwt beam="2">  1       -1 0.49867208E-01 0.67248736E+03</pdfrwt>
<totfact> 0.17755505E+01</totfact>
</mgrwt>
</event>
<event>
12    1  0.1493253E-007  0.9524834E+03  0.7818608E-02  0.9362253E-01
         -2   -1    0    0    0  501 -0.00000000000E+00  0.00000000000E+00  0.46348920583E+03  0.46348920583E+03  0.00000000000E+00 0. -1.
          2   -1    0    0  501    0  0.00000000000E+00 -0.00000000000E+00 -0.23191279584E+04  0.23191279584E+04  0.00000000000E+00 0.  1.
         23    2    1    2    0    0  0.93731207016E+03 -0.13049033230E+03 -0.77247387292E+03  0.12241884234E+04  0.79622660357E+02 0.  0.
    5000000    2    1    2    0    0 -0.93731207016E+03  0.13049033230E+03 -0.10831648796E+04  0.15584287407E+04  0.59989360714E+03 0.  0.
         23    2    4    4    0    0 -0.54862881551E+03  0.49381013042E+02 -0.21204634085E+03  0.59677687592E+03  0.88016630842E+02 0.  0.
         23    2    4    4    0    0 -0.38868325465E+03  0.81109319256E+02 -0.87111853875E+03  0.96165186483E+03  0.90958267683E+02 0.  0.
          3    1    3    3  502    0  0.47835587593E+03 -0.74901643012E+02 -0.44529960265E+03  0.65781937968E+03  0.00000000000E+00 0. -1.
         -3    1    3    3    0  502  0.45895619423E+03 -0.55588689286E+02 -0.32717427027E+03  0.56636904376E+03  0.00000000000E+00 0.  1.
         13    1    5    5    0    0 -0.10738408025E+03  0.38187399079E+02 -0.21335949655E+02  0.11595189040E+03  0.00000000000E+00 0. -1.
        -13    1    5    5    0    0 -0.44124473526E+03  0.11193613963E+02 -0.19071039120E+03  0.48082498551E+03  0.00000000000E+00 0.  1.
          1    1    6    6  503    0 -0.31428545333E+03  0.93033326827E+02 -0.64843190747E+03  0.72656347603E+03  0.00000000000E+00 0. -1.
         -1    1    6    6    0  503 -0.74397801329E+02 -0.11924007570E+02 -0.22268663128E+03  0.23508838881E+03  0.00000000000E+00 0.  1.
<mgrwt>
<rscale>  0 0.95248342E+03</rscale>
<asrwt>0</asrwt>
<pdfrwt beam="1">  1        2 0.35678892E+00 0.95248342E+03</pdfrwt>
<pdfrwt beam="2">  1       -2 0.71306031E-01 0.95248342E+03</pdfrwt>
<totfact> 0.80013846E+00</totfact>
</mgrwt>
</event>
<event>
12    1  0.1338445E-007  0.4968389E+03  0.7818608E-02  0.1014607E+00
          2   -1    0    0  501    0  0.00000000000E+00  0.00000000000E+00  0.65138868011E+03  0.65138868011E+03  0.00000000000E+00 0.  1.
         -2   -1    0    0    0  501 -0.00000000000E+00 -0.00000000000E+00 -0.51607606627E+03  0.51607606627E+03  0.00000000000E+00 0. -1.
         23    2    1    2    0    0 -0.10265617519E+03  0.37359239970E+03 -0.11385987520E+03  0.41120347054E+03  0.77554184829E+02 0.  0.
    5000000    2    1    2    0    0  0.10265617519E+03 -0.37359239970E+03  0.24917248904E+03  0.75626127584E+03  0.59977880641E+03 0.  0.
         23    2    4    4    0    0  0.23883593956E+03 -0.36151565691E+03  0.34814049714E+03  0.56327689660E+03  0.91339368701E+02 0.  0.
         23    2    4    4    0    0 -0.13617976437E+03 -0.12076742794E+02 -0.98968008102E+02  0.19298437924E+03  0.93581665197E+02 0.  0.
          3    1    3    3  502    0 -0.11314198700E+03  0.29718549932E+03 -0.92689634797E+02  0.33122756321E+03  0.00000000000E+00 0. -1.
         -3    1    3    3    0  502  0.10485811810E+02  0.76406900382E+02 -0.21170240402E+02  0.79975907334E+02  0.00000000000E+00 0.  1.
         13    1    5    5    0    0  0.15014045741E+03 -0.27590743444E+03  0.28782932008E+03  0.42604317484E+03  0.00000000000E+00 0.  1.
        -13    1    5    5    0    0  0.88695482156E+02 -0.85608222469E+02  0.60311177059E+02  0.13723372176E+03  0.00000000000E+00 0. -1.
          1    1    6    6  503    0 -0.63313239027E+02 -0.48461296263E+02 -0.71317822754E+02  0.10697333927E+03  0.00000000000E+00 0. -1.
         -1    1    6    6    0  503 -0.72866525345E+02  0.36384553469E+02 -0.27650185348E+02  0.86011039970E+02  0.00000000000E+00 0.  1.
<mgrwt>
<rscale>  0 0.49683889E+03</rscale>
<asrwt>0</asrwt>
<pdfrwt beam="1">  1        2 0.10021364E+00 0.49683889E+03</pdfrwt>
<pdfrwt beam="2">  1       -2 0.79396318E-01 0.49683889E+03</pdfrwt>
<totfact> 0.65183160E+01</totfact>
</mgrwt>
</event>
<event>
12    1  0.1338445E-007  0.1190462E+04  0.7818608E-02  0.9121246E-01
         -2   -1    0    0    0  501 -0.00000000000E+00  0.00000000000E+00  0.88397448944E+03  0.88397448944E+03  0.00000000000E+00 0.  1.
          2   -1    0    0  501    0  0.00000000000E+00 -0.00000000000E+00 -0.16333349109E+04  0.16333349109E+04  0.00000000000E+00 0. -1.
         23    2    1    2    0    0  0.15257215832E+03 -0.11084306563E+04 -0.23064316438E+03  0.11458569209E+04  0.88853984070E+02 0.  0.
    5000000    2    1    2    0    0 -0.15257215832E+03  0.11084306563E+04 -0.51871725703E+03  0.13714524794E+04  0.59993126875E+03 0.  0.
         23    2    4    4    0    0 -0.36848166840E+03  0.70442500563E+03 -0.28777205716E+03  0.85037042033E+03  0.91234677541E+02 0.  0.
         23    2    4    4    0    0  0.21590951008E+03  0.40400565068E+03 -0.23094519987E+03  0.52108205909E+03  0.91396633616E+02 0.  0.
          3    1    3    3  502    0  0.16117274281E+03 -0.95160740950E+03 -0.20557139015E+03  0.98680946048E+03  0.00000000000E+00 0. -1.
         -3    1    3    3    0  502 -0.86005844934E+01 -0.15682324681E+03 -0.25071774235E+02  0.15904746039E+03  0.00000000000E+00 0.  1.
         13    1    5    5    0    0 -0.25100696890E+03  0.38699052164E+03 -0.15174160180E+03  0.48558385063E+03  0.00000000000E+00 0. -1.
        -13    1    5    5    0    0 -0.11747469951E+03  0.31743448399E+03 -0.13603045536E+03  0.36478656970E+03  0.00000000000E+00 0.  1.
          1    1    6    6  503    0  0.13848368162E+03  0.22933425825E+03 -0.86358092828E+02  0.28147762305E+03  0.00000000000E+00 0. -1.
         -1    1    6    6    0  503  0.77425828469E+02  0.17467139243E+03 -0.14458710704E+03  0.23960443604E+03  0.00000000000E+00 0.  1.
<mgrwt>
<rscale>  0 0.11904621E+04</rscale>
<asrwt>0</asrwt>
<pdfrwt beam="1">  1        2 0.25128229E+00 0.11904621E+04</pdfrwt>
<pdfrwt beam="2">  1       -2 0.13599608E+00 0.11904621E+04</pdfrwt>
<totfact> 0.40293433E+00</totfact>
</mgrwt>
</event>
<event>
12    1  0.1338445E-007  0.6354525E+03  0.7818608E-02  0.9834466E-01
         -2   -1    0    0    0  501 -0.00000000000E+00  0.00000000000E+00  0.28665694877E+03  0.28665694877E+03  0.00000000000E+00 0.  1.
          2   -1    0    0  501    0  0.00000000000E+00 -0.00000000000E+00 -0.20146292789E+04  0.20146292789E+04  0.00000000000E+00 0. -1.
         23    2    1    2    0    0  0.41735302854E+03  0.46332954769E+03 -0.52945183874E+03  0.82301083322E+03  0.90386734959E+02 0.  0.
    5000000    2    1    2    0    0 -0.41735302854E+03 -0.46332954769E+03 -0.11985204914E+04  0.14782753944E+04  0.59999079436E+03 0.  0.
         23    2    4    4    0    0 -0.31458895276E+03 -0.36962937615E+03 -0.12103131282E+04  0.13068669929E+04  0.86321399717E+02 0.  0.
         23    2    4    4    0    0 -0.10276407578E+03 -0.93700171541E+02  0.11792636852E+02  0.17140840146E+03  0.99506765538E+02 0.  0.
          3    1    3    3  502    0  0.28696755713E+03  0.25385790494E+03 -0.33281225796E+03  0.50750193477E+03  0.00000000000E+00 0. -1.
         -3    1    3    3    0  502  0.13038547141E+03  0.20947164275E+03 -0.19663958078E+03  0.31550889845E+03  0.00000000000E+00 0.  1.
         11    1    5    5    0    0 -0.16514728864E+03 -0.19578764909E+03 -0.52345263949E+03  0.58275989590E+03  0.00000000000E+00 0. -1.
        -11    1    5    5    0    0 -0.14944166412E+03 -0.17384172706E+03 -0.68686048871E+03  0.72410709705E+03  0.00000000000E+00 0.  1.
          1    1    6    6  503    0 -0.91169751405E+02 -0.10527485894E+03 -0.14930623773E+02  0.14006299662E+03  0.00000000000E+00 0. -1.
         -1    1    6    6    0  503 -0.11594324375E+02  0.11574687395E+02  0.26723260625E+02  0.31345404838E+02  0.00000000000E+00 0.  1.
<mgrwt>
<rscale>  0 0.63545249E+03</rscale>
<asrwt>0</asrwt>
<pdfrwt beam="1">  1        2 0.30994294E+00 0.63545249E+03</pdfrwt>
<pdfrwt beam="2">  1       -2 0.44101072E-01 0.63545249E+03</pdfrwt>
<totfact> 0.33542449E+01</totfact>
</mgrwt>
</event>
<event>
12    1  0.1338445E-007  0.1799771E+04  0.7818608E-02  0.8706421E-01
         -1   -1    0    0    0  501 -0.00000000000E+00  0.00000000000E+00  0.14489077209E+04  0.14489077209E+04  0.00000000000E+00 0.  1.
          1   -1    0    0  501    0  0.00000000000E+00 -0.00000000000E+00 -0.22672222813E+04  0.22672222813E+04  0.00000000000E+00 0. -1.
         23    2    1    2    0    0 -0.81618987914E+02  0.17538371312E+04 -0.25302404530E+03  0.17764872808E+04  0.96330417455E+02 0.  0.
    5000000    2    1    2    0    0  0.81618987914E+02 -0.17538371312E+04 -0.56529051503E+03  0.19396427214E+04  0.60004514702E+03 0.  0.
         23    2    4    4    0    0 -0.12040207003E+03 -0.11529005910E+03  0.62714675854E+01  0.19070629513E+03  0.92418090771E+02 0.  0.
         23    2    4    4    0    0  0.20202105794E+03 -0.16385470721E+04 -0.57156198262E+03  0.17489364263E+04  0.80290148495E+02 0.  0.
          3    1    3    3  502    0 -0.51968724299E+02  0.66319618665E+03 -0.53777732442E+02  0.66739941175E+03  0.00000000000E+00 0. -1.
         -3    1    3    3    0  502 -0.29650263615E+02  0.10906409445E+04 -0.19924631286E+03  0.11090878690E+04  0.00000000000E+00 0.  1.
         13    1    5    5    0    0 -0.13554322875E+03 -0.97307944980E+02  0.23394387066E+01  0.16687203477E+03  0.00000000000E+00 0. -1.
        -13    1    5    5    0    0  0.15141158720E+02 -0.17982114124E+02  0.39320288788E+01  0.23834260358E+02  0.00000000000E+00 0.  1.
          3    1    6    6  503    0  0.75654352185E+02 -0.34486654184E+03 -0.12168839112E+03  0.37344956449E+03  0.00000000000E+00 0. -1.
         -3    1    6    6    0  503  0.12636670576E+03 -0.12936805302E+04 -0.44987359149E+03  0.13754868618E+04  0.00000000000E+00 0.  1.
<mgrwt>
<rscale>  0 0.17997707E+04</rscale>
<asrwt>0</asrwt>
<pdfrwt beam="1">  1        1 0.34880343E+00 0.17997707E+04</pdfrwt>
<pdfrwt beam="2">  1       -1 0.22290888E+00 0.17997707E+04</pdfrwt>
<totfact> 0.18834416E-01</totfact>
</mgrwt>
</event>
<event>
12    1  0.1338445E-007  0.4465924E+03  0.7818608E-02  0.1028743E+00
          2   -1    0    0  501    0  0.00000000000E+00  0.00000000000E+00  0.39093191787E+03  0.39093191787E+03  0.00000000000E+00 0. -1.
         -2   -1    0    0    0  501 -0.00000000000E+00 -0.00000000000E+00 -0.89457835330E+03  0.89457835330E+03  0.00000000000E+00 0.  1.
         23    2    1    2    0    0 -0.40549264511E+03  0.10928245581E+03 -0.30483447874E+03  0.52657032421E+03  0.89360542329E+02 0.  0.
    5000000    2    1    2    0    0  0.40549264511E+03 -0.10928245581E+03 -0.19881195668E+03  0.75893994696E+03  0.60008058507E+03 0.  0.
         23    2    4    4    0    0  0.11367617334E+03  0.23703379503E+02 -0.36085070291E+03  0.38839238464E+03  0.84565312474E+02 0.  0.
         23    2    4    4    0    0  0.29181647177E+03 -0.13298583531E+03  0.16203874622E+03  0.37054756232E+03  0.90591694266E+02 0.  0.
          1    1    3    3  502    0 -0.19545439854E+03  0.64130718664E+02 -0.96165076523E+02  0.22707464175E+03  0.00000000000E+00 0. -1.
         -1    1    3    3    0  502 -0.21003824658E+03  0.45151737142E+02 -0.20866940222E+03  0.29949568246E+03  0.00000000000E+00 0.  1.
         13    1    5    5    0    0 -0.11840723659E+02  0.84775020142E+01 -0.65796520704E+02  0.67388818909E+02  0.00000000000E+00 0. -1.
        -13    1    5    5    0    0  0.12551689700E+03  0.15225877489E+02 -0.29505418220E+03  0.32100356573E+03  0.00000000000E+00 0.  1.
          1    1    6    6  503    0  0.18997589266E+03 -0.40871293195E+02  0.76956106659E+02  0.20900608783E+03  0.00000000000E+00 0. -1.
         -1    1    6    6    0  503  0.10184057911E+03 -0.92114542114E+02  0.85082639563E+02  0.16154147448E+03  0.00000000000E+00 0.  1.
<mgrwt>
<rscale>  0 0.44659236E+03</rscale>
<asrwt>0</asrwt>
<pdfrwt beam="1">  1        2 0.60143373E-01 0.44659236E+03</pdfrwt>
<pdfrwt beam="2">  1       -2 0.13762744E+00 0.44659236E+03</pdfrwt>
<totfact> 0.31886495E+01</totfact>
</mgrwt>
</event>
<event>
12    1  0.1338445E-007  0.7187230E+03  0.7818608E-02  0.9685739E-01
          2   -1    0    0  501    0  0.00000000000E+00  0.00000000000E+00  0.19010344321E+04  0.19010344321E+04  0.00000000000E+00 0. -1.
         -2   -1    0    0    0  501 -0.00000000000E+00 -0.00000000000E+00 -0.51953662426E+03  0.51953662426E+03  0.00000000000E+00 0.  1.
         23    2    1    2    0    0 -0.31195934476E+03 -0.50486107377E+03  0.14542735764E+04  0.15732738164E+04  0.89863951576E+02 0.  0.
    5000000    2    1    2    0    0  0.31195934476E+03  0.50486107377E+03 -0.72775768543E+02  0.84729723996E+03  0.60034403784E+03 0.  0.
         23    2    4    4    0    0  0.23197559603E+03 -0.67953586025E+02 -0.77719600099E+01  0.25829699432E+03  0.90700423961E+02 0.  0.
         23    2    4    4    0    0  0.79983748731E+02  0.57281465979E+03 -0.65003808533E+02  0.58900024564E+03  0.90453080149E+02 0.  0.
          1    1    3    3  502    0 -0.17844947484E+03 -0.20770030721E+03  0.62849785427E+03  0.68556049004E+03  0.00000000000E+00 0. -1.
         -1    1    3    3    0  502 -0.13350986992E+03 -0.29716076656E+03  0.82577572216E+03  0.88771332639E+03  0.00000000000E+00 0.  1.
         13    1    5    5    0    0  0.47329954854E+02 -0.49952163131E+02 -0.21963538381E+02  0.72233927252E+02  0.00000000000E+00 0. -1.
        -13    1    5    5    0    0  0.18464564117E+03 -0.18001422894E+02  0.14191578372E+02  0.18606306707E+03  0.00000000000E+00 0.  1.
          3    1    6    6  503    0  0.88453286029E+02  0.36674820586E+03 -0.19306478449E+02  0.37775781980E+03  0.00000000000E+00 0.  1.
         -3    1    6    6    0  503 -0.84695372983E+01  0.20606645393E+03 -0.45697330084E+02  0.21124242584E+03  0.00000000000E+00 0. -1.
<mgrwt>
<rscale>  0 0.71872297E+03</rscale>
<asrwt>0</asrwt>
<pdfrwt beam="1">  1        2 0.29246683E+00 0.71872297E+03</pdfrwt>
<pdfrwt beam="2">  1       -2 0.79928712E-01 0.71872297E+03</pdfrwt>
<totfact> 0.10900509E+01</totfact>
</mgrwt>
</event>
<event>
12    1  0.1338445E-007  0.7137424E+03  0.7818608E-02  0.9694015E-01
         -1   -1    0    0    0  501 -0.00000000000E+00  0.00000000000E+00  0.54233401909E+03  0.54233401909E+03  0.00000000000E+00 0.  1.
          1   -1    0    0  501    0  0.00000000000E+00 -0.00000000000E+00 -0.13004961887E+04  0.13004961887E+04  0.00000000000E+00 0. -1.
         23    2    1    2    0    0 -0.34280004085E+03 -0.55359155357E+03  0.29581332350E+02  0.65796891871E+03  0.89847462765E+02 0.  0.
    5000000    2    1    2    0    0  0.34280004085E+03  0.55359155357E+03 -0.78774350197E+03  0.11848612891E+04  0.59948392249E+03 0.  0.
         23    2    4    4    0    0 -0.71226445420E+02  0.17922508222E+03  0.74443855127E+00  0.21460106059E+03  0.94118140620E+02 0.  0.
         23    2    4    4    0    0  0.41402648627E+03  0.37436647136E+03 -0.78848794052E+03  0.97026022852E+03  0.90130419305E+02 0.  0.
          4    1    3    3  502    0 -0.19689149450E+03 -0.35777241699E+03  0.56607470462E+02  0.41227632563E+03  0.00000000000E+00 0. -1.
         -4    1    3    3    0  502 -0.14590854634E+03 -0.19581913658E+03 -0.27026138111E+02  0.24569259307E+03  0.00000000000E+00 0.  1.
         13    1    5    5    0    0 -0.85429118239E+02  0.10367013813E+03 -0.17826234224E+02  0.13551164677E+03  0.00000000000E+00 0. -1.
        -13    1    5    5    0    0  0.14202672819E+02  0.75554944085E+02  0.18570672775E+02  0.79089413819E+02  0.00000000000E+00 0.  1.
          1    1    6    6  503    0  0.26872368195E+03  0.19073273602E+03 -0.42333671943E+03  0.53647494988E+03  0.00000000000E+00 0. -1.
         -1    1    6    6    0  503  0.14530280431E+03  0.18363373534E+03 -0.36515122109E+03  0.43378527864E+03  0.00000000000E+00 0.  1.
<mgrwt>
<rscale>  0 0.71374237E+03</rscale>
<asrwt>0</asrwt>
<pdfrwt beam="1">  1        1 0.20007634E+00 0.71374237E+03</pdfrwt>
<pdfrwt beam="2">  1       -1 0.83436003E-01 0.71374237E+03</pdfrwt>
<totfact> 0.13393230E+01</totfact>
</mgrwt>
</event>
<event>
12    1  0.1338445E-007  0.5502647E+03  0.7818608E-02  0.1001433E+00
         -1   -1    0    0    0  501 -0.00000000000E+00  0.00000000000E+00  0.91349847521E+03  0.91349847521E+03  0.00000000000E+00 0. -1.
          1   -1    0    0  501    0  0.00000000000E+00 -0.00000000000E+00 -0.11680227078E+04  0.11680227078E+04  0.00000000000E+00 0.  1.
         23    2    1    2    0    0  0.42705781777E+03  0.31780017442E+03 -0.89987635490E+03  0.10521709581E+04  0.11794464975E+03 0.  0.
    5000000    2    1    2    0    0 -0.42705781777E+03 -0.31780017442E+03  0.64535212232E+03  0.10293502249E+04  0.59975594462E+03 0.  0.
         23    2    4    4    0    0 -0.35578730146E+03 -0.23751524560E+03  0.73965105754E+03  0.85958869508E+03  0.93866618154E+02 0.  0.
         23    2    4    4    0    0 -0.71270516304E+02 -0.80284928821E+02 -0.94298935222E+02  0.16976152981E+03  0.91659868691E+02 0.  0.
          3    1    3    3  502    0  0.32602017828E+03  0.20557535584E+03 -0.55521146890E+03  0.67587732524E+03  0.00000000000E+00 0. -1.
         -3    1    3    3    0  502  0.10103763949E+03  0.11222481858E+03 -0.34466488600E+03  0.37629363287E+03  0.00000000000E+00 0.  1.
         13    1    5    5    0    0 -0.13665479266E+03 -0.97656636359E+02  0.38336640022E+03  0.41854647030E+03  0.00000000000E+00 0. -1.
        -13    1    5    5    0    0 -0.21913250880E+03 -0.13985860924E+03  0.35628465732E+03  0.44104222478E+03  0.00000000000E+00 0.  1.
          1    1    6    6  503    0 -0.48890211230E+02  0.39219842965E+01 -0.13350979788E+02  0.50831912970E+02  0.00000000000E+00 0. -1.
         -1    1    6    6    0  503 -0.22380305074E+02 -0.84206913117E+02 -0.80947955434E+02  0.11892961684E+03  0.00000000000E+00 0.  1.
<mgrwt>
<rscale>  0 0.55026472E+03</rscale>
<asrwt>0</asrwt>
<pdfrwt beam="1">  1        1 0.17969580E+00 0.55026472E+03</pdfrwt>
<pdfrwt beam="2">  1       -1 0.14053823E+00 0.55026472E+03</pdfrwt>
<totfact> 0.50453375E+00</totfact>
</mgrwt>
</event>
<event>
12    1  0.1338445E-007  0.1563477E+04  0.7818608E-02  0.8843305E-01
         -1   -1    0    0    0  501 -0.00000000000E+00  0.00000000000E+00  0.21029285705E+04  0.21029285705E+04  0.00000000000E+00 0.  1.
          1   -1    0    0  501    0  0.00000000000E+00 -0.00000000000E+00 -0.12308815879E+04  0.12308815879E+04  0.00000000000E+00 0. -1.
         23    2    1    2    0    0 -0.11786524990E+04 -0.98395540545E+03  0.18930749055E+03  0.15498776241E+04  0.94304669137E+02 0.  0.
    5000000    2    1    2    0    0  0.11786524990E+04  0.98395540545E+03  0.68273949204E+03  0.17839325343E+04  0.59907605502E+03 0.  0.
         23    2    4    4    0    0  0.11187875887E+04  0.75678395433E+03  0.41622676964E+03  0.14165393493E+04  0.94505989413E+02 0.  0.
         23    2    4    4    0    0  0.59864910246E+02  0.22717145112E+03  0.26651272240E+03  0.36739318503E+03  0.93584429952E+02 0.  0.
          1    1    3    3  502    0 -0.64099180784E+03 -0.58035265825E+03  0.74906075800E+02  0.86792316817E+03  0.00000000000E+00 0. -1.
         -1    1    3    3    0  502 -0.53766069111E+03 -0.40360274720E+03  0.11440141475E+03  0.68195445596E+03  0.00000000000E+00 0.  1.
         11    1    5    5    0    0  0.70937246774E+03  0.53282703977E+03  0.26279627575E+03  0.92529770066E+03  0.00000000000E+00 0.  1.
        -11    1    5    5    0    0  0.40941512096E+03  0.22395691456E+03  0.15343049390E+03  0.49124164859E+03  0.00000000000E+00 0. -1.
          2    1    6    6  503    0  0.45441459171E+02  0.12639008440E+03  0.21446875765E+03  0.25305380387E+03  0.00000000000E+00 0. -1.
         -2    1    6    6    0  503  0.14423451074E+02  0.10078136671E+03  0.52043964747E+02  0.11433938116E+03  0.00000000000E+00 0.  1.
<mgrwt>
<rscale>  0 0.15634774E+04</rscale>
<asrwt>0</asrwt>
<pdfrwt beam="1">  1        1 0.18936640E+00 0.15634774E+04</pdfrwt>
<pdfrwt beam="2">  1       -1 0.32352747E+00 0.15634774E+04</pdfrwt>
<totfact> 0.22180986E-01</totfact>
</mgrwt>
</event>
<event>
12    1  0.1338445E-007  0.1346982E+04  0.7818608E-02  0.8993116E-01
          2   -1    0    0  501    0  0.00000000000E+00  0.00000000000E+00  0.49220409741E+04  0.49220409741E+04  0.00000000000E+00 0. -1.
         -2   -1    0    0    0  501 -0.00000000000E+00 -0.00000000000E+00 -0.59320181903E+03  0.59320181903E+03  0.00000000000E+00 0.  1.
         23    2    1    2    0    0  0.13203100430E+04  0.21996902458E+03  0.52923758544E+03  0.14423264740E+04  0.92780678250E+02 0.  0.
    5000000    2    1    2    0    0 -0.13203100430E+04 -0.21996902458E+03  0.37996015696E+04  0.40729163191E+04  0.60005855802E+03 0.  0.
         23    2    4    4    0    0 -0.11565076749E+04 -0.22175594801E+03  0.36423111455E+04  0.38290024857E+04  0.90243296128E+02 0.  0.
         23    2    4    4    0    0 -0.16380236813E+03  0.17869234358E+01  0.15729042411E+03  0.24391383337E+03  0.88990289862E+02 0.  0.
          4    1    3    3  502    0  0.50631026585E+03  0.50111632571E+02  0.23303606198E+03  0.55961331936E+03  0.00000000000E+00 0. -1.
         -4    1    3    3    0  502  0.81399977719E+03  0.16985739201E+03  0.29620152345E+03  0.88271315464E+03  0.00000000000E+00 0.  1.
         13    1    5    5    0    0 -0.92226587680E+03 -0.21100979648E+03  0.28761612901E+04  0.30277719942E+04  0.00000000000E+00 0. -1.
        -13    1    5    5    0    0 -0.23424179810E+03 -0.10746151528E+02  0.76614985534E+03  0.80123049155E+03  0.00000000000E+00 0.  1.
          2    1    6    6  503    0 -0.96778460320E+02 -0.26457043596E+02  0.13429344948E+03  0.16763286107E+03  0.00000000000E+00 0. -1.
         -2    1    6    6    0  503 -0.67023907814E+02  0.28243967032E+02  0.22996974632E+02  0.76280972297E+02  0.00000000000E+00 0.  1.
<mgrwt>
<rscale>  0 0.13469819E+04</rscale>
<asrwt>0</asrwt>
<pdfrwt beam="1">  1        2 0.75723705E+00 0.13469819E+04</pdfrwt>
<pdfrwt beam="2">  1       -2 0.91261821E-01 0.13469819E+04</pdfrwt>
<totfact> 0.44753240E-02</totfact>
</mgrwt>
</event>
<event>
12    1  0.1338445E-007  0.4711449E+03  0.7818608E-02  0.1021598E+00
         -1   -1    0    0    0  501 -0.00000000000E+00  0.00000000000E+00  0.44376501289E+03  0.44376501289E+03  0.00000000000E+00 0.  1.
          1   -1    0    0  501    0  0.00000000000E+00 -0.00000000000E+00 -0.53754737273E+03  0.53754737273E+03  0.00000000000E+00 0. -1.
         23    2    1    2    0    0  0.29206696571E+03 -0.56137768792E+01 -0.68005101442E+02  0.31343185918E+03  0.90995656921E+02 0.  0.
    5000000    2    1    2    0    0 -0.29206696571E+03  0.56137768792E+01 -0.25777258402E+02  0.66788052644E+03  0.60005441719E+03 0.  0.
         23    2    4    4    0    0  0.10864407068E+03 -0.15888458616E+03 -0.61590493785E+02  0.22347564091E+03  0.95394587596E+02 0.  0.
         23    2    4    4    0    0 -0.40071103639E+03  0.16449836304E+03  0.35813235383E+02  0.44440488553E+03  0.92650247327E+02 0.  0.
          1    1    3    3  502    0  0.15682633750E+03 -0.41428029995E+02 -0.61189235401E+02  0.17336350346E+03  0.00000000000E+00 0. -1.
         -1    1    3    3    0  502  0.13524062822E+03  0.35814253116E+02 -0.68158660409E+01  0.14006835573E+03  0.00000000000E+00 0.  1.
         13    1    5    5    0    0  0.76809304083E+02 -0.67385588956E+02  0.10500855438E+02  0.10271686696E+03  0.00000000000E+00 0. -1.
        -13    1    5    5    0    0  0.31834766593E+02 -0.91498997203E+02 -0.72091349223E+02  0.12075877395E+03  0.00000000000E+00 0.  1.
          1    1    6    6  503    0 -0.31689970605E+03  0.16506191758E+03  0.13020590008E+02  0.35754775358E+03  0.00000000000E+00 0. -1.
         -1    1    6    6    0  503 -0.83811330339E+02 -0.56355453988E+00  0.22792645375E+02  0.86857131947E+02  0.00000000000E+00 0.  1.
<mgrwt>
<rscale>  0 0.47114491E+03</rscale>
<asrwt>0</asrwt>
<pdfrwt beam="1">  1        1 0.82699596E-01 0.47114491E+03</pdfrwt>
<pdfrwt beam="2">  1       -1 0.68271540E-01 0.47114491E+03</pdfrwt>
<totfact> 0.90831967E+01</totfact>
</mgrwt>
</event>
<event>
12    1  0.1338445E-007  0.1010403E+04  0.7818608E-02  0.9297208E-01
         -2   -1    0    0    0  501 -0.00000000000E+00  0.00000000000E+00  0.61726821512E+03  0.61726821512E+03  0.00000000000E+00 0.  1.
          2   -1    0    0  501    0  0.00000000000E+00 -0.00000000000E+00 -0.18823711006E+04  0.18823711006E+04  0.00000000000E+00 0. -1.
         23    2    1    2    0    0 -0.60189391810E+03 -0.75636263296E+03 -0.32474105310E+03  0.10236286380E+04  0.89432185812E+02 0.  0.
    5000000    2    1    2    0    0  0.60189391810E+03  0.75636263296E+03 -0.94036183233E+03  0.14760106776E+04  0.59997201903E+03 0.  0.
         23    2    4    4    0    0  0.17471128865E+03 -0.62776747222E+01 -0.39412257495E+03  0.44118207828E+03  0.93517797905E+02 0.  0.
         23    2    4    4    0    0  0.42718262945E+03  0.76264030768E+03 -0.54623925738E+03  0.10348285994E+04  0.91584201406E+02 0.  0.
          4    1    3    3  502    0 -0.42067076587E+03 -0.46798558120E+03 -0.23158148564E+03  0.67052545214E+03  0.00000000000E+00 0.  1.
         -4    1    3    3    0  502 -0.18122315223E+03 -0.28837705176E+03 -0.93159567460E+02  0.35310318590E+03  0.00000000000E+00 0. -1.
         11    1    5    5    0    0  0.10436179181E+03 -0.16711213651E+02 -0.32598354525E+03  0.34268924702E+03  0.00000000000E+00 0. -1.
        -11    1    5    5    0    0  0.70349496837E+02  0.10433538929E+02 -0.68139029705E+02  0.98492831256E+02  0.00000000000E+00 0.  1.
          3    1    6    6  503    0  0.35282376976E+03  0.63275759192E+03 -0.41001758418E+03  0.83245492489E+03  0.00000000000E+00 0. -1.
         -3    1    6    6    0  503  0.74358859692E+02  0.12988271576E+03 -0.13622167321E+03  0.20237367447E+03  0.00000000000E+00 0.  1.
<mgrwt>
<rscale>  0 0.10104033E+04</rscale>
<asrwt>0</asrwt>
<pdfrwt beam="1">  1        2 0.28959555E+00 0.10104033E+04</pdfrwt>
<pdfrwt beam="2">  1       -2 0.94964342E-01 0.10104033E+04</pdfrwt>
<totfact> 0.72322116E+00</totfact>
</mgrwt>
</event>
<event>
12    1  0.1338445E-007  0.3438395E+03  0.7818608E-02  0.1065172E+00
         -1   -1    0    0    0  501 -0.00000000000E+00  0.00000000000E+00  0.10819260129E+03  0.10819260129E+03  0.00000000000E+00 0.  1.
          1   -1    0    0  501    0  0.00000000000E+00 -0.00000000000E+00 -0.20198286120E+04  0.20198286120E+04  0.00000000000E+00 0. -1.
         23    2    1    2    0    0 -0.11539494897E+03  0.19031645442E+03 -0.24766468578E+03  0.34524557442E+03  0.91216023843E+02 0.  0.
    5000000    2    1    2    0    0  0.11539494897E+03 -0.19031645442E+03 -0.16639713249E+04  0.17827756388E+04  0.59996004973E+03 0.  0.
         23    2    4    4    0    0  0.17344882015E+03  0.66345156016E+02 -0.13388691376E+04  0.13547764367E+04  0.91446447936E+02 0.  0.
         23    2    4    4    0    0 -0.58053871179E+02 -0.25666161043E+03 -0.32510218727E+03  0.42799920213E+03  0.90809969842E+02 0.  0.
          2    1    3    3  502    0 -0.61090117888E+02  0.11487196349E+03 -0.20538291613E+03  0.24312489123E+03  0.00000000000E+00 0. -1.
         -2    1    3    3    0  502 -0.54304831079E+02  0.75444490929E+02 -0.42281769652E+02  0.10212068319E+03  0.00000000000E+00 0.  1.
         11    1    5    5    0    0  0.10623206652E+03  0.27715953947E+02 -0.47906346472E+03  0.49148268463E+03  0.00000000000E+00 0. -1.
        -11    1    5    5    0    0  0.67216753623E+02  0.38629202070E+02 -0.85980567290E+03  0.86329375207E+03  0.00000000000E+00 0.  1.
          2    1    6    6  503    0 -0.73441829066E+02 -0.12680615352E+03 -0.19045245862E+03  0.24030322890E+03  0.00000000000E+00 0. -1.
         -2    1    6    6    0  503  0.15387957887E+02 -0.12985545691E+03 -0.13464972865E+03  0.18769597322E+03  0.00000000000E+00 0.  1.
<mgrwt>
<rscale>  0 0.34383953E+03</rscale>
<asrwt>0</asrwt>
<pdfrwt beam="1">  1        1 0.31074284E+00 0.34383953E+03</pdfrwt>
<pdfrwt beam="2">  1       -1 0.16645017E-01 0.34383953E+03</pdfrwt>
<totfact> 0.87896404E+01</totfact>
</mgrwt>
</event>
<event>
12    1  0.1338445E-007  0.8536379E+03  0.7818608E-02  0.9485467E-01
         -2   -1    0    0    0  501 -0.00000000000E+00  0.00000000000E+00  0.21727248799E+04  0.21727248799E+04  0.00000000000E+00 0.  1.
          2   -1    0    0  501    0  0.00000000000E+00 -0.00000000000E+00 -0.50190106600E+03  0.50190106600E+03  0.00000000000E+00 0. -1.
         23    2    1    2    0    0 -0.83415686986E+03 -0.85912524377E+02  0.13550530982E+04  0.15963392256E+04  0.94505971525E+02 0.  0.
    5000000    2    1    2    0    0  0.83415686986E+03  0.85912524377E+02  0.31577071571E+03  0.10782867204E+04  0.59982702595E+03 0.  0.
         23    2    4    4    0    0  0.11361824368E+03 -0.35484232282E+02 -0.14645190289E+03  0.20832929850E+03  0.88230951002E+02 0.  0.
         23    2    4    4    0    0  0.72053862618E+03  0.12139675666E+03  0.46222261860E+03  0.86995742188E+03  0.96244908406E+02 0.  0.
          3    1    3    3  502    0 -0.23216943627E+03  0.99998312051E+01  0.32732351069E+03  0.40142661149E+03  0.00000000000E+00 0. -1.
         -3    1    3    3    0  502 -0.60198743359E+03 -0.95912355582E+02  0.10277295876E+04  0.11949126141E+04  0.00000000000E+00 0.  1.
         11    1    5    5    0    0  0.20426964443E+01  0.11184022833E+02 -0.56423428622E+02  0.57557434559E+02  0.00000000000E+00 0.  1.
        -11    1    5    5    0    0  0.11157554724E+03 -0.46668255115E+02 -0.90028474266E+02  0.15077186394E+03  0.00000000000E+00 0. -1.
          1    1    6    6  503    0  0.45108273962E+03  0.47389324352E+02  0.24141397937E+03  0.51381134231E+03  0.00000000000E+00 0. -1.
         -1    1    6    6    0  503  0.26945588656E+03  0.74007432307E+02  0.22080863923E+03  0.35614607957E+03  0.00000000000E+00 0.  1.
<mgrwt>
<rscale>  0 0.85363789E+03</rscale>
<asrwt>0</asrwt>
<pdfrwt beam="1">  1        2 0.77215550E-01 0.85363789E+03</pdfrwt>
<pdfrwt beam="2">  1       -2 0.33426536E+00 0.85363789E+03</pdfrwt>
<totfact> 0.12365772E+00</totfact>
</mgrwt>
</event>
<event>
12    1  0.1338445E-007  0.8120279E+03  0.7818608E-02  0.9542769E-01
          2   -1    0    0  501    0  0.00000000000E+00  0.00000000000E+00  0.65384045062E+03  0.65384045062E+03  0.00000000000E+00 0. -1.
         -2   -1    0    0    0  501 -0.00000000000E+00 -0.00000000000E+00 -0.11114530775E+04  0.11114530775E+04  0.00000000000E+00 0.  1.
         23    2    1    2    0    0  0.43425078420E+03  0.58062935069E+03 -0.37284490083E+03  0.82040880619E+03  0.91395310213E+02 0.  0.
    5000000    2    1    2    0    0 -0.43425078420E+03 -0.58062935069E+03 -0.84767726059E+02  0.94488472195E+03  0.59993114932E+03 0.  0.
         23    2    4    4    0    0 -0.14664575023E+03  0.81545679765E+02 -0.10679597527E+03  0.21678821146E+03  0.86238473690E+02 0.  0.
         23    2    4    4    0    0 -0.28760503398E+03 -0.66217503046E+03  0.22028249208E+02  0.72809651049E+03  0.91906791377E+02 0.  0.
          2    1    3    3  502    0  0.12422558256E+03  0.22666436732E+03 -0.10507912447E+03  0.27901676146E+03  0.00000000000E+00 0. -1.
         -2    1    3    3    0  502  0.31002520165E+03  0.35396498337E+03 -0.26776577636E+03  0.54139204473E+03  0.00000000000E+00 0.  1.
         13    1    5    5    0    0 -0.12115472750E+03  0.46996881635E+02 -0.37471995990E+02  0.13524542640E+03  0.00000000000E+00 0. -1.
        -13    1    5    5    0    0 -0.25491022733E+02  0.34548798130E+02 -0.69323979278E+02  0.81542785059E+02  0.00000000000E+00 0.  1.
          2    1    6    6  503    0 -0.87897499924E+02 -0.18224031467E+03 -0.34333878601E+02  0.20522260598E+03  0.00000000000E+00 0. -1.
         -2    1    6    6    0  503 -0.19970753405E+03 -0.47993471578E+03  0.56362127809E+02  0.52287390451E+03  0.00000000000E+00 0.  1.
<mgrwt>
<rscale>  0 0.81202793E+03</rscale>
<asrwt>0</asrwt>
<pdfrwt beam="1">  1        2 0.10059084E+00 0.81202793E+03</pdfrwt>
<pdfrwt beam="2">  1       -2 0.17099278E+00 0.81202793E+03</pdfrwt>
<totfact> 0.94542181E+00</totfact>
</mgrwt>
</event>
<event>
12    1  0.1338445E-007  0.3384626E+03  0.7818608E-02  0.1067453E+00
          2   -1    0    0  501    0  0.00000000000E+00  0.00000000000E+00  0.67104759535E+03  0.67104759535E+03  0.00000000000E+00 0. -1.
         -2   -1    0    0    0  501 -0.00000000000E+00 -0.00000000000E+00 -0.26667579225E+03  0.26667579225E+03  0.00000000000E+00 0.  1.
         23    2    1    2    0    0 -0.10713878238E+03 -0.15374614687E+03  0.16013755435E+03  0.26337705147E+03  0.92773048688E+02 0.  0.
    5000000    2    1    2    0    0  0.10713878238E+03  0.15374614687E+03  0.24423424875E+03  0.67434633612E+03  0.59998001335E+03 0.  0.
         23    2    4    4    0    0 -0.16727877548E+03  0.60920322139E+02 -0.92613252229E+02  0.22072084861E+03  0.91907584829E+02 0.  0.
         23    2    4    4    0    0  0.27441755786E+03  0.92825824732E+02  0.33684750098E+03  0.45362548751E+03  0.91587194567E+02 0.  0.
          4    1    3    3  502    0 -0.72791753090E+02 -0.67364007990E+02  0.30324550904E+02  0.10371175092E+03  0.00000000000E+00 0. -1.
         -4    1    3    3    0  502 -0.34347029285E+02 -0.86382138880E+02  0.12981300345E+03  0.15966530056E+03  0.00000000000E+00 0.  1.
         11    1    5    5    0    0 -0.10226702198E+03  0.69101996561E+02 -0.23794610900E+02  0.12569730793E+03  0.00000000000E+00 0.  1.
        -11    1    5    5    0    0 -0.65011753497E+02 -0.81816744221E+01 -0.68818641329E+02  0.95023540680E+02  0.00000000000E+00 0. -1.
          1    1    6    6  503    0  0.43378279617E+02  0.39622795454E+02  0.30331560083E+02  0.66118413465E+02  0.00000000000E+00 0. -1.
         -1    1    6    6    0  503  0.23103927824E+03  0.53203029278E+02  0.30651594089E+03  0.38750707405E+03  0.00000000000E+00 0.  1.
<mgrwt>
<rscale>  0 0.33846262E+03</rscale>
<asrwt>0</asrwt>
<pdfrwt beam="1">  1        2 0.10323809E+00 0.33846262E+03</pdfrwt>
<pdfrwt beam="2">  1       -2 0.41027045E-01 0.33846262E+03</pdfrwt>
<totfact> 0.25120496E+02</totfact>
</mgrwt>
</event>
<event>
12    1  0.1338445E-007  0.2144205E+04  0.7818608E-02  0.8542017E-01
         -2   -1    0    0    0  501 -0.00000000000E+00  0.00000000000E+00  0.26243839170E+04  0.26243839170E+04  0.00000000000E+00 0.  1.
          2   -1    0    0  501    0  0.00000000000E+00 -0.00000000000E+00 -0.23495047595E+04  0.23495047595E+04  0.00000000000E+00 0. -1.
         23    2    1    2    0    0  0.65191513373E+03  0.20304670687E+04  0.13352824016E+04  0.25178101877E+04  0.92731822311E+02 0.  0.
    5000000    2    1    2    0    0 -0.65191513373E+03 -0.20304670687E+04 -0.10604032441E+04  0.24560784888E+04  0.60006386708E+03 0.  0.
         23    2    4    4    0    0 -0.29895064620E+02 -0.32716992495E+03  0.23757815784E+02  0.34148108626E+03  0.90061222418E+02 0.  0.
         23    2    4    4    0    0 -0.62202006911E+03 -0.17032971437E+04 -0.10841610599E+04  0.21145974025E+04  0.89369149797E+02 0.  0.
          1    1    3    3  502    0  0.44586470928E+03  0.14104873031E+04  0.87592792577E+03  0.17191624421E+04  0.00000000000E+00 0. -1.
         -1    1    3    3    0  502  0.20605042445E+03  0.61997976558E+03  0.45935447582E+03  0.79864774563E+03  0.00000000000E+00 0.  1.
         11    1    5    5    0    0 -0.24564707779E+02 -0.16500892107E+02  0.64345806346E+01  0.30283793298E+02  0.00000000000E+00 0.  1.
        -11    1    5    5    0    0 -0.53303568406E+01 -0.31066903285E+03  0.17323235149E+02  0.31119729297E+03  0.00000000000E+00 0. -1.
          4    1    6    6  503    0 -0.52237260721E+03 -0.15138950847E+04 -0.95964290783E+03  0.18669938347E+04  0.00000000000E+00 0. -1.
         -4    1    6    6    0  503 -0.99647461896E+02 -0.18940205898E+03 -0.12451815203E+03  0.24760356781E+03  0.00000000000E+00 0.  1.
<mgrwt>
<rscale>  0 0.21442054E+04</rscale>
<asrwt>0</asrwt>
<pdfrwt beam="1">  1        2 0.36146227E+00 0.21442054E+04</pdfrwt>
<pdfrwt beam="2">  1       -2 0.40375137E+00 0.21442054E+04</pdfrwt>
<totfact> 0.25911024E-02</totfact>
</mgrwt>
</event>
<event>
12    1  0.1338445E-007  0.5172830E+03  0.7818608E-02  0.1009364E+00
          1   -1    0    0  501    0  0.00000000000E+00  0.00000000000E+00  0.10907355735E+04  0.10907355735E+04  0.00000000000E+00 0. -1.
         -1   -1    0    0    0  501 -0.00000000000E+00 -0.00000000000E+00 -0.27011135887E+03  0.27011135887E+03  0.00000000000E+00 0.  1.
         23    2    1    2    0    0 -0.33932340401E+03  0.20897479557E+02  0.10559706728E+03  0.36747590203E+03  0.91163154840E+02 0.  0.
    5000000    2    1    2    0    0  0.33932340401E+03 -0.20897479557E+02  0.71502714735E+03  0.99337103034E+03  0.59995425267E+03 0.  0.
         23    2    4    4    0    0 -0.10192459599E+03 -0.16727890855E+03  0.21160219876E+03  0.30208104881E+03  0.90036731469E+02 0.  0.
         23    2    4    4    0    0  0.44124800000E+03  0.14638142899E+03  0.50342494859E+03  0.69128998153E+03  0.91202189881E+02 0.  0.
          3    1    3    3  502    0 -0.49674030463E+02 -0.20516700433E+02  0.41601282226E+02  0.67964041830E+02  0.00000000000E+00 0. -1.
         -3    1    3    3    0  502 -0.28964937354E+03  0.41414179990E+02  0.63995785049E+02  0.29951186020E+03  0.00000000000E+00 0.  1.
         13    1    5    5    0    0 -0.87717613968E+02 -0.59405054203E+02  0.91075771404E+02  0.13970732408E+03  0.00000000000E+00 0.  1.
        -13    1    5    5    0    0 -0.14206982027E+02 -0.10787385435E+03  0.12052642736E+03  0.16237372473E+03  0.00000000000E+00 0. -1.
          1    1    6    6  503    0  0.19102065818E+03  0.16977870383E+02  0.21552837426E+03  0.28849544198E+03  0.00000000000E+00 0. -1.
         -1    1    6    6    0  503  0.25022734183E+03  0.12940355861E+03  0.28789657433E+03  0.40279453955E+03  0.00000000000E+00 0.  1.
<mgrwt>
<rscale>  0 0.51728298E+03</rscale>
<asrwt>0</asrwt>
<pdfrwt beam="1">  1        1 0.16780547E+00 0.51728298E+03</pdfrwt>
<pdfrwt beam="2">  1       -1 0.41555594E-01 0.51728298E+03</pdfrwt>
<totfact> 0.76660002E+01</totfact>
</mgrwt>
</event>
<event>
12    1  0.1338445E-007  0.1062714E+04  0.7818608E-02  0.9242316E-01
         -2   -1    0    0    0  501 -0.00000000000E+00  0.00000000000E+00  0.86416068621E+03  0.86416068621E+03  0.00000000000E+00 0. -1.
          2   -1    0    0  501    0  0.00000000000E+00 -0.00000000000E+00 -0.13907028168E+04  0.13907028168E+04  0.00000000000E+00 0.  1.
         23    2    1    2    0    0 -0.79486242654E+03  0.58187607525E+03 -0.58093067571E+01  0.98934480814E+03  0.91560675421E+02 0.  0.
    5000000    2    1    2    0    0  0.79486242654E+03 -0.58187607525E+03 -0.52073282386E+03  0.12655186949E+04  0.59999070759E+03 0.  0.
         23    2    4    4    0    0  0.82729252736E+03 -0.35222338116E+03 -0.42944598149E+03  0.10005706175E+04  0.90793576734E+02 0.  0.
         23    2    4    4    0    0 -0.32430100819E+02 -0.22965269410E+03 -0.91286842371E+02  0.26494807737E+03  0.89845004127E+02 0.  0.
          4    1    3    3  502    0 -0.38186453017E+03  0.25863363406E+03  0.39738362270E+02  0.46291577366E+03  0.00000000000E+00 0. -1.
         -4    1    3    3    0  502 -0.41299789637E+03  0.32324244119E+03 -0.45547669027E+02  0.52642903448E+03  0.00000000000E+00 0.  1.
         13    1    5    5    0    0  0.68083644432E+03 -0.28060896059E+03 -0.38798559630E+03  0.83235357608E+03  0.00000000000E+00 0. -1.
        -13    1    5    5    0    0  0.14645608304E+03 -0.71614420565E+02 -0.41460385195E+02  0.16821704144E+03  0.00000000000E+00 0.  1.
          3    1    6    6  503    0 -0.48910346734E+02 -0.12207321327E+03 -0.15701263434E+02  0.13244100984E+03  0.00000000000E+00 0. -1.
         -3    1    6    6    0  503  0.16480245915E+02 -0.10757948083E+03 -0.75585578937E+02  0.13250706753E+03  0.00000000000E+00 0.  1.
<mgrwt>
<rscale>  0 0.10627137E+04</rscale>
<asrwt>0</asrwt>
<pdfrwt beam="1">  1        2 0.21395428E+00 0.10627137E+04</pdfrwt>
<pdfrwt beam="2">  1       -2 0.13294780E+00 0.10627137E+04</pdfrwt>
<totfact> 0.59274152E+00</totfact>
</mgrwt>
</event>
<event>
12    1  0.1338445E-007  0.9616197E+03  0.7818608E-02  0.9351671E-01
         -2   -1    0    0    0  501 -0.00000000000E+00  0.00000000000E+00  0.17836328481E+04  0.17836328481E+04  0.00000000000E+00 0.  1.
          2   -1    0    0  501    0  0.00000000000E+00 -0.00000000000E+00 -0.64280478277E+03  0.64280478277E+03  0.00000000000E+00 0. -1.
         23    2    1    2    0    0 -0.90351152381E+03 -0.23390708862E+03  0.17465092716E+03  0.95534416222E+03  0.10551740216E+03 0.  0.
    5000000    2    1    2    0    0  0.90351152381E+03  0.23390708862E+03  0.96617713822E+03  0.14710934687E+04  0.59964333687E+03 0.  0.
         23    2    4    4    0    0  0.49411183515E+03  0.27951585382E+03  0.22353724921E+03  0.61695494428E+03  0.91590847310E+02 0.  0.
         23    2    4    4    0    0  0.40939968866E+03 -0.45608765200E+02  0.74263988901E+03  0.85413852442E+03  0.91380247348E+02 0.  0.
          3    1    3    3  502    0 -0.48167290168E+03 -0.14989294920E+03  0.46808257520E+02  0.50662381843E+03  0.00000000000E+00 0. -1.
         -3    1    3    3    0  502 -0.42183862213E+03 -0.84014139423E+02  0.12784266964E+03  0.44872034378E+03  0.00000000000E+00 0.  1.
         13    1    5    5    0    0  0.40135045433E+03  0.25577912570E+03  0.21020864821E+03  0.52028148546E+03  0.00000000000E+00 0.  1.
        -13    1    5    5    0    0  0.92761380827E+02  0.23736728120E+02  0.13328600991E+02  0.96673458815E+02  0.00000000000E+00 0. -1.
          2    1    6    6  503    0  0.18208519104E+03 -0.52699969133E+02  0.27334268140E+03  0.33263873048E+03  0.00000000000E+00 0. -1.
         -2    1    6    6    0  503  0.22731449762E+03  0.70912039325E+01  0.46929720761E+03  0.52149979394E+03  0.00000000000E+00 0.  1.
<mgrwt>
<rscale>  0 0.96161967E+03</rscale>
<asrwt>0</asrwt>
<pdfrwt beam="1">  1        2 0.98893044E-01 0.96161967E+03</pdfrwt>
<pdfrwt beam="2">  1       -2 0.27440505E+00 0.96161967E+03</pdfrwt>
<totfact> 0.20901372E+00</totfact>
</mgrwt>
</event>
<event>
12    1  0.1338445E-007  0.1829313E+04  0.7818608E-02  0.8690865E-01
         -2   -1    0    0    0  501 -0.00000000000E+00  0.00000000000E+00  0.32688253499E+04  0.32688253499E+04  0.00000000000E+00 0. -1.
          2   -1    0    0  501    0  0.00000000000E+00 -0.00000000000E+00 -0.10613391000E+04  0.10613391000E+04  0.00000000000E+00 0.  1.
         23    2    1    2    0    0 -0.11775702940E+04 -0.13522935657E+04  0.76356259925E+03  0.19510407866E+04  0.90347236346E+02 0.  0.
    5000000    2    1    2    0    0  0.11775702940E+04  0.13522935657E+04  0.14439236506E+04  0.23791236632E+04  0.59995350741E+03 0.  0.
         23    2    4    4    0    0  0.24790136329E+03  0.64840609757E+03  0.72067979197E+03  0.10038262662E+04  0.80014104080E+02 0.  0.
         23    2    4    4    0    0  0.92966893068E+03  0.70388746811E+03  0.72324385865E+03  0.13752973970E+04  0.92840523311E+02 0.  0.
          3    1    3    3  502    0 -0.15083324786E+03 -0.21895925668E+03  0.10100344293E+03  0.28442137794E+03  0.00000000000E+00 0. -1.
         -3    1    3    3    0  502 -0.10267370461E+04 -0.11333343090E+04  0.66255915633E+03  0.16666194087E+04  0.00000000000E+00 0.  1.
         11    1    5    5    0    0  0.11380219851E+02  0.91734120645E+02  0.11905037086E+03  0.15072375093E+03  0.00000000000E+00 0.  1.
        -11    1    5    5    0    0  0.23652114344E+03  0.55667197693E+03  0.60162942112E+03  0.85310251526E+03  0.00000000000E+00 0. -1.
          4    1    6    6  503    0  0.39305668657E+03  0.28683223088E+03  0.35500172058E+03  0.60232259557E+03  0.00000000000E+00 0. -1.
         -4    1    6    6    0  503  0.53661224411E+03  0.41705523723E+03  0.36824213807E+03  0.77297480146E+03  0.00000000000E+00 0.  1.
<mgrwt>
<rscale>  0 0.18293127E+04</rscale>
<asrwt>0</asrwt>
<pdfrwt beam="1">  1        2 0.16328294E+00 0.18293127E+04</pdfrwt>
<pdfrwt beam="2">  1       -2 0.50289620E+00 0.18293127E+04</pdfrwt>
<totfact> 0.33071724E-02</totfact>
</mgrwt>
</event>
<event>
12    1  0.1338445E-007  0.8719281E+03  0.7818608E-02  0.9461369E-01
         -1   -1    0    0    0  501 -0.00000000000E+00  0.00000000000E+00  0.33790898211E+03  0.33790898211E+03  0.00000000000E+00 0.  1.
          1   -1    0    0  501    0  0.00000000000E+00 -0.00000000000E+00 -0.23494932432E+04  0.23494932432E+04  0.00000000000E+00 0. -1.
         23    2    1    2    0    0  0.32281411013E+03 -0.71746910315E+03 -0.93005908364E+03  0.12215836813E+04  0.91027070814E+02 0.  0.
    5000000    2    1    2    0    0 -0.32281411013E+03  0.71746910315E+03 -0.10815251774E+04  0.14658185440E+04  0.59996369133E+03 0.  0.
         23    2    4    4    0    0 -0.22437006946E+03  0.79504109326E+03 -0.91169741698E+03  0.12330928231E+04  0.83026876206E+02 0.  0.
         23    2    4    4    0    0 -0.98444040664E+02 -0.77571990107E+02 -0.16982776045E+03  0.23272572094E+03  0.98036473700E+02 0.  0.
          4    1    3    3  502    0  0.12203299817E+03 -0.31128576847E+03 -0.46031511630E+03  0.56892959897E+03  0.00000000000E+00 0. -1.
         -4    1    3    3    0  502  0.20078111196E+03 -0.40618333468E+03 -0.46974396735E+03  0.65265408230E+03  0.00000000000E+00 0.  1.
         13    1    5    5    0    0 -0.77002627016E+02  0.26316919998E+03 -0.36210840281E+03  0.45421352663E+03  0.00000000000E+00 0.  1.
        -13    1    5    5    0    0 -0.14736744245E+03  0.53187189328E+03 -0.54958901417E+03  0.77887929646E+03  0.00000000000E+00 0. -1.
          2    1    6    6  503    0 -0.46904097848E+02 -0.59306028533E+02 -0.27843184116E+02  0.80575693091E+02  0.00000000000E+00 0. -1.
         -2    1    6    6    0  503 -0.51539942815E+02 -0.18265961574E+02 -0.14198457633E+03  0.15215002784E+03  0.00000000000E+00 0.  1.
<mgrwt>
<rscale>  0 0.87192812E+03</rscale>
<asrwt>0</asrwt>
<pdfrwt beam="1">  1        1 0.36146050E+00 0.87192812E+03</pdfrwt>
<pdfrwt beam="2">  1       -1 0.51985997E-01 0.87192812E+03</pdfrwt>
<totfact> 0.66291999E+00</totfact>
</mgrwt>
</event>
<event>
12    1  0.1338445E-007  0.1527107E+04  0.7818608E-02  0.8866624E-01
          2   -1    0    0  501    0  0.00000000000E+00  0.00000000000E+00  0.22947441257E+04  0.22947441257E+04  0.00000000000E+00 0. -1.
         -2   -1    0    0    0  501 -0.00000000000E+00 -0.00000000000E+00 -0.16606339120E+04  0.16606339120E+04  0.00000000000E+00 0.  1.
         23    2    1    2    0    0 -0.77029376442E+03 -0.12983195279E+04 -0.86716483684E+03  0.17433942680E+04  0.91992603996E+02 0.  0.
    5000000    2    1    2    0    0  0.77029376442E+03  0.12983195279E+04  0.15012750505E+04  0.22119837697E+04  0.60004944812E+03 0.  0.
         23    2    4    4    0    0  0.13541722478E+03  0.91721345489E+02  0.45107333441E+03  0.48868386706E+03  0.92704578782E+02 0.  0.
         23    2    4    4    0    0  0.63487653964E+03  0.12065981824E+04  0.10502017161E+04  0.17232999027E+04  0.88834202903E+02 0.  0.
          3    1    3    3  502    0 -0.15840159944E+03 -0.20487859526E+03 -0.13261433231E+03  0.29095165687E+03  0.00000000000E+00 0. -1.
         -3    1    3    3    0  502 -0.61189216498E+03 -0.10934409327E+04 -0.73455050453E+03  0.14524426111E+04  0.00000000000E+00 0.  1.
         13    1    5    5    0    0  0.86120439452E+02  0.94786484484E+02  0.38789705300E+03  0.40849153168E+03  0.00000000000E+00 0.  1.
        -13    1    5    5    0    0  0.49296785329E+02 -0.30651389946E+01  0.63176281412E+02  0.80192335381E+02  0.00000000000E+00 0. -1.
          4    1    6    6  503    0  0.12771670174E+03  0.19388676884E+03  0.14862045874E+03  0.27566587708E+03  0.00000000000E+00 0. -1.
         -4    1    6    6    0  503  0.50715983791E+03  0.10127114136E+04  0.90158125736E+03  0.14476340256E+04  0.00000000000E+00 0.  1.
<mgrwt>
<rscale>  0 0.15271072E+04</rscale>
<asrwt>0</asrwt>
<pdfrwt beam="1">  1        2 0.35303756E+00 0.15271072E+04</pdfrwt>
<pdfrwt beam="2">  1       -2 0.25548214E+00 0.15271072E+04</pdfrwt>
<totfact> 0.25361860E-01</totfact>
</mgrwt>
</event>
<event>
12    1  0.1338445E-007  0.9460868E+03  0.7818608E-02  0.9369736E-01
          1   -1    0    0  501    0  0.00000000000E+00  0.00000000000E+00  0.25005259349E+04  0.25005259349E+04  0.00000000000E+00 0. -1.
         -1   -1    0    0    0  501 -0.00000000000E+00 -0.00000000000E+00 -0.10662360130E+04  0.10662360130E+04  0.00000000000E+00 0.  1.
         23    2    1    2    0    0  0.81383774524E+03  0.40623779907E+03 -0.71257171354E+03  0.11591978107E+04  0.92844453317E+02 0.  0.
    5000000    2    1    2    0    0 -0.81383774524E+03 -0.40623779907E+03  0.21468616355E+04  0.24075641372E+04  0.59999097339E+03 0.  0.
         23    2    4    4    0    0 -0.23213050925E+03 -0.28995468750E+03  0.37177794702E+03  0.53382464756E+03  0.93763630072E+02 0.  0.
         23    2    4    4    0    0 -0.58170723599E+03 -0.11628311158E+03  0.17750836884E+04  0.18737394897E+04  0.89847113443E+02 0.  0.
          1    1    3    3  502    0  0.83381455097E+02  0.75371250852E+02 -0.90425636129E+02  0.14425702124E+03  0.00000000000E+00 0. -1.
         -1    1    3    3    0  502  0.73045629014E+03  0.33086654822E+03 -0.62214607741E+03  0.10149407895E+04  0.00000000000E+00 0.  1.
         11    1    5    5    0    0 -0.20236723259E+03 -0.28704740708E+03  0.35570200291E+03  0.49987260939E+03  0.00000000000E+00 0.  1.
        -11    1    5    5    0    0 -0.29763276662E+02 -0.29072804130E+01  0.16075944107E+02  0.33952038172E+02  0.00000000000E+00 0. -1.
          4    1    6    6  503    0 -0.15000694525E+03 -0.59366065906E+02  0.39803251774E+03  0.42948375823E+03  0.00000000000E+00 0. -1.
         -4    1    6    6    0  503 -0.43170029074E+03 -0.56917045671E+02  0.13770511707E+04  0.14442557314E+04  0.00000000000E+00 0.  1.
<mgrwt>
<rscale>  0 0.94608681E+03</rscale>
<asrwt>0</asrwt>
<pdfrwt beam="1">  1        1 0.38469629E+00 0.94608681E+03</pdfrwt>
<pdfrwt beam="2">  1       -1 0.16403631E+00 0.94608681E+03</pdfrwt>
<totfact> 0.37952379E-01</totfact>
</mgrwt>
</event>
<event>
12    1  0.1338445E-007  0.6117481E+03  0.7818608E-02  0.9881328E-01
         -1   -1    0    0    0  501 -0.00000000000E+00  0.00000000000E+00  0.42221560166E+03  0.42221560166E+03  0.00000000000E+00 0.  1.
          1   -1    0    0  501    0  0.00000000000E+00 -0.00000000000E+00 -0.23394036377E+04  0.23394036377E+04  0.00000000000E+00 0. -1.
         23    2    1    2    0    0 -0.44450924420E+03 -0.39172332918E+03  0.69106576917E+02  0.60365373514E+03  0.92663251472E+02 0.  0.
    5000000    2    1    2    0    0  0.44450924420E+03  0.39172332918E+03 -0.19862946129E+04  0.21579655042E+04  0.60034422885E+03 0.  0.
         23    2    4    4    0    0  0.34774533592E+03  0.34617985058E+03 -0.67638813380E+03  0.84056095876E+03  0.90964335046E+02 0.  0.
         23    2    4    4    0    0  0.96763908278E+02  0.45543478606E+02 -0.13099064791E+04  0.13174045454E+04  0.90897138895E+02 0.  0.
          2    1    3    3  502    0 -0.29080888648E+03 -0.31164071889E+03  0.54650670638E+02  0.42973997013E+03  0.00000000000E+00 0. -1.
         -2    1    3    3    0  502 -0.15370035772E+03 -0.80082610293E+02  0.14455906279E+02  0.17391376501E+03  0.00000000000E+00 0.  1.
         11    1    5    5    0    0  0.23915342774E+03  0.19127628484E+03 -0.46612774837E+03  0.55772399710E+03  0.00000000000E+00 0.  1.
        -11    1    5    5    0    0  0.10859190818E+03  0.15490356574E+03 -0.21026038543E+03  0.28283696166E+03  0.00000000000E+00 0. -1.
          2    1    6    6  503    0  0.20265338562E+02 -0.19488936693E+02 -0.57298688491E+03  0.57367627882E+03  0.00000000000E+00 0. -1.
         -2    1    6    6    0  503  0.76498569717E+02  0.65032415300E+02 -0.73691959420E+03  0.74372826659E+03  0.00000000000E+00 0.  1.
<mgrwt>
<rscale>  0 0.61174809E+03</rscale>
<asrwt>0</asrwt>
<pdfrwt beam="1">  1        1 0.35990825E+00 0.61174809E+03</pdfrwt>
<pdfrwt beam="2">  1       -1 0.64956247E-01 0.61174809E+03</pdfrwt>
<totfact> 0.45660368E+00</totfact>
</mgrwt>
</event>
<event>
12    1  0.1338445E-007  0.9891687E+03  0.7818608E-02  0.9320505E-01
         -2   -1    0    0    0  501 -0.00000000000E+00  0.00000000000E+00  0.76412263040E+03  0.76412263040E+03  0.00000000000E+00 0.  1.
          2   -1    0    0  501    0  0.00000000000E+00 -0.00000000000E+00 -0.13619969258E+04  0.13619969258E+04  0.00000000000E+00 0. -1.
         23    2    1    2    0    0  0.10944442499E+03 -0.89987023073E+03 -0.48848417908E+03  0.10338717841E+04  0.92355608232E+02 0.  0.
    5000000    2    1    2    0    0 -0.10944442499E+03  0.89987023073E+03 -0.10939011637E+03  0.10922477722E+04  0.59941178162E+03 0.  0.
         23    2    4    4    0    0 -0.31088256396E+03  0.74087987180E+03 -0.12844345624E+03  0.81871179872E+03  0.90776290431E+02 0.  0.
         23    2    4    4    0    0  0.20143813897E+03  0.15899035893E+03  0.19053339866E+02  0.27353597345E+03  0.92755813567E+02 0.  0.
          1    1    3    3  502    0  0.65094915895E+02 -0.64785388890E+03 -0.39430492599E+03  0.76120193385E+03  0.00000000000E+00 0. -1.
         -1    1    3    3    0  502  0.44349509099E+02 -0.25201634183E+03 -0.94179253087E+02  0.27266985022E+03  0.00000000000E+00 0.  1.
         13    1    5    5    0    0 -0.22595016361E+03  0.55120563596E+03 -0.13485176058E+03  0.61079139391E+03  0.00000000000E+00 0. -1.
        -13    1    5    5    0    0 -0.84932400354E+02  0.18967423584E+03  0.64083043415E+01  0.20792040481E+03  0.00000000000E+00 0.  1.
          3    1    6    6  503    0  0.19873126860E+03  0.16684564851E+03  0.78682203685E+01  0.25960257402E+03  0.00000000000E+00 0. -1.
         -3    1    6    6    0  503  0.27068703665E+01 -0.78552895819E+01  0.11185119497E+02  0.13933399433E+02  0.00000000000E+00 0.  1.
<mgrwt>
<rscale>  0 0.98916869E+03</rscale>
<asrwt>0</asrwt>
<pdfrwt beam="1">  1        2 0.20953799E+00 0.98916869E+03</pdfrwt>
<pdfrwt beam="2">  1       -2 0.11755733E+00 0.98916869E+03</pdfrwt>
<totfact> 0.84552731E+00</totfact>
</mgrwt>
</event>
<event>
12    1  0.1338445E-007  0.5350287E+03  0.7818608E-02  0.1005020E+00
         -1   -1    0    0    0  501 -0.00000000000E+00  0.00000000000E+00  0.29990261472E+03  0.29990261472E+03  0.00000000000E+00 0.  1.
          1   -1    0    0  501    0  0.00000000000E+00 -0.00000000000E+00 -0.15118973072E+04  0.15118973072E+04  0.00000000000E+00 0. -1.
         23    2    1    2    0    0  0.30894045827E+03 -0.41114811043E+03 -0.68860261331E+03  0.86399268313E+03  0.88446718292E+02 0.  0.
    5000000    2    1    2    0    0 -0.30894045827E+03  0.41114811043E+03 -0.52339207919E+03  0.94780723880E+03  0.59992692713E+03 0.  0.
         23    2    4    4    0    0 -0.38058706950E+02  0.16419846866E+03 -0.53691513468E+03  0.57030939193E+03  0.92549113381E+02 0.  0.
         23    2    4    4    0    0 -0.27088175132E+03  0.24694964177E+03  0.13523055487E+02  0.37749784687E+03  0.89222769487E+02 0.  0.
          2    1    3    3  502    0  0.12234352037E+02 -0.50635233347E+02 -0.44825849688E+02  0.68723817022E+02  0.00000000000E+00 0. -1.
         -2    1    3    3    0  502  0.29670610624E+03 -0.36051287708E+03 -0.64377676362E+03  0.79526886611E+03  0.00000000000E+00 0.  1.
         11    1    5    5    0    0 -0.59125656757E+02  0.14240565818E+03 -0.49583844495E+03  0.51926002952E+03  0.00000000000E+00 0. -1.
        -11    1    5    5    0    0  0.21066949807E+02  0.21792810481E+02 -0.41076689726E+02  0.51049362402E+02  0.00000000000E+00 0.  1.
          4    1    6    6  503    0 -0.10873728948E+03  0.98873186074E+02 -0.38307890925E+02  0.15187889766E+03  0.00000000000E+00 0. -1.
         -4    1    6    6    0  503 -0.16214446184E+03  0.14807645570E+03  0.51830946412E+02  0.22561894921E+03  0.00000000000E+00 0.  1.
<mgrwt>
<rscale>  0 0.53502868E+03</rscale>
<asrwt>0</asrwt>
<pdfrwt beam="1">  1        1 0.23259959E+00 0.53502868E+03</pdfrwt>
<pdfrwt beam="2">  1       -1 0.46138864E-01 0.53502868E+03</pdfrwt>
<totfact> 0.31921005E+01</totfact>
</mgrwt>
</event>
<event>
12    1  0.1338445E-007  0.2615928E+04  0.7818608E-02  0.8362811E-01
         -1   -1    0    0    0  501 -0.00000000000E+00  0.00000000000E+00  0.19979083477E+04  0.19979083477E+04  0.00000000000E+00 0.  1.
          1   -1    0    0  501    0  0.00000000000E+00 -0.00000000000E+00 -0.35158961746E+04  0.35158961746E+04  0.00000000000E+00 0. -1.
         23    2    1    2    0    0 -0.15793066770E+04  0.20764509616E+04 -0.94502218525E+03  0.27762372957E+04  0.92565735495E+02 0.  0.
    5000000    2    1    2    0    0  0.15793066770E+04 -0.20764509616E+04 -0.57296564162E+03  0.27375672267E+04  0.60010542248E+03 0.  0.
         23    2    4    4    0    0  0.14149079475E+04 -0.18272044381E+04 -0.67267352036E+03  0.24087078822E+04  0.93506353280E+02 0.  0.
         23    2    4    4    0    0  0.16439872948E+03 -0.24924652343E+03  0.99707878738E+02  0.32885934444E+03  0.95163205305E+02 0.  0.
          1    1    3    3  502    0 -0.91871454498E+03  0.11529249384E+04 -0.50021139588E+03  0.15567542418E+04  0.00000000000E+00 0. -1.
         -1    1    3    3    0  502 -0.66059213203E+03  0.92352602315E+03 -0.44481078937E+03  0.12194830539E+04  0.00000000000E+00 0.  1.
         13    1    5    5    0    0  0.11079675720E+04 -0.14618145268E+04 -0.49944381019E+03  0.19010360257E+04  0.00000000000E+00 0.  1.
        -13    1    5    5    0    0  0.30694037555E+03 -0.36538991135E+03 -0.17322971016E+03  0.50767185656E+03  0.00000000000E+00 0. -1.
          4    1    6    6  503    0  0.18065969251E+02  0.37600786211E+01  0.17038503275E+02  0.25116290134E+02  0.00000000000E+00 0. -1.
         -4    1    6    6    0  503  0.14633276023E+03 -0.25300660205E+03  0.82669375463E+02  0.30374305430E+03  0.00000000000E+00 0.  1.
<mgrwt>
<rscale>  0 0.26159279E+04</rscale>
<asrwt>0</asrwt>
<pdfrwt beam="1">  1        1 0.54090710E+00 0.26159279E+04</pdfrwt>
<pdfrwt beam="2">  1       -1 0.30737052E+00 0.26159279E+04</pdfrwt>
<totfact> 0.59555331E-03</totfact>
</mgrwt>
</event>
<event>
12    1  0.1338445E-007  0.1156720E+04  0.7818608E-02  0.9151606E-01
         -2   -1    0    0    0  501 -0.00000000000E+00  0.00000000000E+00  0.78327476230E+03  0.78327476230E+03  0.00000000000E+00 0.  1.
          2   -1    0    0  501    0  0.00000000000E+00 -0.00000000000E+00 -0.19109293290E+04  0.19109293290E+04  0.00000000000E+00 0. -1.
         23    2    1    2    0    0  0.10816890768E+04  0.12755497543E+03 -0.13051631059E+03  0.11008476764E+04  0.92247323812E+02 0.  0.
    5000000    2    1    2    0    0 -0.10816890768E+04 -0.12755497543E+03 -0.99713825610E+03  0.15933564149E+04  0.59848010199E+03 0.  0.
         23    2    4    4    0    0 -0.12072364282E+03 -0.22195347208E+03 -0.16426079166E+03  0.31482788247E+03  0.91090318920E+02 0.  0.
         23    2    4    4    0    0 -0.96096543395E+03  0.94398496646E+02 -0.83287746444E+03  0.12785285324E+04  0.92653634489E+02 0.  0.
          4    1    3    3  502    0  0.39955259535E+03  0.24184568937E+02 -0.86481327226E+02  0.40951946204E+03  0.00000000000E+00 0. -1.
         -4    1    3    3    0  502  0.68213648142E+03  0.10337040650E+03 -0.44034983365E+02  0.69132821437E+03  0.00000000000E+00 0.  1.
         11    1    5    5    0    0 -0.31484761136E+02 -0.43662687297E+02  0.39448368868E+01  0.53974829170E+02  0.00000000000E+00 0.  1.
        -11    1    5    5    0    0 -0.89238881687E+02 -0.17829078478E+03 -0.16820562854E+03  0.26085305330E+03  0.00000000000E+00 0. -1.
          1    1    6    6  503    0 -0.16588119000E+03  0.51879726488E+02 -0.14855615898E+03  0.22864165760E+03  0.00000000000E+00 0. -1.
         -1    1    6    6    0  503 -0.79508424394E+03  0.42518770158E+02 -0.68432130546E+03  0.10498868748E+04  0.00000000000E+00 0.  1.
<mgrwt>
<rscale>  0 0.11567204E+04</rscale>
<asrwt>0</asrwt>
<pdfrwt beam="1">  1        2 0.29398913E+00 0.11567204E+04</pdfrwt>
<pdfrwt beam="2">  1       -2 0.12050381E+00 0.11567204E+04</pdfrwt>
<totfact> 0.38569823E+00</totfact>
</mgrwt>
</event>
<event>
12    1  0.1338445E-007  0.6810717E+03  0.7818608E-02  0.9750161E-01
         -2   -1    0    0    0  501 -0.00000000000E+00  0.00000000000E+00  0.16291927558E+03  0.16291927558E+03  0.00000000000E+00 0.  1.
          2   -1    0    0  501    0  0.00000000000E+00 -0.00000000000E+00 -0.30259306813E+04  0.30259306813E+04  0.00000000000E+00 0. -1.
         23    2    1    2    0    0 -0.25220768934E+03 -0.49562610569E+03 -0.14547720478E+04  0.15602744030E+04  0.94024180243E+02 0.  0.
    5000000    2    1    2    0    0  0.25220768934E+03  0.49562610569E+03 -0.14082393579E+04  0.16285755539E+04  0.59988856484E+03 0.  0.
         23    2    4    4    0    0 -0.14390071345E+03  0.33893795354E+03 -0.74965952690E+03  0.83892285821E+03  0.78840370789E+02 0.  0.
         23    2    4    4    0    0  0.39610840279E+03  0.15668815215E+03 -0.65857983104E+03  0.78965269567E+03  0.91492852961E+02 0.  0.
          2    1    3    3  502    0 -0.11606150185E+03 -0.13475962502E+03 -0.43043533386E+03  0.46573061460E+03  0.00000000000E+00 0. -1.
         -2    1    3    3    0  502 -0.13614618749E+03 -0.36086648067E+03 -0.10243367139E+04  0.10945437884E+04  0.00000000000E+00 0.  1.
         11    1    5    5    0    0 -0.58746841570E+02  0.20850784510E+03 -0.49619952082E+03  0.54142467373E+03  0.00000000000E+00 0. -1.
        -11    1    5    5    0    0 -0.85153871879E+02  0.13043010844E+03 -0.25346000609E+03  0.29749818448E+03  0.00000000000E+00 0.  1.
          3    1    6    6  503    0  0.36466773774E+03  0.14005724983E+03 -0.63928275377E+03  0.74918691356E+03  0.00000000000E+00 0. -1.
         -3    1    6    6    0  503  0.31440665052E+02  0.16630902319E+02 -0.19297077267E+02  0.40465782111E+02  0.00000000000E+00 0.  1.
<mgrwt>
<rscale>  0 0.68107167E+03</rscale>
<asrwt>0</asrwt>
<pdfrwt beam="1">  1        2 0.46552779E+00 0.68107167E+03</pdfrwt>
<pdfrwt beam="2">  1       -2 0.25064504E-01 0.68107167E+03</pdfrwt>
<totfact> 0.25631605E+01</totfact>
</mgrwt>
</event>
<event>
12    1  0.1338445E-007  0.1233987E+04  0.7818608E-02  0.9083617E-01
         -1   -1    0    0    0  501 -0.00000000000E+00  0.00000000000E+00  0.10791411562E+04  0.10791411562E+04  0.00000000000E+00 0. -1.
          1   -1    0    0  501    0  0.00000000000E+00 -0.00000000000E+00 -0.14273408680E+04  0.14273408680E+04  0.00000000000E+00 0.  1.
         23    2    1    2    0    0  0.11437235070E+04  0.20807645059E+03 -0.26134143440E+03  0.11951367465E+04  0.93022726881E+02 0.  0.
    5000000    2    1    2    0    0 -0.11437235070E+04 -0.20807645059E+03 -0.86858277368E+02  0.13113452777E+04  0.60056873644E+03 0.  0.
         23    2    4    4    0    0 -0.78773319365E+03  0.13466268487E+03 -0.75333451575E+02  0.80816800031E+03  0.93823050010E+02 0.  0.
         23    2    4    4    0    0 -0.35599031335E+03 -0.34273913546E+03 -0.11524825793E+02  0.50317727738E+03  0.94102777218E+02 0.  0.
          3    1    3    3  502    0  0.87740801138E+03  0.18957287744E+03 -0.17490957592E+03  0.91453597744E+03  0.00000000000E+00 0. -1.
         -3    1    3    3    0  502  0.26631549563E+03  0.18503573152E+02 -0.86431858480E+02  0.28060076905E+03  0.00000000000E+00 0.  1.
         13    1    5    5    0    0 -0.44591139724E+02  0.21757311926E+02  0.13093463983E+02  0.51314609646E+02  0.00000000000E+00 0. -1.
        -13    1    5    5    0    0 -0.74314205393E+03  0.11290537295E+03 -0.88426915557E+02  0.75685339066E+03  0.00000000000E+00 0.  1.
          3    1    6    6  503    0 -0.14125823217E+03 -0.78553758197E+02  0.10862093190E+02  0.16199557448E+03  0.00000000000E+00 0. -1.
         -3    1    6    6    0  503 -0.21473208118E+03 -0.26418537727E+03 -0.22386918982E+02  0.34118170290E+03  0.00000000000E+00 0.  1.
<mgrwt>
<rscale>  0 0.12339875E+04</rscale>
<asrwt>0</asrwt>
<pdfrwt beam="1">  1        1 0.21959090E+00 0.12339875E+04</pdfrwt>
<pdfrwt beam="2">  1       -1 0.16602172E+00 0.12339875E+04</pdfrwt>
<totfact> 0.18904194E+00</totfact>
</mgrwt>
</event>
<event>
12    1  0.1338445E-007  0.6881802E+03  0.7818608E-02  0.9737662E-01
         -1   -1    0    0    0  501 -0.00000000000E+00  0.00000000000E+00  0.34117229719E+03  0.34117229719E+03  0.00000000000E+00 0.  1.
          1   -1    0    0  501    0  0.00000000000E+00 -0.00000000000E+00 -0.14822747096E+04  0.14822747096E+04  0.00000000000E+00 0. -1.
         23    2    1    2    0    0  0.21271446919E+02  0.57072917749E+03 -0.60429261738E+03  0.83638890197E+03  0.90512758368E+02 0.  0.
    5000000    2    1    2    0    0 -0.21271446919E+02 -0.57072917749E+03 -0.53680979505E+03  0.98705810484E+03  0.59994556234E+03 0.  0.
         23    2    4    4    0    0  0.16153246184E+03 -0.59048572176E+03 -0.44307361516E+03  0.76118861455E+03  0.91256532079E+02 0.  0.
         23    2    4    4    0    0 -0.18280390876E+03  0.19756544269E+02 -0.93736179896E+02  0.22586949029E+03  0.91776713401E+02 0.  0.
          2    1    3    3  502    0  0.26276930301E+02  0.32436042405E+03 -0.40448479277E+03  0.51914170449E+03  0.00000000000E+00 0. -1.
         -2    1    3    3    0  502 -0.50054833823E+01  0.24636875344E+03 -0.19980782460E+03  0.31724719748E+03  0.00000000000E+00 0.  1.
         13    1    5    5    0    0  0.64631011578E+02 -0.10688407940E+03 -0.10568185324E+03  0.16361548885E+03  0.00000000000E+00 0.  1.
        -13    1    5    5    0    0  0.96901450258E+02 -0.48360164236E+03 -0.33739176192E+03  0.59757312571E+03  0.00000000000E+00 0. -1.
          1    1    6    6  503    0 -0.65665296622E+02 -0.76107211453E+01 -0.81525343111E+02  0.10495825754E+03  0.00000000000E+00 0. -1.
         -1    1    6    6    0  503 -0.11713861213E+03  0.27367265414E+02 -0.12210836786E+02  0.12091123274E+03  0.00000000000E+00 0.  1.
<mgrwt>
<rscale>  0 0.68818022E+03</rscale>
<asrwt>0</asrwt>
<pdfrwt beam="1">  1        1 0.22804226E+00 0.68818022E+03</pdfrwt>
<pdfrwt beam="2">  1       -1 0.52488046E-01 0.68818022E+03</pdfrwt>
<totfact> 0.25628062E+01</totfact>
</mgrwt>
</event>
<event>
12    1  0.1338445E-007  0.7471796E+03  0.7818608E-02  0.9639786E-01
         -1   -1    0    0    0  501 -0.00000000000E+00  0.00000000000E+00  0.37842326081E+03  0.37842326081E+03  0.00000000000E+00 0.  1.
          1   -1    0    0  501    0  0.00000000000E+00 -0.00000000000E+00 -0.26768144621E+04  0.26768144621E+04  0.00000000000E+00 0. -1.
         23    2    1    2    0    0 -0.64550061891E+03 -0.26523237359E+03 -0.19466156183E+04  0.20698679152E+04  0.89563161912E+02 0.  0.
    5000000    2    1    2    0    0  0.64550061891E+03  0.26523237359E+03 -0.35177558299E+03  0.98536980771E+03  0.60015692627E+03 0.  0.
         23    2    4    4    0    0  0.58809623977E+03  0.32670690828E+03 -0.46286123103E+03  0.82205792712E+03  0.94573385212E+02 0.  0.
         23    2    4    4    0    0  0.57404379141E+02 -0.61474534696E+02  0.11108564804E+03  0.16331188059E+03  0.85184317697E+02 0.  0.
          3    1    3    3  502    0 -0.79098877590E+02 -0.66190604343E+01 -0.26731577893E+03  0.27885151974E+03  0.00000000000E+00 0. -1.
         -3    1    3    3    0  502 -0.56640174132E+03 -0.25861331315E+03 -0.16792998394E+04  0.17910163955E+04  0.00000000000E+00 0.  1.
         11    1    5    5    0    0  0.27813945831E+03  0.11697763016E+03 -0.24759262183E+03  0.39031708982E+03  0.00000000000E+00 0. -1.
        -11    1    5    5    0    0  0.30995678146E+03  0.20972927812E+03 -0.21526860921E+03  0.43174083729E+03  0.00000000000E+00 0.  1.
          1    1    6    6  503    0  0.24536951469E+02 -0.76408140829E+02  0.57599448433E+02  0.98782399405E+02  0.00000000000E+00 0. -1.
         -1    1    6    6    0  503  0.32867427672E+02  0.14933606133E+02  0.53486199610E+02  0.64529481190E+02  0.00000000000E+00 0.  1.
<mgrwt>
<rscale>  0 0.74717955E+03</rscale>
<asrwt>0</asrwt>
<pdfrwt beam="1">  1        1 0.41181760E+00 0.74717955E+03</pdfrwt>
<pdfrwt beam="2">  1       -1 0.58218964E-01 0.74717955E+03</pdfrwt>
<totfact> 0.32456241E+00</totfact>
</mgrwt>
</event>
<event>
12    1  0.1338445E-007  0.1274018E+04  0.7818608E-02  0.9050427E-01
         -2   -1    0    0    0  501 -0.00000000000E+00  0.00000000000E+00  0.54943436731E+03  0.54943436731E+03  0.00000000000E+00 0.  1.
          2   -1    0    0  501    0  0.00000000000E+00 -0.00000000000E+00 -0.31685539496E+04  0.31685539496E+04  0.00000000000E+00 0. -1.
         23    2    1    2    0    0 -0.10561210650E+04  0.61575247379E+03 -0.87924386210E+03  0.15086150294E+04  0.91141235446E+02 0.  0.
    5000000    2    1    2    0    0  0.10561210650E+04 -0.61575247379E+03 -0.17398757201E+04  0.22093732875E+04  0.59968324051E+03 0.  0.
         23    2    4    4    0    0 -0.20250798299E+02 -0.14695846459E+02 -0.24619851862E+02  0.95118665749E+02  0.88404528918E+02 0.  0.
         23    2    4    4    0    0  0.10763718633E+04 -0.60105662734E+03 -0.17152558683E+04  0.21142546217E+04  0.90135755673E+02 0.  0.
          3    1    3    3  502    0 -0.41887718882E+03  0.22001074264E+03 -0.38869143451E+03  0.61232659378E+03  0.00000000000E+00 0. -1.
         -3    1    3    3    0  502 -0.63724387622E+03  0.39574173116E+03 -0.49055242759E+03  0.89628843560E+03  0.00000000000E+00 0.  1.
         11    1    5    5    0    0 -0.13821815098E+02  0.35810306086E+02  0.40503215161E+00  0.38387297973E+02  0.00000000000E+00 0.  1.
        -11    1    5    5    0    0 -0.64289832017E+01 -0.50506152545E+02 -0.25024884014E+02  0.56731367776E+02  0.00000000000E+00 0. -1.
          1    1    6    6  503    0  0.88436059836E+03 -0.45726038527E+03 -0.13546762831E+04  0.16811688077E+04  0.00000000000E+00 0. -1.
         -1    1    6    6    0  503  0.19201126498E+03 -0.14379624207E+03 -0.36057958514E+03  0.43308581405E+03  0.00000000000E+00 0.  1.
<mgrwt>
<rscale>  0 0.12740176E+04</rscale>
<asrwt>0</asrwt>
<pdfrwt beam="1">  1        2 0.48746984E+00 0.12740176E+04</pdfrwt>
<pdfrwt beam="2">  1       -2 0.84528365E-01 0.12740176E+04</pdfrwt>
<totfact> 0.16362174E+00</totfact>
</mgrwt>
</event>
<event>
12    1  0.1338445E-007  0.5389535E+03  0.7818608E-02  0.1004084E+00
         -2   -1    0    0    0  501 -0.00000000000E+00  0.00000000000E+00  0.27803826375E+03  0.27803826375E+03  0.00000000000E+00 0.  1.
          2   -1    0    0  501    0  0.00000000000E+00 -0.00000000000E+00 -0.13898165434E+04  0.13898165434E+04  0.00000000000E+00 0. -1.
         23    2    1    2    0    0 -0.34263526387E+01 -0.46128981603E+03 -0.29795832898E+03  0.55657505907E+03  0.90535055624E+02 0.  0.
    5000000    2    1    2    0    0  0.34263526387E+01  0.46128981603E+03 -0.81381995063E+03  0.11112797480E+04  0.59986642856E+03 0.  0.
         23    2    4    4    0    0  0.48676237163E+02  0.51788219148E+03 -0.83984179338E+03  0.99207770749E+03  0.91173458180E+02 0.  0.
         23    2    4    4    0    0 -0.45249884525E+02 -0.56592375448E+02  0.26021842748E+02  0.11920204056E+03  0.91004072245E+02 0.  0.
          2    1    3    3  502    0 -0.25515801292E+02 -0.43168605607E+03 -0.28248323659E+03  0.51652752693E+03  0.00000000000E+00 0. -1.
         -2    1    3    3    0  502  0.22089448654E+02 -0.29603759960E+02 -0.15475092394E+02  0.40047532136E+02  0.00000000000E+00 0.  1.
         11    1    5    5    0    0  0.28548917305E+02  0.37807311616E+02 -0.83903071117E+02  0.96354339984E+02  0.00000000000E+00 0.  1.
        -11    1    5    5    0    0  0.20127319858E+02  0.48007487986E+03 -0.75593872226E+03  0.89572336750E+03  0.00000000000E+00 0. -1.
          4    1    6    6  503    0 -0.17891805718E+02 -0.49151504398E+02  0.56895198878E+02  0.77285514502E+02  0.00000000000E+00 0. -1.
         -4    1    6    6    0  503 -0.27358078807E+02 -0.74408710505E+01 -0.30873356130E+02  0.41916526058E+02  0.00000000000E+00 0.  1.
<mgrwt>
<rscale>  0 0.53895346E+03</rscale>
<asrwt>0</asrwt>
<pdfrwt beam="1">  1        2 0.21381793E+00 0.53895346E+03</pdfrwt>
<pdfrwt beam="2">  1       -2 0.42775118E-01 0.53895346E+03</pdfrwt>
<totfact> 0.79173866E+01</totfact>
</mgrwt>
</event>
<event>
12    1  0.1338445E-007  0.1201358E+04  0.7818608E-02  0.9111669E-01
         -2   -1    0    0    0  501 -0.00000000000E+00  0.00000000000E+00  0.23493995151E+04  0.23493995151E+04  0.00000000000E+00 0.  1.
          2   -1    0    0  501    0  0.00000000000E+00 -0.00000000000E+00 -0.16175820049E+04  0.16175820049E+04  0.00000000000E+00 0. -1.
         23    2    1    2    0    0 -0.77332249733E+02 -0.11323495441E+04  0.19104082845E+04  0.22240931346E+04  0.93459568399E+02 0.  0.
    5000000    2    1    2    0    0  0.77332249733E+02  0.11323495441E+04 -0.11785907743E+04  0.17428883855E+04  0.60032319977E+03 0.  0.
         23    2    4    4    0    0  0.25873863522E+03  0.98566673295E+03 -0.85336842113E+03  0.13324133050E+04  0.92752161239E+02 0.  0.
         23    2    4    4    0    0 -0.18140638549E+03  0.14668281112E+03 -0.32522235316E+03  0.41047508045E+03  0.91082868338E+02 0.  0.
          2    1    3    3  502    0  0.11376527338E+01 -0.75605571510E+02  0.17664317139E+03  0.19214657607E+03  0.00000000000E+00 0. -1.
         -2    1    3    3    0  502 -0.78469902467E+02 -0.10567439726E+04  0.17337651131E+04  0.20319465585E+04  0.00000000000E+00 0.  1.
         11    1    5    5    0    0  0.11997110051E+03  0.31222883672E+03 -0.24932175965E+03  0.41718251554E+03  0.00000000000E+00 0.  1.
        -11    1    5    5    0    0  0.13876753471E+03  0.67343789624E+03 -0.60404666148E+03  0.91523078949E+03  0.00000000000E+00 0. -1.
          4    1    6    6  503    0 -0.85309046029E+02  0.11700345949E+03 -0.15033362836E+03  0.20872863407E+03  0.00000000000E+00 0. -1.
         -4    1    6    6    0  503 -0.96097339463E+02  0.29679351629E+02 -0.17488872480E+03  0.20174644638E+03  0.00000000000E+00 0.  1.
<mgrwt>
<rscale>  0 0.12013580E+04</rscale>
<asrwt>0</asrwt>
<pdfrwt beam="1">  1        2 0.24885877E+00 0.12013580E+04</pdfrwt>
<pdfrwt beam="2">  1       -2 0.36144608E+00 0.12013580E+04</pdfrwt>
<totfact> 0.14079561E-01</totfact>
</mgrwt>
</event>
<event>
12    1  0.1338445E-007  0.6349556E+03  0.7818608E-02  0.9835426E-01
          1   -1    0    0  501    0  0.00000000000E+00  0.00000000000E+00  0.48077774145E+03  0.48077774145E+03  0.00000000000E+00 0. -1.
         -1   -1    0    0    0  501 -0.00000000000E+00 -0.00000000000E+00 -0.98430951521E+03  0.98430951521E+03  0.00000000000E+00 0.  1.
         23    2    1    2    0    0 -0.96762057910E+01  0.54917025480E+03 -0.13483769469E+03  0.57207900728E+03  0.86090585713E+02 0.  0.
    5000000    2    1    2    0    0  0.96762057910E+01 -0.54917025480E+03 -0.36869407907E+03  0.89300824937E+03  0.59987232957E+03 0.  0.
         23    2    4    4    0    0 -0.15763229651E+03 -0.49620851859E+03 -0.66927153161E+02  0.53247317161E+03  0.89317410562E+02 0.  0.
         23    2    4    4    0    0  0.16730850230E+03 -0.52961736210E+02 -0.30176692591E+03  0.36053507776E+03  0.90139804075E+02 0.  0.
          4    1    3    3  502    0 -0.11641443457E+02  0.39336994447E+03 -0.56160989541E+02  0.39752923561E+03  0.00000000000E+00 0. -1.
         -4    1    3    3    0  502  0.19652376663E+01  0.15580031033E+03 -0.78676705149E+02  0.17454977167E+03  0.00000000000E+00 0.  1.
         13    1    5    5    0    0  0.11383779248E+02 -0.29870328696E+02 -0.80901271155E+01  0.32973885472E+02  0.00000000000E+00 0. -1.
        -13    1    5    5    0    0 -0.16901607576E+03 -0.46633818990E+03 -0.58837026045E+02  0.49949928614E+03  0.00000000000E+00 0.  1.
          4    1    6    6  503    0  0.67999764662E+02 -0.63070794922E+02 -0.10643524110E+03  0.14117490469E+03  0.00000000000E+00 0. -1.
         -4    1    6    6    0  503  0.99308737639E+02  0.10109058712E+02 -0.19533168480E+03  0.21936017307E+03  0.00000000000E+00 0.  1.
<mgrwt>
<rscale>  0 0.63495557E+03</rscale>
<asrwt>0</asrwt>
<pdfrwt beam="1">  1        1 0.73965808E-01 0.63495557E+03</pdfrwt>
<pdfrwt beam="2">  1       -1 0.15143223E+00 0.63495557E+03</pdfrwt>
<totfact> 0.16571224E+01</totfact>
</mgrwt>
</event>
<event>
12    1  0.1338445E-007  0.7668017E+03  0.7818608E-02  0.9609354E-01
          1   -1    0    0  501    0  0.00000000000E+00  0.00000000000E+00  0.67571399123E+03  0.67571399123E+03  0.00000000000E+00 0. -1.
         -1   -1    0    0    0  501 -0.00000000000E+00 -0.00000000000E+00 -0.13794228417E+04  0.13794228417E+04  0.00000000000E+00 0.  1.
         23    2    1    2    0    0  0.68837174917E+03 -0.31426115969E+03  0.13780702344E+03  0.77421081752E+03  0.88294239415E+02 0.  0.
    5000000    2    1    2    0    0 -0.68837174917E+03  0.31426115969E+03 -0.84151587390E+03  0.12809260154E+04  0.60000562444E+03 0.  0.
         23    2    4    4    0    0 -0.31371097457E+03  0.18034702443E+03 -0.33430558219E+02  0.37508516642E+03  0.92906700864E+02 0.  0.
         23    2    4    4    0    0 -0.37466077460E+03  0.13391413526E+03 -0.80808531568E+03  0.90584084897E+03  0.96135709295E+02 0.  0.
          2    1    3    3  502    0  0.16809382543E+03 -0.38264040896E+02  0.43022088007E+02  0.17768109362E+03  0.00000000000E+00 0. -1.
         -2    1    3    3    0  502  0.52027792373E+03 -0.27599711879E+03  0.94784935429E+02  0.59652972389E+03  0.00000000000E+00 0.  1.
         11    1    5    5    0    0 -0.31845946431E+03  0.17709562097E+03 -0.25491302762E+02  0.36527947642E+03  0.00000000000E+00 0. -1.
        -11    1    5    5    0    0  0.47484897443E+01  0.32514034584E+01 -0.79392554564E+01  0.98056900065E+01  0.00000000000E+00 0.  1.
          2    1    6    6  503    0 -0.33448000830E+03  0.13778421370E+03 -0.76810189243E+03  0.84902407661E+03  0.00000000000E+00 0. -1.
         -2    1    6    6    0  503 -0.40180766297E+02 -0.38700784411E+01 -0.39983423247E+02  0.56816772364E+02  0.00000000000E+00 0.  1.
<mgrwt>
<rscale>  0 0.76680171E+03</rscale>
<asrwt>0</asrwt>
<pdfrwt beam="1">  1        1 0.10395600E+00 0.76680171E+03</pdfrwt>
<pdfrwt beam="2">  1       -1 0.21221890E+00 0.76680171E+03</pdfrwt>
<totfact> 0.36983115E+00</totfact>
</mgrwt>
</event>
<event>
12    1  0.1338445E-007  0.2114409E+04  0.7818608E-02  0.8554922E-01
         -2   -1    0    0    0  501 -0.00000000000E+00  0.00000000000E+00  0.21542532276E+04  0.21542532276E+04  0.00000000000E+00 0.  1.
          2   -1    0    0  501    0  0.00000000000E+00 -0.00000000000E+00 -0.22831457750E+04  0.22831457750E+04  0.00000000000E+00 0. -1.
         23    2    1    2    0    0 -0.18656253145E+04 -0.96387382123E+03 -0.63481899374E+03  0.21956046260E+04  0.89855225879E+02 0.  0.
    5000000    2    1    2    0    0  0.18656253145E+04  0.96387382123E+03  0.50592644638E+03  0.22417943765E+04  0.60005824719E+03 0.  0.
         23    2    4    4    0    0  0.59327271696E+03  0.47969647480E+03 -0.46180442671E+02  0.76987686560E+03  0.92176625459E+02 0.  0.
         23    2    4    4    0    0  0.12723525976E+04  0.48417734643E+03  0.55210688905E+03  0.14719175109E+04  0.91707724265E+02 0.  0.
          1    1    3    3  502    0 -0.10726696402E+04 -0.57279556372E+03 -0.32448065693E+03  0.12585716553E+04  0.00000000000E+00 0. -1.
         -1    1    3    3    0  502 -0.79295567437E+03 -0.39107825751E+03 -0.31033833681E+03  0.93703297077E+03  0.00000000000E+00 0.  1.
         13    1    5    5    0    0  0.28786910465E+03  0.26297535421E+03 -0.63260858030E+02  0.39500201834E+03  0.00000000000E+00 0.  1.
        -13    1    5    5    0    0  0.30540361231E+03  0.21672112059E+03  0.17080415359E+02  0.37487484726E+03  0.00000000000E+00 0. -1.
          2    1    6    6  503    0  0.10093709664E+04  0.34490513221E+03  0.42142200006E+03  0.11469026987E+04  0.00000000000E+00 0. -1.
         -2    1    6    6    0  503  0.26298163115E+03  0.13927221422E+03  0.13068488899E+03  0.32501481226E+03  0.00000000000E+00 0.  1.
<mgrwt>
<rscale>  0 0.21144094E+04</rscale>
<asrwt>0</asrwt>
<pdfrwt beam="1">  1        2 0.35125320E+00 0.21144094E+04</pdfrwt>
<pdfrwt beam="2">  1       -2 0.33142357E+00 0.21144094E+04</pdfrwt>
<totfact> 0.82666326E-02</totfact>
</mgrwt>
</event>
<event>
12    1  0.1338445E-007  0.1693433E+04  0.7818608E-02  0.8765119E-01
          2   -1    0    0  501    0  0.00000000000E+00  0.00000000000E+00  0.21726989514E+04  0.21726989514E+04  0.00000000000E+00 0.  1.
         -2   -1    0    0    0  501 -0.00000000000E+00 -0.00000000000E+00 -0.13348030912E+04  0.13348030912E+04  0.00000000000E+00 0. -1.
         23    2    1    2    0    0  0.10806220396E+04 -0.12394295238E+04  0.53087463861E+03  0.17303439120E+04  0.91283267352E+02 0.  0.
    5000000    2    1    2    0    0 -0.10806220396E+04  0.12394295238E+04  0.30702122159E+03  0.17771581307E+04  0.60008287249E+03 0.  0.
         23    2    4    4    0    0 -0.72640013235E+03  0.40498012391E+03  0.95911446911E+02  0.84200970810E+03  0.90084903547E+02 0.  0.
         23    2    4    4    0    0 -0.35422190724E+03  0.83444939992E+03  0.21110977468E+03  0.93514842255E+03  0.90312095773E+02 0.  0.
          2    1    3    3  502    0  0.40150258173E+03 -0.47091075525E+03  0.15406852786E+03  0.63772907556E+03  0.00000000000E+00 0. -1.
         -2    1    3    3    0  502  0.67911945787E+03 -0.76851876857E+03  0.37680611075E+03  0.10926148364E+04  0.00000000000E+00 0.  1.
         13    1    5    5    0    0 -0.57938992369E+03  0.28272294190E+03  0.87724847976E+02  0.65063092034E+03  0.00000000000E+00 0. -1.
        -13    1    5    5    0    0 -0.14701020866E+03  0.12225718200E+03  0.81865989343E+01  0.19137878776E+03  0.00000000000E+00 0.  1.
          3    1    6    6  503    0 -0.22383001440E+03  0.53621886829E+03  0.17936839690E+03  0.60811476866E+03  0.00000000000E+00 0. -1.
         -3    1    6    6    0  503 -0.13039189284E+03  0.29823053163E+03  0.31741377777E+02  0.32703365389E+03  0.00000000000E+00 0.  1.
<mgrwt>
<rscale>  0 0.16934332E+04</rscale>
<asrwt>0</asrwt>
<pdfrwt beam="1">  1        2 0.33426138E+00 0.16934332E+04</pdfrwt>
<pdfrwt beam="2">  1       -2 0.20535432E+00 0.16934332E+04</pdfrwt>
<totfact> 0.60473140E-01</totfact>
</mgrwt>
</event>
<event>
12    1  0.1338445E-007  0.9105502E+03  0.7818608E-02  0.9412488E-01
         -1   -1    0    0    0  501 -0.00000000000E+00  0.00000000000E+00  0.18533112064E+04  0.18533112064E+04  0.00000000000E+00 0.  1.
          1   -1    0    0  501    0  0.00000000000E+00 -0.00000000000E+00 -0.53790877193E+03  0.53790877193E+03  0.00000000000E+00 0. -1.
         23    2    1    2    0    0  0.83209420176E+03 -0.13095328566E+03  0.20066759645E+03  0.87062841202E+03  0.90536312732E+02 0.  0.
    5000000    2    1    2    0    0 -0.83209420176E+03  0.13095328566E+03  0.11147348380E+04  0.15205915663E+04  0.60002952330E+03 0.  0.
         23    2    4    4    0    0 -0.73873288342E+03  0.28221763888E+03  0.70043464708E+03  0.10604396715E+04  0.92469093651E+02 0.  0.
         23    2    4    4    0    0 -0.93361318337E+02 -0.15126435323E+03  0.41430019093E+03  0.46015189482E+03  0.92183934551E+02 0.  0.
          2    1    3    3  502    0  0.31668044754E+03 -0.58800182096E+02  0.12127501050E+03  0.34416797562E+03  0.00000000000E+00 0. -1.
         -2    1    3    3    0  502  0.51541375421E+03 -0.72153103559E+02  0.79392585951E+02  0.52646043640E+03  0.00000000000E+00 0.  1.
         13    1    5    5    0    0 -0.55408599124E+03  0.21354884147E+03  0.47024632501E+03  0.75746022969E+03  0.00000000000E+00 0. -1.
        -13    1    5    5    0    0 -0.18464689218E+03  0.68668797412E+02  0.23018832206E+03  0.30297944179E+03  0.00000000000E+00 0.  1.
          3    1    6    6  503    0 -0.17938994993E+02 -0.86494968685E+02  0.27625192939E+03  0.29003157697E+03  0.00000000000E+00 0. -1.
         -3    1    6    6    0  503 -0.75422323345E+02 -0.64769384541E+02  0.13804826153E+03  0.17012031785E+03  0.00000000000E+00 0.  1.
<mgrwt>
<rscale>  0 0.91055017E+03</rscale>
<asrwt>0</asrwt>
<pdfrwt beam="1">  1        1 0.82755197E-01 0.91055017E+03</pdfrwt>
<pdfrwt beam="2">  1       -1 0.28512480E+00 0.91055017E+03</pdfrwt>
<totfact> 0.16911015E+00</totfact>
</mgrwt>
</event>
<event>
12    1  0.1338445E-007  0.1283951E+04  0.7818608E-02  0.9042390E-01
          1   -1    0    0  501    0  0.00000000000E+00  0.00000000000E+00  0.17074321772E+04  0.17074321772E+04  0.00000000000E+00 0. -1.
         -1   -1    0    0    0  501 -0.00000000000E+00 -0.00000000000E+00 -0.10201672770E+04  0.10201672770E+04  0.00000000000E+00 0.  1.
         23    2    1    2    0    0 -0.12127012288E+04  0.16001559142E+03  0.60918812979E+02  0.12281208839E+04  0.91217014686E+02 0.  0.
    5000000    2    1    2    0    0  0.12127012288E+04 -0.16001559142E+03  0.62634608713E+03  0.14994785703E+04  0.59989774309E+03 0.  0.
         23    2    4    4    0    0  0.20364113262E+03 -0.25847851861E+03  0.20224700410E+03  0.39695225014E+03  0.91577195577E+02 0.  0.
         23    2    4    4    0    0  0.10090600962E+04  0.98462927191E+02  0.42409908303E+03  0.11025263202E+04  0.88357391991E+02 0.  0.
          4    1    3    3  502    0 -0.82310965172E+03  0.11941154420E+03  0.10445579425E+00  0.83172629305E+03  0.00000000000E+00 0. -1.
         -4    1    3    3    0  502 -0.38959157709E+03  0.40604047221E+02  0.60814357185E+02  0.39639459082E+03  0.00000000000E+00 0.  1.
         11    1    5    5    0    0  0.10690440708E+03 -0.13052000982E+03  0.15655955522E+03  0.23016281096E+03  0.00000000000E+00 0.  1.
        -11    1    5    5    0    0  0.96736725532E+02 -0.12795850879E+03  0.45687448879E+02  0.16678943918E+03  0.00000000000E+00 0. -1.
          3    1    6    6  503    0  0.64805310792E+03  0.89761914781E+02  0.30879202678E+03  0.72345182828E+03  0.00000000000E+00 0. -1.
         -3    1    6    6    0  503  0.36100698827E+03  0.87010124105E+01  0.11530705625E+03  0.37907449191E+03  0.00000000000E+00 0.  1.
<mgrwt>
<rscale>  0 0.12839514E+04</rscale>
<asrwt>0</asrwt>
<pdfrwt beam="1">  1        1 0.26268187E+00 0.12839514E+04</pdfrwt>
<pdfrwt beam="2">  1       -1 0.15694881E+00 0.12839514E+04</pdfrwt>
<totfact> 0.14110871E+00</totfact>
</mgrwt>
</event>
<event>
12    1  0.1338445E-007  0.5284724E+03  0.7818608E-02  0.1006603E+00
         -2   -1    0    0    0  501 -0.00000000000E+00  0.00000000000E+00  0.24418581116E+03  0.24418581116E+03  0.00000000000E+00 0.  1.
          2   -1    0    0  501    0  0.00000000000E+00 -0.00000000000E+00 -0.22336750113E+04  0.22336750113E+04  0.00000000000E+00 0. -1.
         23    2    1    2    0    0  0.21032912161E+03  0.43750026005E+03 -0.14611392394E+04  0.15425395974E+04  0.94104812148E+02 0.  0.
    5000000    2    1    2    0    0 -0.21032912161E+03 -0.43750026005E+03 -0.52834996072E+03  0.93532122505E+03  0.60002274632E+03 0.  0.
         23    2    4    4    0    0 -0.17152689787E+03 -0.50794022031E+02 -0.49522468743E+03  0.53447148405E+03  0.91710233129E+02 0.  0.
         23    2    4    4    0    0 -0.38802223732E+02 -0.38670623802E+03 -0.33125273290E+02  0.40084974100E+03  0.92389956377E+02 0.  0.
          2    1    3    3  502    0  0.17399867398E+03  0.30261951150E+03 -0.93052746626E+03  0.99384881785E+03  0.00000000000E+00 0. -1.
         -2    1    3    3    0  502  0.36330447623E+02  0.13488074855E+03 -0.53061177315E+03  0.54869077954E+03  0.00000000000E+00 0.  1.
         13    1    5    5    0    0 -0.12380787329E+03 -0.35250766042E+02 -0.22154912154E+03  0.25623235403E+03  0.00000000000E+00 0. -1.
        -13    1    5    5    0    0 -0.47719024581E+02 -0.15543255989E+02 -0.27367556588E+03  0.27823913002E+03  0.00000000000E+00 0.  1.
          4    1    6    6  503    0 -0.40742786730E+02 -0.32705191045E+03  0.57319073591E+01  0.32962976437E+03  0.00000000000E+00 0. -1.
         -4    1    6    6    0  503  0.19405629975E+01 -0.59654327568E+02 -0.38857180649E+02  0.71219976624E+02  0.00000000000E+00 0.  1.
<mgrwt>
<rscale>  0 0.52847243E+03</rscale>
<asrwt>0</asrwt>
<pdfrwt beam="1">  1        2 0.34364229E+00 0.52847243E+03</pdfrwt>
<pdfrwt beam="2">  1       -2 0.37567050E-01 0.52847243E+03</pdfrwt>
<totfact> 0.35487692E+01</totfact>
</mgrwt>
</event>
<event>
12    1  0.1338445E-007  0.7739777E+03  0.7818608E-02  0.9598466E-01
          2   -1    0    0  501    0  0.00000000000E+00  0.00000000000E+00  0.72972392178E+03  0.72972392178E+03  0.00000000000E+00 0. -1.
         -2   -1    0    0    0  501 -0.00000000000E+00 -0.00000000000E+00 -0.31943643431E+04  0.31943643431E+04  0.00000000000E+00 0.  1.
         23    2    1    2    0    0  0.76368839061E+03 -0.78182830455E+02  0.41969845466E+03  0.87963403371E+03  0.90976521719E+02 0.  0.
    5000000    2    1    2    0    0 -0.76368839061E+03  0.78182830455E+02 -0.28843388759E+04  0.30444542311E+04  0.59996525004E+03 0.  0.
         23    2    4    4    0    0 -0.57444454322E+03  0.88597984727E+02 -0.10947255015E+04  0.12427510437E+04  0.90388588101E+02 0.  0.
         23    2    4    4    0    0 -0.18924384738E+03 -0.10415154272E+02 -0.17896133745E+04  0.18017031875E+04  0.86583118313E+02 0.  0.
          1    1    3    3  502    0  0.13185880489E+03  0.20628417141E+02  0.77272913230E+02  0.15421860828E+03  0.00000000000E+00 0. -1.
         -1    1    3    3    0  502  0.63182958572E+03 -0.98811247596E+02  0.34242554142E+03  0.72541542544E+03  0.00000000000E+00 0.  1.
         11    1    5    5    0    0 -0.55489173921E+03  0.71820365698E+02 -0.10154923913E+04  0.11594342603E+04  0.00000000000E+00 0. -1.
        -11    1    5    5    0    0 -0.19552804010E+02  0.16777619028E+02 -0.79233110164E+02  0.83316783371E+02  0.00000000000E+00 0.  1.
          2    1    6    6  503    0 -0.76712380775E+02 -0.29358818622E+00 -0.11200352379E+04  0.11226592581E+04  0.00000000000E+00 0. -1.
         -2    1    6    6    0  503 -0.11253146661E+03 -0.10121566085E+02 -0.66957813657E+03  0.67904392940E+03  0.00000000000E+00 0.  1.
<mgrwt>
<rscale>  0 0.77397770E+03</rscale>
<asrwt>0</asrwt>
<pdfrwt beam="1">  1        2 0.11226522E+00 0.77397770E+03</pdfrwt>
<pdfrwt beam="2">  1       -2 0.49144066E+00 0.77397770E+03</pdfrwt>
<totfact> 0.76637994E-02</totfact>
</mgrwt>
</event>
<event>
12    1  0.1338445E-007  0.3044830E+03  0.7818608E-02  0.1083021E+00
         -1   -1    0    0    0  501 -0.00000000000E+00  0.00000000000E+00  0.28432849447E+04  0.28432849447E+04  0.00000000000E+00 0.  1.
          1   -1    0    0  501    0  0.00000000000E+00 -0.00000000000E+00 -0.28203279388E+03  0.28203279388E+03  0.00000000000E+00 0. -1.
         23    2    1    2    0    0 -0.42335694781E+02 -0.22780762418E+03 -0.18246540254E+03  0.30730753192E+03  0.86346229612E+02 0.  0.
    5000000    2    1    2    0    0  0.42335694781E+02  0.22780762418E+03  0.27437175534E+04  0.28180102067E+04  0.59958893211E+03 0.  0.
         23    2    4    4    0    0  0.14422625874E+03  0.14226238557E+03  0.25759549855E+04  0.25855024929E+04  0.90770334906E+02 0.  0.
         23    2    4    4    0    0 -0.10189056396E+03  0.85545238612E+02  0.16776256792E+03  0.23250771376E+03  0.90641507539E+02 0.  0.
          3    1    3    3  502    0 -0.58680001873E+02 -0.89711578474E+02 -0.93319873082E+02  0.14212708624E+03  0.00000000000E+00 0. -1.
         -3    1    3    3    0  502  0.16344307092E+02 -0.13809604570E+03 -0.89145529453E+02  0.16518044568E+03  0.00000000000E+00 0.  1.
         13    1    5    5    0    0  0.75797614065E+02  0.11989664468E+03  0.13489342197E+04  0.13563716352E+04  0.00000000000E+00 0. -1.
        -13    1    5    5    0    0  0.68428644676E+02  0.22365740889E+02  0.12270207657E+04  0.12291308577E+04  0.00000000000E+00 0.  1.
          3    1    6    6  503    0 -0.24194546742E+02  0.63732104745E+02  0.33736224370E+02  0.76061094536E+02  0.00000000000E+00 0. -1.
         -3    1    6    6    0  503 -0.77696017218E+02  0.21813133866E+02  0.13402634355E+03  0.15644661922E+03  0.00000000000E+00 0.  1.
<mgrwt>
<rscale>  0 0.30448304E+03</rscale>
<asrwt>0</asrwt>
<pdfrwt beam="1">  1        1 0.43389663E-01 0.30448304E+03</pdfrwt>
<pdfrwt beam="2">  1       -1 0.43742843E+00 0.30448304E+03</pdfrwt>
<totfact> 0.46116186E-01</totfact>
</mgrwt>
</event>
<event>
12    1  0.1338445E-007  0.6895790E+03  0.7818608E-02  0.9735221E-01
         -2   -1    0    0    0  501 -0.00000000000E+00  0.00000000000E+00  0.46874161867E+03  0.46874161867E+03  0.00000000000E+00 0.  1.
          2   -1    0    0  501    0  0.00000000000E+00 -0.00000000000E+00 -0.11057074656E+04  0.11057074656E+04  0.00000000000E+00 0. -1.
         23    2    1    2    0    0  0.12078035764E+03 -0.57769720789E+03 -0.29583138353E+03  0.66636842110E+03  0.90601911450E+02 0.  0.
    5000000    2    1    2    0    0 -0.12078035764E+03  0.57769720789E+03 -0.34113446339E+03  0.90808066316E+03  0.59992983748E+03 0.  0.
         23    2    4    4    0    0 -0.30326480505E+02  0.63517519161E+03 -0.13365043929E+03  0.65572960230E+03  0.88043466283E+02 0.  0.
         23    2    4    4    0    0 -0.90453877133E+02 -0.57477983716E+02 -0.20748402410E+03  0.25235106086E+03  0.95633755355E+02 0.  0.
          4    1    3    3  502    0  0.98744356464E+02 -0.31229626764E+03 -0.12845381638E+03  0.35182352061E+03  0.00000000000E+00 0. -1.
         -4    1    3    3    0  502  0.22036001174E+02 -0.26540094026E+03 -0.16737756716E+03  0.31454490049E+03  0.00000000000E+00 0.  1.
         11    1    5    5    0    0 -0.60313961450E+02  0.34626093257E+03 -0.75991216186E+02  0.35959570674E+03  0.00000000000E+00 0. -1.
        -11    1    5    5    0    0  0.29987480944E+02  0.28891425904E+03 -0.57659223108E+02  0.29613389556E+03  0.00000000000E+00 0.  1.
          1    1    6    6  503    0 -0.90577276531E+02 -0.48158339373E+01 -0.13860963842E+03  0.16565043659E+03  0.00000000000E+00 0. -1.
         -1    1    6    6    0  503  0.12339939832E+00 -0.52662149779E+02 -0.68874385678E+02  0.86700624273E+02  0.00000000000E+00 0.  1.
<mgrwt>
<rscale>  0 0.68957900E+03</rscale>
<asrwt>0</asrwt>
<pdfrwt beam="1">  1        2 0.17010884E+00 0.68957900E+03</pdfrwt>
<pdfrwt beam="2">  1       -2 0.72114096E-01 0.68957900E+03</pdfrwt>
<totfact> 0.38508846E+01</totfact>
</mgrwt>
</event>
<event>
12    1  0.1338445E-007  0.6555659E+03  0.7818608E-02  0.9796391E-01
         -2   -1    0    0    0  501 -0.00000000000E+00  0.00000000000E+00  0.20590457128E+03  0.20590457128E+03  0.00000000000E+00 0. -1.
          2   -1    0    0  501    0  0.00000000000E+00 -0.00000000000E+00 -0.27582720916E+04  0.27582720916E+04  0.00000000000E+00 0.  1.
         23    2    1    2    0    0  0.35459410564E+03  0.39965119124E+03 -0.17366416411E+04  0.18192465847E+04  0.90971930055E+02 0.  0.
    5000000    2    1    2    0    0 -0.35459410564E+03 -0.39965119124E+03 -0.81572587922E+03  0.11449300781E+04  0.59999843282E+03 0.  0.
         23    2    4    4    0    0  0.12820029526E+03 -0.18696106204E+03 -0.13540873662E+03  0.27919246344E+03  0.90681592772E+02 0.  0.
         23    2    4    4    0    0 -0.48279440090E+03 -0.21269012921E+03 -0.68031714260E+03  0.86573761470E+03  0.91338263582E+02 0.  0.
          2    1    3    3  502    0  0.22007572150E+03  0.19580183699E+03 -0.85069959311E+03  0.90025634143E+03  0.00000000000E+00 0. -1.
         -2    1    3    3    0  502  0.13451838413E+03  0.20384935425E+03 -0.88594204798E+03  0.91899024330E+03  0.00000000000E+00 0.  1.
         11    1    5    5    0    0  0.92746396423E+02 -0.18222775678E+03 -0.95731755091E+02  0.22577293532E+03  0.00000000000E+00 0. -1.
        -11    1    5    5    0    0  0.35453898836E+02 -0.47333052553E+01 -0.39676981532E+02  0.53419528122E+02  0.00000000000E+00 0.  1.
          1    1    6    6  503    0 -0.43652644966E+02 -0.43078191759E+02 -0.11271026427E+03  0.12831557851E+03  0.00000000000E+00 0. -1.
         -1    1    6    6    0  503 -0.43914175593E+03 -0.16961193745E+03 -0.56760687833E+03  0.73742203619E+03  0.00000000000E+00 0.  1.
<mgrwt>
<rscale>  0 0.65556593E+03</rscale>
<asrwt>0</asrwt>
<pdfrwt beam="1">  1        2 0.42434955E+00 0.65556593E+03</pdfrwt>
<pdfrwt beam="2">  1       -2 0.31677627E-01 0.65556593E+03</pdfrwt>
<totfact> 0.24230285E+01</totfact>
</mgrwt>
</event>
<event>
12    1  0.1338445E-007  0.4765778E+03  0.7818608E-02  0.1020080E+00
         -2   -1    0    0    0  501 -0.00000000000E+00  0.00000000000E+00  0.23381984663E+03  0.23381984663E+03  0.00000000000E+00 0.  1.
          2   -1    0    0  501    0  0.00000000000E+00 -0.00000000000E+00 -0.11236227803E+04  0.11236227803E+04  0.00000000000E+00 0. -1.
         23    2    1    2    0    0  0.27449206284E+03  0.13542922907E+03 -0.45419080404E+03  0.55526840263E+03  0.91360515746E+02 0.  0.
    5000000    2    1    2    0    0 -0.27449206284E+03 -0.13542922907E+03 -0.43561212961E+03  0.80217422427E+03  0.60003215745E+03 0.  0.
         23    2    4    4    0    0 -0.98418158362E+02 -0.34591666862E+03 -0.16712013782E+03  0.40738891443E+03  0.93231494703E+02 0.  0.
         23    2    4    4    0    0 -0.17607390448E+03  0.21048743956E+03 -0.26849199179E+03  0.39478530984E+03  0.91981026107E+02 0.  0.
          1    1    3    3  502    0  0.92658766351E+02  0.38776071921E+02 -0.22932933987E+03  0.25036209150E+03  0.00000000000E+00 0. -1.
         -1    1    3    3    0  502  0.18183329649E+03  0.96653157145E+02 -0.22486146417E+03  0.30490631113E+03  0.00000000000E+00 0.  1.
         11    1    5    5    0    0 -0.17938674652E+02 -0.22817822415E+03 -0.10025638228E+03  0.24987685009E+03  0.00000000000E+00 0. -1.
        -11    1    5    5    0    0 -0.80479483710E+02 -0.11773844447E+03 -0.66863755538E+02  0.15751206433E+03  0.00000000000E+00 0.  1.
          3    1    6    6  503    0 -0.63545905635E+02  0.60140883349E+02 -0.32829872081E+02  0.93449496916E+02  0.00000000000E+00 0. -1.
         -3    1    6    6    0  503 -0.11252799884E+03  0.15034655621E+03 -0.23566211971E+03  0.30133581293E+03  0.00000000000E+00 0.  1.
<mgrwt>
<rscale>  0 0.47657777E+03</rscale>
<asrwt>0</asrwt>
<pdfrwt beam="1">  1        2 0.17286505E+00 0.47657777E+03</pdfrwt>
<pdfrwt beam="2">  1       -2 0.35972283E-01 0.47657777E+03</pdfrwt>
<totfact> 0.15863280E+02</totfact>
</mgrwt>
</event>
<event>
12    1  0.1338445E-007  0.9221486E+03  0.7818608E-02  0.9398310E-01
         -2   -1    0    0    0  501 -0.00000000000E+00  0.00000000000E+00  0.11143391086E+04  0.11143391086E+04  0.00000000000E+00 0.  1.
          2   -1    0    0  501    0  0.00000000000E+00 -0.00000000000E+00 -0.81681299928E+03  0.81681299928E+03  0.00000000000E+00 0. -1.
         23    2    1    2    0    0 -0.82003457796E+03 -0.12675866986E+03 -0.82573417572E+02  0.83889267944E+03  0.91641087351E+02 0.  0.
    5000000    2    1    2    0    0  0.82003457796E+03  0.12675866986E+03  0.38009952693E+03  0.10922594285E+04  0.60002544885E+03 0.  0.
         23    2    4    4    0    0 -0.10143966478E+02  0.16411980739E+03  0.59327469856E+02  0.19709196273E+03  0.91034509184E+02 0.  0.
         23    2    4    4    0    0  0.83017854444E+03 -0.37361137522E+02  0.32077205707E+03  0.89516746574E+03  0.88531400469E+02 0.  0.
          2    1    3    3  502    0 -0.39939095143E+03 -0.37120294592E+02 -0.87421847752E+00  0.40111321670E+03  0.00000000000E+00 0. -1.
         -2    1    3    3    0  502 -0.42064362653E+03 -0.89638375273E+02 -0.81699199095E+02  0.43777946274E+03  0.00000000000E+00 0.  1.
         13    1    5    5    0    0 -0.33195178940E+02  0.27113717355E+02  0.36501261093E+02  0.56297563314E+02  0.00000000000E+00 0.  1.
        -13    1    5    5    0    0  0.23051212462E+02  0.13700609003E+03  0.22826208763E+02  0.14079439942E+03  0.00000000000E+00 0. -1.
          3    1    6    6  503    0  0.55818346633E+03 -0.14894153910E+02  0.17168395752E+03  0.58417976615E+03  0.00000000000E+00 0. -1.
         -3    1    6    6    0  503  0.27199507811E+03 -0.22466983612E+02  0.14908809955E+03  0.31098769959E+03  0.00000000000E+00 0.  1.
<mgrwt>
<rscale>  0 0.92214856E+03</rscale>
<asrwt>0</asrwt>
<pdfrwt beam="1">  1        2 0.12566354E+00 0.92214856E+03</pdfrwt>
<pdfrwt beam="2">  1       -2 0.17143679E+00 0.92214856E+03</pdfrwt>
<totfact> 0.69682659E+00</totfact>
</mgrwt>
</event>
<event>
12    1  0.1338445E-007  0.6452827E+03  0.7818608E-02  0.9815671E-01
          2   -1    0    0  501    0  0.00000000000E+00  0.00000000000E+00  0.18259574039E+04  0.18259574039E+04  0.00000000000E+00 0.  1.
         -2   -1    0    0    0  501 -0.00000000000E+00 -0.00000000000E+00 -0.31015120349E+03  0.31015120349E+03  0.00000000000E+00 0. -1.
         23    2    1    2    0    0  0.50553574998E+03 -0.25958025744E+03  0.10249791650E+04  0.11752739933E+04  0.87967983663E+02 0.  0.
    5000000    2    1    2    0    0 -0.50553574998E+03  0.25958025744E+03  0.49082703545E+03  0.96083461411E+03  0.59945281081E+03 0.  0.
         23    2    4    4    0    0 -0.56716820379E+03  0.17739611844E+03  0.19076690052E+03  0.63068485638E+03  0.90676477148E+02 0.  0.
         23    2    4    4    0    0  0.61632453811E+02  0.82184139003E+02  0.30006013494E+03  0.33014975774E+03  0.91705975208E+02 0.  0.
          2    1    3    3  502    0  0.32131767400E+03 -0.18498024261E+03  0.58663145463E+03  0.69397348749E+03  0.00000000000E+00 0. -1.
         -2    1    3    3    0  502  0.18421807597E+03 -0.74600014826E+02  0.43834771037E+03  0.48130050583E+03  0.00000000000E+00 0.  1.
         13    1    5    5    0    0 -0.36796275215E+03  0.76692058595E+02  0.14474250401E+03  0.40277618014E+03  0.00000000000E+00 0. -1.
        -13    1    5    5    0    0 -0.19920545164E+03  0.10070405984E+03  0.46024396509E+02  0.22790867624E+03  0.00000000000E+00 0.  1.
          4    1    6    6  503    0  0.14328647329E+02 -0.10601791881E+02  0.12642232900E+03  0.12767268070E+03  0.00000000000E+00 0. -1.
         -4    1    6    6    0  503  0.47303806482E+02  0.92785930884E+02  0.17363780593E+03  0.20247707704E+03  0.00000000000E+00 0.  1.
<mgrwt>
<rscale>  0 0.64528266E+03</rscale>
<asrwt>0</asrwt>
<pdfrwt beam="1">  1        2 0.28091652E+00 0.64528266E+03</pdfrwt>
<pdfrwt beam="2">  1       -2 0.47715571E-01 0.64528266E+03</pdfrwt>
<totfact> 0.36223020E+01</totfact>
</mgrwt>
</event>
<event>
12    1  0.1338445E-007  0.5368898E+03  0.7818608E-02  0.1004575E+00
          2   -1    0    0  501    0  0.00000000000E+00  0.00000000000E+00  0.22193788229E+04  0.22193788229E+04  0.00000000000E+00 0. -1.
         -2   -1    0    0    0  501 -0.00000000000E+00 -0.00000000000E+00 -0.28671382475E+03  0.28671382475E+03  0.00000000000E+00 0.  1.
         23    2    1    2    0    0  0.32177941105E+03 -0.18295280899E+03 -0.65861621783E+02  0.38719750440E+03  0.92576641227E+02 0.  0.
    5000000    2    1    2    0    0 -0.32177941105E+03  0.18295280899E+03  0.19985266199E+04  0.21188951432E+04  0.59882740236E+03 0.  0.
         23    2    4    4    0    0 -0.45724063063E+03  0.21237164581E+02  0.14744988573E+04  0.15465158236E+04  0.89690027316E+02 0.  0.
         23    2    4    4    0    0  0.13546121959E+03  0.16171564441E+03  0.52402776256E+03  0.57237931958E+03  0.92256695659E+02 0.  0.
          3    1    3    3  502    0  0.21260747430E+03 -0.70070901036E+02 -0.49897550882E+02  0.22935046301E+03  0.00000000000E+00 0. -1.
         -3    1    3    3    0  502  0.10917193675E+03 -0.11288190795E+03 -0.15964070901E+02  0.15784704139E+03  0.00000000000E+00 0.  1.
         13    1    5    5    0    0 -0.35133514035E+03  0.48737145046E+02  0.11885403379E+04  0.12403385929E+04  0.00000000000E+00 0.  1.
        -13    1    5    5    0    0 -0.10590549029E+03 -0.27499980465E+02  0.28595851941E+03  0.30617723073E+03  0.00000000000E+00 0. -1.
          1    1    6    6  503    0  0.76615171055E+02  0.26105657468E+02  0.21736053571E+03  0.23194178638E+03  0.00000000000E+00 0. -1.
         -1    1    6    6    0  503  0.58846048532E+02  0.13560998694E+03  0.30666722685E+03  0.34043753320E+03  0.00000000000E+00 0.  1.
<mgrwt>
<rscale>  0 0.53688980E+03</rscale>
<asrwt>0</asrwt>
<pdfrwt beam="1">  1        2 0.34144288E+00 0.53688980E+03</pdfrwt>
<pdfrwt beam="2">  1       -2 0.44109821E-01 0.53688980E+03</pdfrwt>
<totfact> 0.26391408E+01</totfact>
</mgrwt>
</event>
<event>
12    1  0.1338445E-007  0.5015056E+03  0.7818608E-02  0.1013387E+00
         -2   -1    0    0    0  501 -0.00000000000E+00  0.00000000000E+00  0.10909224503E+04  0.10909224503E+04  0.00000000000E+00 0.  1.
          2   -1    0    0  501    0  0.00000000000E+00 -0.00000000000E+00 -0.48252154030E+03  0.48252154030E+03  0.00000000000E+00 0. -1.
         23    2    1    2    0    0 -0.47577906459E+03 -0.54988211890E+02 -0.13379355584E+03  0.50555023268E+03  0.91054381679E+02 0.  0.
    5000000    2    1    2    0    0  0.47577906459E+03  0.54988211890E+02  0.74219446585E+03  0.10678937579E+04  0.60012917887E+03 0.  0.
         23    2    4    4    0    0  0.35784636307E+03  0.62576912768E+02  0.81824637886E+03  0.90010690518E+03  0.93249207329E+02 0.  0.
         23    2    4    4    0    0  0.11793270152E+03 -0.75887008777E+01 -0.76051913004E+02  0.16778685275E+03  0.91666918871E+02 0.  0.
          3    1    3    3  502    0 -0.18180895887E+03 -0.43968340493E+02 -0.12877549905E+02  0.18749278328E+03  0.00000000000E+00 0. -1.
         -3    1    3    3    0  502 -0.29397010573E+03 -0.11019871397E+02 -0.12091600594E+03  0.31805744940E+03  0.00000000000E+00 0.  1.
         13    1    5    5    0    0  0.20410709775E+03  0.77598474261E+02  0.52660519943E+03  0.57008268403E+03  0.00000000000E+00 0.  1.
        -13    1    5    5    0    0  0.15373926533E+03 -0.15021561493E+02  0.29164117942E+03  0.33002422115E+03  0.00000000000E+00 0. -1.
          2    1    6    6  503    0  0.99027031279E+02 -0.43662226425E+02 -0.61862642675E+02  0.12465845137E+03  0.00000000000E+00 0. -1.
         -2    1    6    6    0  503  0.18905670240E+02  0.36073525548E+02 -0.14189270329E+02  0.43128401374E+02  0.00000000000E+00 0.  1.
<mgrwt>
<rscale>  0 0.50150559E+03</rscale>
<asrwt>0</asrwt>
<pdfrwt beam="1">  1        2 0.74234084E-01 0.50150559E+03</pdfrwt>
<pdfrwt beam="2">  1       -2 0.16783422E+00 0.50150559E+03</pdfrwt>
<totfact> 0.14805728E+01</totfact>
</mgrwt>
</event>
<event>
12    1  0.1338445E-007  0.5520774E+03  0.7818608E-02  0.1001014E+00
         -1   -1    0    0    0  501 -0.00000000000E+00  0.00000000000E+00  0.25763860398E+04  0.25763860398E+04  0.00000000000E+00 0.  1.
          1   -1    0    0  501    0  0.00000000000E+00 -0.00000000000E+00 -0.14552020399E+03  0.14552020399E+03  0.00000000000E+00 0. -1.
         23    2    1    2    0    0  0.30353631050E+03  0.31635235459E+03  0.62409185824E+03  0.76823954533E+03  0.92131685305E+02 0.  0.
    5000000    2    1    2    0    0 -0.30353631050E+03 -0.31635235459E+03  0.18067739775E+04  0.19536666984E+04  0.60014019909E+03 0.  0.
         23    2    4    4    0    0 -0.27490033965E+03 -0.44360911769E+03  0.10005014666E+04  0.11320246343E+04  0.90096293293E+02 0.  0.
         23    2    4    4    0    0 -0.28635970848E+02  0.12725676310E+03  0.80627251096E+03  0.82164206409E+03  0.89476348692E+02 0.  0.
          4    1    3    3  502    0  0.26345976189E+03  0.29080989257E+03  0.59426031897E+03  0.71212833566E+03  0.00000000000E+00 0. -1.
         -4    1    3    3    0  502  0.40076548612E+02  0.25542462027E+02  0.29831539265E+02  0.56111209664E+02  0.00000000000E+00 0.  1.
         11    1    5    5    0    0 -0.11499084648E+03 -0.13437050617E+03  0.26938290179E+03  0.32225064077E+03  0.00000000000E+00 0. -1.
        -11    1    5    5    0    0 -0.15990949317E+03 -0.30923861152E+03  0.73111856479E+03  0.80977399356E+03  0.00000000000E+00 0.  1.
          1    1    6    6  503    0 -0.73246371247E+01  0.11378275734E+03  0.44102106272E+03  0.45552139789E+03  0.00000000000E+00 0. -1.
         -1    1    6    6    0  503 -0.21311333723E+02  0.13474005761E+02  0.36525144824E+03  0.36612066620E+03  0.00000000000E+00 0.  1.
<mgrwt>
<rscale>  0 0.55207737E+03</rscale>
<asrwt>0</asrwt>
<pdfrwt beam="1">  1        1 0.22387726E-01 0.55207737E+03</pdfrwt>
<pdfrwt beam="2">  1       -1 0.39636705E+00 0.55207737E+03</pdfrwt>
<totfact> 0.18864609E+00</totfact>
</mgrwt>
</event>
<event>
12    1  0.1338445E-007  0.4656367E+03  0.7818608E-02  0.1023159E+00
          2   -1    0    0  501    0  0.00000000000E+00  0.00000000000E+00  0.13501181895E+04  0.13501181895E+04  0.00000000000E+00 0. -1.
         -2   -1    0    0    0  501 -0.00000000000E+00 -0.00000000000E+00 -0.19191282198E+03  0.19191282198E+03  0.00000000000E+00 0.  1.
         23    2    1    2    0    0  0.28659804911E+03 -0.98091295566E+02  0.20982371703E+03  0.37961418711E+03  0.91217294434E+02 0.  0.
    5000000    2    1    2    0    0 -0.28659804911E+03  0.98091295566E+02  0.94838165052E+03  0.11624168244E+04  0.60002064513E+03 0.  0.
         23    2    4    4    0    0 -0.26222898675E+03  0.30417971588E+03  0.77491657573E+03  0.87748576121E+03  0.90532981537E+02 0.  0.
         23    2    4    4    0    0 -0.24369062365E+02 -0.20608842031E+03  0.17346507479E+03  0.28493106319E+03  0.89606307876E+02 0.  0.
          1    1    3    3  502    0  0.24825148922E+03 -0.51743666065E+02  0.18779861743E+03  0.31555432114E+03  0.00000000000E+00 0. -1.
         -1    1    3    3    0  502  0.38346559890E+02 -0.46347629501E+02  0.22025099596E+02  0.64059865968E+02  0.00000000000E+00 0.  1.
         11    1    5    5    0    0 -0.15117900417E+03  0.11581569929E+03  0.31212391496E+03  0.36563602912E+03  0.00000000000E+00 0. -1.
        -11    1    5    5    0    0 -0.11104998258E+03  0.18836401658E+03  0.46279266077E+03  0.51184973209E+03  0.00000000000E+00 0.  1.
          2    1    6    6  503    0 -0.25379794208E+02 -0.13695249733E+03  0.16396421180E+03  0.21513805621E+03  0.00000000000E+00 0. -1.
         -2    1    6    6    0  503  0.10107318434E+01 -0.69135922987E+02  0.95008629921E+01  0.69793006983E+02  0.00000000000E+00 0.  1.
<mgrwt>
<rscale>  0 0.46563671E+03</rscale>
<asrwt>0</asrwt>
<pdfrwt beam="1">  1        2 0.20771048E+00 0.46563671E+03</pdfrwt>
<pdfrwt beam="2">  1       -2 0.29525050E-01 0.46563671E+03</pdfrwt>
<totfact> 0.16997705E+02</totfact>
</mgrwt>
</event>
<event>
12    1  0.1338445E-007  0.8635367E+03  0.7818608E-02  0.9472346E-01
         -2   -1    0    0    0  501 -0.00000000000E+00  0.00000000000E+00  0.10030863260E+04  0.10030863260E+04  0.00000000000E+00 0.  1.
          2   -1    0    0  501    0  0.00000000000E+00 -0.00000000000E+00 -0.19966323987E+04  0.19966323987E+04  0.00000000000E+00 0. -1.
         23    2    1    2    0    0 -0.19361508490E+03 -0.74798660608E+03  0.69854490328E+03  0.10452074394E+04  0.86734338280E+02 0.  0.
    5000000    2    1    2    0    0  0.19361508490E+03  0.74798660608E+03 -0.16920909760E+04  0.19545112853E+04  0.59997644064E+03 0.  0.
         23    2    4    4    0    0  0.35887401926E+03  0.33409798188E+03 -0.11005899997E+04  0.12083252080E+04  0.91320520393E+02 0.  0.
         23    2    4    4    0    0 -0.16525893436E+03  0.41388862420E+03 -0.59150097623E+03  0.74618607732E+03  0.91136976468E+02 0.  0.
          4    1    3    3  502    0 -0.99201404053E+02 -0.53155072401E+03  0.46662181613E+03  0.71422896192E+03  0.00000000000E+00 0.  1.
         -4    1    3    3    0  502 -0.94413680851E+02 -0.21643588207E+03  0.23192308715E+03  0.33097847745E+03  0.00000000000E+00 0. -1.
         11    1    5    5    0    0  0.31364813681E+03  0.32461019430E+03 -0.97233098080E+03  0.10719955542E+04  0.00000000000E+00 0. -1.
        -11    1    5    5    0    0  0.45225882454E+02  0.94877875816E+01 -0.12825901894E+03  0.13632965377E+03  0.00000000000E+00 0.  1.
          3    1    6    6  503    0 -0.95021679241E+02  0.32896371236E+03 -0.47795202721E+03  0.58794930384E+03  0.00000000000E+00 0. -1.
         -3    1    6    6    0  503 -0.70237255115E+02  0.84924911838E+02 -0.11354894902E+03  0.15823677348E+03  0.00000000000E+00 0.  1.
<mgrwt>
<rscale>  0 0.86353667E+03</rscale>
<asrwt>0</asrwt>
<pdfrwt beam="1">  1        2 0.30717422E+00 0.86353667E+03</pdfrwt>
<pdfrwt beam="2">  1       -2 0.15432097E+00 0.86353667E+03</pdfrwt>
<totfact> 0.18974073E+00</totfact>
</mgrwt>
</event>
<event>
12    1  0.1338445E-007  0.3564293E+03  0.7818608E-02  0.1060007E+00
          1   -1    0    0  501    0  0.00000000000E+00  0.00000000000E+00  0.96263059918E+03  0.96263059918E+03  0.00000000000E+00 0. -1.
         -1   -1    0    0    0  501 -0.00000000000E+00 -0.00000000000E+00 -0.14372427821E+03  0.14372427821E+03  0.00000000000E+00 0.  1.
         23    2    1    2    0    0  0.11152387473E+01 -0.93657084222E+02  0.10130589035E+03  0.16632826551E+03  0.92894108027E+02 0.  0.
    5000000    2    1    2    0    0 -0.11152387473E+01  0.93657084222E+02  0.71760043062E+03  0.94002661187E+03  0.59993896342E+03 0.  0.
         23    2    4    4    0    0  0.33195424312E+02 -0.23822938797E+03  0.35862559606E+03  0.44165139708E+03  0.92673949448E+02 0.  0.
         23    2    4    4    0    0 -0.34310663060E+02  0.33188647219E+03  0.35897483456E+03  0.49837521479E+03  0.90493485132E+02 0.  0.
          1    1    3    3  502    0 -0.32649325536E+02 -0.86526389379E+02  0.51856169781E+02  0.10602762310E+03  0.00000000000E+00 0. -1.
         -1    1    3    3    0  502  0.33764564284E+02 -0.71306948429E+01  0.49449720573E+02  0.60300642409E+02  0.00000000000E+00 0.  1.
         13    1    5    5    0    0  0.58694782223E+01 -0.11155255695E+03  0.90187109541E+02  0.14356928106E+03  0.00000000000E+00 0. -1.
        -13    1    5    5    0    0  0.27325946090E+02 -0.12667683102E+03  0.26843848652E+03  0.29808211602E+03  0.00000000000E+00 0.  1.
          2    1    6    6  503    0 -0.61957416414E+02  0.18483752897E+03  0.18290459411E+03  0.26731577602E+03  0.00000000000E+00 0. -1.
         -2    1    6    6    0  503  0.27646753354E+02  0.14704894323E+03  0.17607024045E+03  0.23105943877E+03  0.00000000000E+00 0.  1.
<mgrwt>
<rscale>  0 0.35642932E+03</rscale>
<asrwt>0</asrwt>
<pdfrwt beam="1">  1        1 0.14809701E+00 0.35642932E+03</pdfrwt>
<pdfrwt beam="2">  1       -1 0.22111428E-01 0.35642932E+03</pdfrwt>
<totfact> 0.29100824E+02</totfact>
</mgrwt>
</event>
<event>
12    1  0.1338445E-007  0.8485710E+03  0.7818608E-02  0.9492257E-01
          2   -1    0    0  501    0  0.00000000000E+00  0.00000000000E+00  0.53374278502E+03  0.53374278502E+03  0.00000000000E+00 0. -1.
         -2   -1    0    0    0  501 -0.00000000000E+00 -0.00000000000E+00 -0.16331695301E+04  0.16331695301E+04  0.00000000000E+00 0.  1.
         23    2    1    2    0    0 -0.13813384675E+03  0.82167925235E+03 -0.55003618716E+03  0.10024784491E+04  0.90473645007E+02 0.  0.
    5000000    2    1    2    0    0  0.13813384675E+03 -0.82167925235E+03 -0.54939055792E+03  0.11644338660E+04  0.59986539301E+03 0.  0.
         23    2    4    4    0    0 -0.11503166212E+02 -0.42516263493E+03 -0.58532080437E+03  0.72911578967E+03  0.90076643718E+02 0.  0.
         23    2    4    4    0    0  0.14963701296E+03 -0.39651661742E+03  0.35930246455E+02  0.43531807630E+03  0.92704807888E+02 0.  0.
          3    1    3    3  502    0 -0.13095960740E+03  0.60918087047E+03 -0.37635729463E+03  0.72793994597E+03  0.00000000000E+00 0. -1.
         -3    1    3    3    0  502 -0.71742393464E+01  0.21249838189E+03 -0.17367889253E+03  0.27453850317E+03  0.00000000000E+00 0.  1.
         13    1    5    5    0    0 -0.29366616736E+02 -0.18084502247E+03 -0.18922527099E+03  0.26338854096E+03  0.00000000000E+00 0. -1.
        -13    1    5    5    0    0  0.17863450524E+02 -0.24431761247E+03 -0.39609553338E+03  0.46572724871E+03  0.00000000000E+00 0.  1.
          3    1    6    6  503    0  0.47467389372E+02 -0.25093336037E+03  0.32357739090E+02  0.25742518851E+03  0.00000000000E+00 0. -1.
         -3    1    6    6    0  503  0.10216962358E+03 -0.14558325704E+03  0.35725073651E+01  0.17789288778E+03  0.00000000000E+00 0.  1.
<mgrwt>
<rscale>  0 0.84857104E+03</rscale>
<asrwt>0</asrwt>
<pdfrwt beam="1">  1        2 0.82114275E-01 0.84857104E+03</pdfrwt>
<pdfrwt beam="2">  1       -2 0.25125685E+00 0.84857104E+03</pdfrwt>
<totfact> 0.36611258E+00</totfact>
</mgrwt>
</event>
<event>
12    1  0.1338445E-007  0.3702319E+03  0.7818608E-02  0.1054604E+00
         -2   -1    0    0    0  501 -0.00000000000E+00  0.00000000000E+00  0.12832520937E+03  0.12832520937E+03  0.00000000000E+00 0.  1.
          2   -1    0    0  501    0  0.00000000000E+00 -0.00000000000E+00 -0.16733477162E+04  0.16733477162E+04  0.00000000000E+00 0. -1.
         23    2    1    2    0    0  0.78176952573E+02 -0.16440914668E+03 -0.81177378009E+03  0.83690795036E+03  0.91083719227E+02 0.  0.
    5000000    2    1    2    0    0 -0.78176952573E+02  0.16440914668E+03 -0.73324872672E+03  0.96476497519E+03  0.59997979857E+03 0.  0.
         23    2    4    4    0    0 -0.95311570760E+02 -0.17202693873E+03 -0.93745107544E+02  0.23637705839E+03  0.91697357500E+02 0.  0.
         23    2    4    4    0    0  0.17134618187E+02  0.33643608541E+03 -0.63950361918E+03  0.72838791681E+03  0.90006909163E+02 0.  0.
          1    1    3    3  502    0  0.44352930921E+02 -0.16111351001E+03 -0.61890432067E+03  0.64106731607E+03  0.00000000000E+00 0. -1.
         -1    1    3    3    0  502  0.33824021651E+02 -0.32956366658E+01 -0.19286945942E+03  0.19584063429E+03  0.00000000000E+00 0.  1.
         13    1    5    5    0    0 -0.97936268747E+02 -0.14849135204E+03 -0.10861050634E+03  0.20841649755E+03  0.00000000000E+00 0. -1.
        -13    1    5    5    0    0  0.26246979873E+01 -0.23535586698E+02  0.14865398795E+02  0.27960560833E+02  0.00000000000E+00 0.  1.
          1    1    6    6  503    0  0.19826359130E+02  0.14421683418E+03 -0.36774021543E+03  0.39550530442E+03  0.00000000000E+00 0. -1.
         -1    1    6    6    0  503 -0.26917409433E+01  0.19221925123E+03 -0.27176340375E+03  0.33288261239E+03  0.00000000000E+00 0.  1.
<mgrwt>
<rscale>  0 0.37023188E+03</rscale>
<asrwt>0</asrwt>
<pdfrwt beam="1">  1        2 0.25743811E+00 0.37023188E+03</pdfrwt>
<pdfrwt beam="2">  1       -2 0.19742340E-01 0.37023188E+03</pdfrwt>
<totfact> 0.23466570E+02</totfact>
</mgrwt>
</event>
<event>
12    1  0.1338445E-007  0.1024097E+04  0.7818608E-02  0.9282503E-01
         -2   -1    0    0    0  501 -0.00000000000E+00  0.00000000000E+00  0.22321064418E+03  0.22321064418E+03  0.00000000000E+00 0.  1.
          2   -1    0    0  501    0  0.00000000000E+00 -0.00000000000E+00 -0.49720098517E+04  0.49720098517E+04  0.00000000000E+00 0. -1.
         23    2    1    2    0    0  0.93331644121E+03  0.19179077238E+03 -0.25755151740E+04  0.27475618788E+04  0.89188489849E+02 0.  0.
    5000000    2    1    2    0    0 -0.93331644121E+03 -0.19179077238E+03 -0.21732840336E+04  0.24476586171E+04  0.60000494618E+03 0.  0.
         23    2    4    4    0    0 -0.12997337409E+03 -0.25371299635E+03 -0.41452980301E+03  0.51102827324E+03  0.89730574361E+02 0.  0.
         23    2    4    4    0    0 -0.80334306713E+03  0.61922223975E+02 -0.17587542306E+04  0.19366303439E+04  0.90145437462E+02 0.  0.
          4    1    3    3  502    0  0.47729941534E+03  0.66982199050E+02 -0.13935878604E+04  0.14745807783E+04  0.00000000000E+00 0.  1.
         -4    1    3    3    0  502  0.45601702588E+03  0.12480857333E+03 -0.11819273135E+04  0.12729811005E+04  0.00000000000E+00 0. -1.
         11    1    5    5    0    0 -0.55370108836E+02 -0.97383547289E+02 -0.24138326809E+03  0.26611141717E+03  0.00000000000E+00 0. -1.
        -11    1    5    5    0    0 -0.74603265253E+02 -0.15632944906E+03 -0.17314653492E+03  0.24491685607E+03  0.00000000000E+00 0.  1.
          1    1    6    6  503    0 -0.44191697977E+03  0.25933505441E+01 -0.88454976728E+03  0.98880009774E+03  0.00000000000E+00 0. -1.
         -1    1    6    6    0  503 -0.36142608735E+03  0.59328873431E+02 -0.87420446330E+03  0.94783024614E+03  0.00000000000E+00 0.  1.
<mgrwt>
<rscale>  0 0.10240974E+04</rscale>
<asrwt>0</asrwt>
<pdfrwt beam="1">  1        2 0.76492459E+00 0.10240974E+04</pdfrwt>
<pdfrwt beam="2">  1       -2 0.34340099E-01 0.10240974E+04</pdfrwt>
<totfact> 0.32437106E-01</totfact>
</mgrwt>
</event>
<event>
12    1  0.1338445E-007  0.1032706E+04  0.7818608E-02  0.9273383E-01
          2   -1    0    0  501    0  0.00000000000E+00  0.00000000000E+00  0.10843683092E+04  0.10843683092E+04  0.00000000000E+00 0. -1.
         -2   -1    0    0    0  501 -0.00000000000E+00 -0.00000000000E+00 -0.11141002453E+04  0.11141002453E+04  0.00000000000E+00 0.  1.
         23    2    1    2    0    0 -0.43152113669E+03  0.91460368383E+03 -0.10409435495E+03  0.10202822558E+04  0.86196617043E+02 0.  0.
    5000000    2    1    2    0    0  0.43152113669E+03 -0.91460368383E+03  0.74362418849E+02  0.11781862988E+04  0.59990232154E+03 0.  0.
         23    2    4    4    0    0  0.41596085167E+03 -0.87891515290E+03 -0.95760146629E+02  0.98152618179E+03  0.93318614082E+02 0.  0.
         23    2    4    4    0    0  0.15560285022E+02 -0.35688530925E+02  0.17012256548E+03  0.19666011698E+03  0.90651644312E+02 0.  0.
          1    1    3    3  502    0 -0.19197721693E+03  0.40029452020E+03 -0.88651191085E+02  0.45271402497E+03  0.00000000000E+00 0. -1.
         -1    1    3    3    0  502 -0.23954391976E+03  0.51430916363E+03 -0.15443163867E+02  0.56756823079E+03  0.00000000000E+00 0.  1.
         13    1    5    5    0    0  0.33956222969E+03 -0.66217969330E+03 -0.10497766898E+03  0.75153493933E+03  0.00000000000E+00 0.  1.
        -13    1    5    5    0    0  0.76398621973E+02 -0.21673545961E+03  0.92175223478E+01  0.22999124246E+03  0.00000000000E+00 0. -1.
          1    1    6    6  503    0  0.43636537979E+02 -0.20524980848E+02  0.39913042865E+02  0.62597709833E+02  0.00000000000E+00 0. -1.
         -1    1    6    6    0  503 -0.28076252957E+02 -0.15163550077E+02  0.13020952261E+03  0.13406240715E+03  0.00000000000E+00 0.  1.
<mgrwt>
<rscale>  0 0.10327064E+04</rscale>
<asrwt>0</asrwt>
<pdfrwt beam="1">  1        2 0.16682589E+00 0.10327064E+04</pdfrwt>
<pdfrwt beam="2">  1       -2 0.17140004E+00 0.10327064E+04</pdfrwt>
<totfact> 0.45839952E+00</totfact>
</mgrwt>
</event>
<event>
12    1  0.1338445E-007  0.5390283E+03  0.7818608E-02  0.1004066E+00
         -1   -1    0    0    0  501 -0.00000000000E+00  0.00000000000E+00  0.70867591911E+03  0.70867591911E+03  0.00000000000E+00 0.  1.
          1   -1    0    0  501    0  0.00000000000E+00 -0.00000000000E+00 -0.44421104271E+03  0.44421104271E+03  0.00000000000E+00 0. -1.
         23    2    1    2    0    0  0.34583407464E+03 -0.18221087106E+03  0.43091978639E+02  0.40332354414E+03  0.89503932418E+02 0.  0.
    5000000    2    1    2    0    0 -0.34583407464E+03  0.18221087106E+03  0.22137289776E+03  0.74956341768E+03  0.60003112298E+03 0.  0.
         23    2    4    4    0    0 -0.36645744370E+03  0.34763418286E+03  0.96950746248E+02  0.52258902356E+03  0.92516253786E+02 0.  0.
         23    2    4    4    0    0  0.20623369061E+02 -0.16542331180E+03  0.12442215151E+03  0.22697439411E+03  0.90809186529E+02 0.  0.
          2    1    3    3  502    0  0.22463511470E+02  0.49421305473E+00  0.21786756582E+02  0.31297226019E+02  0.00000000000E+00 0. -1.
         -2    1    3    3    0  502  0.32337056317E+03 -0.18270508411E+03  0.21305222056E+02  0.37202631812E+03  0.00000000000E+00 0.  1.
         13    1    5    5    0    0 -0.25307728896E+03  0.19427304855E+03  0.91020549752E+02  0.33177533371E+03  0.00000000000E+00 0.  1.
        -13    1    5    5    0    0 -0.11338015474E+03  0.15336113430E+03  0.59301964962E+01  0.19081368985E+03  0.00000000000E+00 0. -1.
          4    1    6    6  503    0  0.32649128757E+02 -0.60088440095E+02  0.69546766107E+01  0.68738299138E+02  0.00000000000E+00 0. -1.
         -4    1    6    6    0  503 -0.12025759696E+02 -0.10533487171E+03  0.11746747490E+03  0.15823609498E+03  0.00000000000E+00 0.  1.
<mgrwt>
<rscale>  0 0.53902829E+03</rscale>
<asrwt>0</asrwt>
<pdfrwt beam="1">  1        1 0.68340160E-01 0.53902829E+03</pdfrwt>
<pdfrwt beam="2">  1       -1 0.10902706E+00 0.53902829E+03</pdfrwt>
<totfact> 0.42412066E+01</totfact>
</mgrwt>
</event>
<event>
12    1  0.1338445E-007  0.6125131E+03  0.7818608E-02  0.9879780E-01
          2   -1    0    0  501    0  0.00000000000E+00  0.00000000000E+00  0.14185381604E+04  0.14185381604E+04  0.00000000000E+00 0.  1.
         -2   -1    0    0    0  501 -0.00000000000E+00 -0.00000000000E+00 -0.35569182016E+03  0.35569182016E+03  0.00000000000E+00 0. -1.
         23    2    1    2    0    0  0.47522722895E+03 -0.28834278341E+03  0.64300799338E+03  0.85490292420E+03  0.91745574145E+02 0.  0.
    5000000    2    1    2    0    0 -0.47522722895E+03  0.28834278341E+03  0.41983834688E+03  0.91932705638E+03  0.59992959522E+03 0.  0.
         23    2    4    4    0    0 -0.20694501704E+02  0.16974604594E+03 -0.95898814093E+02  0.21575548971E+03  0.90065899651E+02 0.  0.
         23    2    4    4    0    0 -0.45453272724E+03  0.11859673747E+03  0.51573716097E+03  0.70357156668E+03  0.91449133193E+02 0.  0.
          2    1    3    3  502    0  0.20172373047E+03 -0.96197297517E+02  0.31810338691E+03  0.38876232874E+03  0.00000000000E+00 0.  1.
         -2    1    3    3    0  502  0.27350349848E+03 -0.19214548589E+03  0.32490460647E+03  0.46614059546E+03  0.00000000000E+00 0. -1.
         11    1    5    5    0    0 -0.49225301949E+02  0.64808531961E+02 -0.22096290103E+02  0.84329841712E+02  0.00000000000E+00 0.  1.
        -11    1    5    5    0    0  0.28530800245E+02  0.10493751398E+03 -0.73802523989E+02  0.13142564799E+03  0.00000000000E+00 0. -1.
          3    1    6    6  503    0 -0.12660672356E+03 -0.50180554723E+01  0.11379720619E+03  0.17030633420E+03  0.00000000000E+00 0. -1.
         -3    1    6    6    0  503 -0.32792600368E+03  0.12361479294E+03  0.40193995478E+03  0.53326523248E+03  0.00000000000E+00 0.  1.
<mgrwt>
<rscale>  0 0.61251308E+03</rscale>
<asrwt>0</asrwt>
<pdfrwt beam="1">  1        2 0.21823664E+00 0.61251308E+03</pdfrwt>
<pdfrwt beam="2">  1       -2 0.54721819E-01 0.61251308E+03</pdfrwt>
<totfact> 0.46016095E+01</totfact>
</mgrwt>
</event>
<event>
12    1  0.1338445E-007  0.5930518E+03  0.7818608E-02  0.9919927E-01
         -2   -1    0    0    0  501 -0.00000000000E+00  0.00000000000E+00  0.17086110558E+03  0.17086110558E+03  0.00000000000E+00 0.  1.
          2   -1    0    0  501    0  0.00000000000E+00 -0.00000000000E+00 -0.35002057159E+04  0.35002057159E+04  0.00000000000E+00 0. -1.
         23    2    1    2    0    0 -0.36108608013E+03  0.43491432134E+03 -0.64299773005E+03  0.86107737435E+03  0.92057262548E+02 0.  0.
    5000000    2    1    2    0    0  0.36108608013E+03 -0.43491432134E+03 -0.26863468802E+04  0.28099894471E+04  0.60003958847E+03 0.  0.
         23    2    4    4    0    0  0.34409983482E+03 -0.35769542910E+03 -0.26262645684E+04  0.26742645979E+04  0.89860114140E+02 0.  0.
         23    2    4    4    0    0  0.16986245308E+02 -0.77218892247E+02 -0.60082311817E+02  0.13572484917E+03  0.92520595764E+02 0.  0.
          3    1    3    3  502    0 -0.30647857874E+03  0.34294788174E+03 -0.56586580977E+03  0.72920949218E+03  0.00000000000E+00 0. -1.
         -3    1    3    3    0  502 -0.54607501394E+02  0.91966439604E+02 -0.77131920284E+02  0.13186788217E+03  0.00000000000E+00 0.  1.
         11    1    5    5    0    0  0.51852271857E+02 -0.90144508983E+02 -0.69887315952E+03  0.70656803189E+03  0.00000000000E+00 0. -1.
        -11    1    5    5    0    0  0.29224756296E+03 -0.26755092011E+03 -0.19273914089E+04  0.19676965660E+04  0.00000000000E+00 0.  1.
          4    1    6    6  503    0 -0.11191225270E+02 -0.88085085806E+02 -0.31703420587E+02  0.94283258012E+02  0.00000000000E+00 0. -1.
         -4    1    6    6    0  503  0.28177470577E+02  0.10866193559E+02 -0.28378891230E+02  0.41441591162E+02  0.00000000000E+00 0.  1.
<mgrwt>
<rscale>  0 0.59305182E+03</rscale>
<asrwt>0</asrwt>
<pdfrwt beam="1">  1        2 0.53849311E+00 0.59305182E+03</pdfrwt>
<pdfrwt beam="2">  1       -2 0.26286328E-01 0.59305182E+03</pdfrwt>
<totfact> 0.11863723E+01</totfact>
</mgrwt>
</event>
<event>
12    1  0.1338445E-007  0.2039995E+04  0.7818608E-02  0.8588147E-01
          1   -1    0    0  501    0  0.00000000000E+00  0.00000000000E+00  0.24939680882E+04  0.24939680882E+04  0.00000000000E+00 0. -1.
         -1   -1    0    0    0  501 -0.00000000000E+00 -0.00000000000E+00 -0.17246079621E+04  0.17246079621E+04  0.00000000000E+00 0.  1.
         23    2    1    2    0    0  0.19127823246E+04 -0.60951186720E+03  0.67920468175E+03  0.21213610217E+04  0.92804349639E+02 0.  0.
    5000000    2    1    2    0    0 -0.19127823246E+04  0.60951186720E+03  0.90155444338E+02  0.20972150287E+04  0.59995161055E+03 0.  0.
         23    2    4    4    0    0 -0.21925584755E+03 -0.80421826165E+02 -0.65960435293E+02  0.25971709032E+03  0.92527785943E+02 0.  0.
         23    2    4    4    0    0 -0.16935264770E+04  0.68993369336E+03  0.15611587963E+03  0.18374979384E+04  0.89364847981E+02 0.  0.
          3    1    3    3  502    0  0.11328702272E+04 -0.34490326875E+03  0.35509772107E+03  0.12363040112E+04  0.00000000000E+00 0. -1.
         -3    1    3    3    0  502  0.77991209733E+03 -0.26460859845E+03  0.32410696068E+03  0.88505701053E+03  0.00000000000E+00 0.  1.
         11    1    5    5    0    0 -0.79362353793E+02 -0.65390953440E+02  0.33221448921E+01  0.10288535677E+03  0.00000000000E+00 0.  1.
        -11    1    5    5    0    0 -0.13989349376E+03 -0.15030872725E+02 -0.69282580185E+02  0.15683173355E+03  0.00000000000E+00 0. -1.
          1    1    6    6  503    0 -0.85248175078E+03  0.34756943153E+03  0.12343540558E+03  0.92885194972E+03  0.00000000000E+00 0. -1.
         -1    1    6    6    0  503 -0.84104472622E+03  0.34236426183E+03  0.32680474055E+02  0.90864598864E+03  0.00000000000E+00 0.  1.
<mgrwt>
<rscale>  0 0.20399950E+04</rscale>
<asrwt>0</asrwt>
<pdfrwt beam="1">  1        1 0.38368740E+00 0.20399950E+04</pdfrwt>
<pdfrwt beam="2">  1       -1 0.26532430E+00 0.20399950E+04</pdfrwt>
<totfact> 0.67219930E-02</totfact>
</mgrwt>
</event>
<event>
12    1  0.1338445E-007  0.4014899E+03  0.7818608E-02  0.1043265E+00
          1   -1    0    0  501    0  0.00000000000E+00  0.00000000000E+00  0.73253549596E+03  0.73253549596E+03  0.00000000000E+00 0. -1.
         -1   -1    0    0    0  501 -0.00000000000E+00 -0.00000000000E+00 -0.33988382713E+03  0.33988382713E+03  0.00000000000E+00 0.  1.
         23    2    1    2    0    0 -0.46796152652E+02 -0.30726377651E+03  0.13066993624E+03  0.34762873918E+03  0.84677032347E+02 0.  0.
    5000000    2    1    2    0    0  0.46796152652E+02  0.30726377651E+03  0.26198173259E+03  0.72479058391E+03  0.60007170742E+03 0.  0.
         23    2    4    4    0    0 -0.12589196619E+03  0.40978967298E+02  0.34834184818E+03  0.38343333977E+03  0.90282999163E+02 0.  0.
         23    2    4    4    0    0  0.17268811884E+03  0.26628480921E+03 -0.86360115598E+02  0.34135724414E+03  0.91312170876E+02 0.  0.
          2    1    3    3  502    0  0.13233931281E+02 -0.17455541766E+03  0.87533201084E+02  0.19572121005E+03  0.00000000000E+00 0.  1.
         -2    1    3    3    0  502 -0.60030083933E+02 -0.13270835885E+03  0.43136735160E+02  0.15190752913E+03  0.00000000000E+00 0. -1.
         11    1    5    5    0    0 -0.11340664018E+03  0.63907006382E+02  0.25224524502E+03  0.28385354522E+03  0.00000000000E+00 0. -1.
        -11    1    5    5    0    0 -0.12485326015E+02 -0.22928039084E+02  0.96096603168E+02  0.99579794549E+02  0.00000000000E+00 0.  1.
          3    1    6    6  503    0  0.49679079385E+02  0.26055484555E+02 -0.36424148372E+02  0.66885108870E+02  0.00000000000E+00 0.  1.
         -3    1    6    6    0  503  0.12300903946E+03  0.24022932466E+03 -0.49935967226E+02  0.27447213527E+03  0.00000000000E+00 0. -1.
<mgrwt>
<rscale>  0 0.40148988E+03</rscale>
<asrwt>0</asrwt>
<pdfrwt beam="1">  1        1 0.11269777E+00 0.40148988E+03</pdfrwt>
<pdfrwt beam="2">  1       -1 0.52289820E-01 0.40148988E+03</pdfrwt>
<totfact> 0.98727905E+01</totfact>
</mgrwt>
</event>
<event>
12    1  0.1338445E-007  0.3585983E+03  0.7818608E-02  0.1059140E+00
          2   -1    0    0  501    0  0.00000000000E+00  0.00000000000E+00  0.38035367256E+03  0.38035367256E+03  0.00000000000E+00 0. -1.
         -2   -1    0    0    0  501 -0.00000000000E+00 -0.00000000000E+00 -0.48513346263E+03  0.48513346263E+03  0.00000000000E+00 0.  1.
         23    2    1    2    0    0 -0.95890507039E+02 -0.13116495005E+02 -0.21058932187E+03  0.24854212971E+03  0.89768011973E+02 0.  0.
    5000000    2    1    2    0    0  0.95890507039E+02  0.13116495005E+02  0.10580953180E+03  0.61694500548E+03  0.60004870717E+03 0.  0.
         23    2    4    4    0    0  0.27863050875E+03  0.17033869610E+03 -0.72821125141E+01  0.33669820828E+03  0.81623663836E+02 0.  0.
         23    2    4    4    0    0 -0.18274000171E+03 -0.15722220110E+03  0.11309164431E+03  0.28024679720E+03  0.87383171052E+02 0.  0.
          1    1    3    3  502    0 -0.12469097351E+02  0.32285255342E+02 -0.79087762739E+02  0.86328965685E+02  0.00000000000E+00 0. -1.
         -1    1    3    3    0  502 -0.83421409688E+02 -0.45401750347E+02 -0.13150155913E+03  0.16221316403E+03  0.00000000000E+00 0.  1.
         13    1    5    5    0    0  0.19363412773E+03  0.80229852850E+02 -0.26783784581E+02  0.21130162287E+03  0.00000000000E+00 0.  1.
        -13    1    5    5    0    0  0.84996381020E+02  0.90108843254E+02  0.19501672067E+02  0.12539658541E+03  0.00000000000E+00 0. -1.
          1    1    6    6  503    0 -0.76364122753E+02 -0.11842839108E+03  0.81099628441E+02  0.16258509400E+03  0.00000000000E+00 0. -1.
         -1    1    6    6    0  503 -0.10637587896E+03 -0.38793810016E+02  0.31992015870E+02  0.11766170320E+03  0.00000000000E+00 0.  1.
<mgrwt>
<rscale>  0 0.35859829E+03</rscale>
<asrwt>0</asrwt>
<pdfrwt beam="1">  1        2 0.58515950E-01 0.35859829E+03</pdfrwt>
<pdfrwt beam="2">  1       -2 0.74635917E-01 0.35859829E+03</pdfrwt>
<totfact> 0.14025427E+02</totfact>
</mgrwt>
</event>
<event>
12    1  0.1338445E-007  0.6554223E+03  0.7818608E-02  0.9796658E-01
         -2   -1    0    0    0  501 -0.00000000000E+00  0.00000000000E+00  0.17388021561E+03  0.17388021561E+03  0.00000000000E+00 0.  1.
          2   -1    0    0  501    0  0.00000000000E+00 -0.00000000000E+00 -0.28300881386E+04  0.28300881386E+04  0.00000000000E+00 0. -1.
         23    2    1    2    0    0 -0.42549407783E+03 -0.38112597024E+03 -0.10629634350E+04  0.12081691763E+04  0.58985412354E+02 0.  0.
    5000000    2    1    2    0    0  0.42549407783E+03  0.38112597024E+03 -0.15932444879E+04  0.17957991779E+04  0.60013704561E+03 0.  0.
         23    2    4    4    0    0  0.35433651158E+03  0.46797759779E+03 -0.15231359977E+04  0.16347670609E+04  0.89233852420E+02 0.  0.
         23    2    4    4    0    0  0.71157566252E+02 -0.86851627548E+02 -0.70108490220E+02  0.16103211698E+03  0.91703532409E+02 0.  0.
          4    1    3    3  502    0 -0.27873559342E+03 -0.22772274961E+03 -0.71674062685E+03  0.80204009121E+03  0.00000000000E+00 0. -1.
         -4    1    3    3    0  502 -0.14675848441E+03 -0.15340322063E+03 -0.34622280819E+03  0.40612908509E+03  0.00000000000E+00 0.  1.
         11    1    5    5    0    0  0.63854729824E+02  0.14987649477E+03 -0.40895393746E+03  0.44020871546E+03  0.00000000000E+00 0. -1.
        -11    1    5    5    0    0  0.29048178175E+03  0.31810110301E+03 -0.11141820603E+04  0.11945583455E+04  0.00000000000E+00 0.  1.
          3    1    6    6  503    0 -0.10536758512E+02 -0.56972731279E+02 -0.29969499114E+02  0.65231022271E+02  0.00000000000E+00 0. -1.
         -3    1    6    6    0  503  0.81694324764E+02 -0.29878896269E+02 -0.40138991106E+02  0.95801094711E+02  0.00000000000E+00 0.  1.
<mgrwt>
<rscale>  0 0.65542227E+03</rscale>
<asrwt>0</asrwt>
<pdfrwt beam="1">  1        2 0.43539815E+00 0.65542227E+03</pdfrwt>
<pdfrwt beam="2">  1       -2 0.26750804E-01 0.65542227E+03</pdfrwt>
<totfact> 0.30023649E+01</totfact>
</mgrwt>
</event>
<event>
12    1  0.1338445E-007  0.6223976E+03  0.7818608E-02  0.9859998E-01
          2   -1    0    0  501    0  0.00000000000E+00  0.00000000000E+00  0.15694180445E+04  0.15694180445E+04  0.00000000000E+00 0. -1.
         -2   -1    0    0    0  501 -0.00000000000E+00 -0.00000000000E+00 -0.26662742682E+03  0.26662742682E+03  0.00000000000E+00 0.  1.
         23    2    1    2    0    0 -0.25792502497E+03 -0.42461340400E+03  0.40716111416E+03  0.64898163433E+03  0.92601984088E+02 0.  0.
    5000000    2    1    2    0    0  0.25792502497E+03  0.42461340400E+03  0.89562950356E+03  0.11870638370E+04  0.60012205771E+03 0.  0.
         23    2    4    4    0    0 -0.41504982877E+02 -0.11614054100E+03  0.21121231545E+03  0.26099311761E+03  0.91079505784E+02 0.  0.
         23    2    4    4    0    0  0.29943000784E+03  0.54075394500E+03  0.68441718811E+03  0.92607071941E+03  0.84302617633E+02 0.  0.
          3    1    3    3  502    0 -0.21674709544E+03 -0.37136957750E+03  0.38756127580E+03  0.57887685130E+03  0.00000000000E+00 0. -1.
         -3    1    3    3    0  502 -0.41177929525E+02 -0.53243826499E+02  0.19599838367E+02  0.70104783034E+02  0.00000000000E+00 0.  1.
         13    1    5    5    0    0 -0.22504125783E+02 -0.47613297236E+02  0.18897354962E+02  0.55951512719E+02  0.00000000000E+00 0. -1.
        -13    1    5    5    0    0 -0.19000857094E+02 -0.68527243765E+02  0.19231496049E+03  0.20504160489E+03  0.00000000000E+00 0.  1.
          2    1    6    6  503    0  0.16942865711E+03  0.38637891512E+03  0.47164910821E+03  0.63280930554E+03  0.00000000000E+00 0. -1.
         -2    1    6    6    0  503  0.13000135073E+03  0.15437502988E+03  0.21276807990E+03  0.29326141387E+03  0.00000000000E+00 0.  1.
<mgrwt>
<rscale>  0 0.62239764E+03</rscale>
<asrwt>0</asrwt>
<pdfrwt beam="1">  1        2 0.24144892E+00 0.62239764E+03</pdfrwt>
<pdfrwt beam="2">  1       -2 0.41019605E-01 0.62239764E+03</pdfrwt>
<totfact> 0.67645786E+01</totfact>
</mgrwt>
</event>
<event>
12    1  0.1338445E-007  0.5299177E+03  0.7818608E-02  0.1006252E+00
         -1   -1    0    0    0  501 -0.00000000000E+00  0.00000000000E+00  0.35683116763E+03  0.35683116763E+03  0.00000000000E+00 0.  1.
          1   -1    0    0  501    0  0.00000000000E+00 -0.00000000000E+00 -0.83251132484E+03  0.83251132484E+03  0.00000000000E+00 0. -1.
         23    2    1    2    0    0  0.32633389618E+03  0.15648950903E+03 -0.70177748873E+02  0.37985189917E+03  0.91541087176E+02 0.  0.
    5000000    2    1    2    0    0 -0.32633389618E+03 -0.15648950903E+03 -0.40550240834E+03  0.80949059329E+03  0.59988335469E+03 0.  0.
         23    2    4    4    0    0 -0.26049056757E+03 -0.36761161030E+03 -0.23490727840E+03  0.51614703812E+03  0.90734247639E+02 0.  0.
         23    2    4    4    0    0 -0.65843328602E+02  0.21112210127E+03 -0.17059512994E+03  0.29334355517E+03  0.89665252121E+02 0.  0.
          2    1    3    3  502    0  0.76400401741E+02  0.82218085172E+02 -0.28598886205E+02  0.11582198068E+03  0.00000000000E+00 0. -1.
         -2    1    3    3    0  502  0.24993349444E+03  0.74271423854E+02 -0.41578862668E+02  0.26402991850E+03  0.00000000000E+00 0.  1.
         13    1    5    5    0    0 -0.45812571697E+02 -0.13730460428E+03 -0.73287116232E+02  0.16224163303E+03  0.00000000000E+00 0. -1.
        -13    1    5    5    0    0 -0.21467799588E+03 -0.23030700602E+03 -0.16162016217E+03  0.35390540509E+03  0.00000000000E+00 0.  1.
          3    1    6    6  503    0 -0.52662929346E+02  0.81837212421E+02 -0.11849075615E+03  0.15333223000E+03  0.00000000000E+00 0. -1.
         -3    1    6    6    0  503 -0.13180399256E+02  0.12928488885E+03 -0.52104373790E+02  0.14001132518E+03  0.00000000000E+00 0.  1.
<mgrwt>
<rscale>  0 0.52991772E+03</rscale>
<asrwt>0</asrwt>
<pdfrwt beam="1">  1        1 0.12807866E+00 0.52991772E+03</pdfrwt>
<pdfrwt beam="2">  1       -1 0.54897103E-01 0.52991772E+03</pdfrwt>
<totfact> 0.72537394E+01</totfact>
</mgrwt>
</event>
<event>
12    1  0.1338445E-007  0.4890798E+03  0.7818608E-02  0.1016669E+00
         -1   -1    0    0    0  501 -0.00000000000E+00  0.00000000000E+00  0.64349131472E+03  0.64349131472E+03  0.00000000000E+00 0.  1.
          1   -1    0    0  501    0  0.00000000000E+00 -0.00000000000E+00 -0.99371012621E+03  0.99371012621E+03  0.00000000000E+00 0. -1.
         23    2    1    2    0    0  0.43371957408E+03 -0.19751230794E+03 -0.65254732941E+03  0.81316578229E+03  0.91086725930E+02 0.  0.
    5000000    2    1    2    0    0 -0.43371957408E+03  0.19751230794E+03  0.30232851793E+03  0.82403565864E+03  0.60042356152E+03 0.  0.
         23    2    4    4    0    0 -0.13601149244E+03  0.72339519417E+02  0.42916631371E+03  0.46519124912E+03  0.92125139308E+02 0.  0.
         23    2    4    4    0    0 -0.29770808164E+03  0.12517278852E+03 -0.12683779579E+03  0.35884440951E+03  0.91559570429E+02 0.  0.
          3    1    3    3  502    0  0.17146102954E+03 -0.97143752576E+02 -0.34013896766E+03  0.39310343504E+03  0.00000000000E+00 0. -1.
         -3    1    3    3    0  502  0.26225854454E+03 -0.10036855537E+03 -0.31240836175E+03  0.42006234726E+03  0.00000000000E+00 0.  1.
         13    1    5    5    0    0 -0.63063858360E+02  0.15634335725E+01  0.26253583027E+03  0.27000843826E+03  0.00000000000E+00 0.  1.
        -13    1    5    5    0    0 -0.72947634076E+02  0.70776085845E+02  0.16663048344E+03  0.19518281086E+03  0.00000000000E+00 0. -1.
          2    1    6    6  503    0 -0.14886580431E+03  0.11169401794E+03 -0.75115164362E+02  0.20069596223E+03  0.00000000000E+00 0. -1.
         -2    1    6    6    0  503 -0.14884227733E+03  0.13478770582E+02 -0.51722631424E+02  0.15814844729E+03  0.00000000000E+00 0.  1.
<mgrwt>
<rscale>  0 0.48907985E+03</rscale>
<asrwt>0</asrwt>
<pdfrwt beam="1">  1        1 0.15287848E+00 0.48907985E+03</pdfrwt>
<pdfrwt beam="2">  1       -1 0.98998664E-01 0.48907985E+03</pdfrwt>
<totfact> 0.16025013E+01</totfact>
</mgrwt>
</event>
<event>
12    1  0.1338445E-007  0.1169741E+04  0.7818608E-02  0.9139762E-01
          1   -1    0    0  501    0  0.00000000000E+00  0.00000000000E+00  0.45289162210E+03  0.45289162210E+03  0.00000000000E+00 0. -1.
         -1   -1    0    0    0  501 -0.00000000000E+00 -0.00000000000E+00 -0.39446465027E+04  0.39446465027E+04  0.00000000000E+00 0.  1.
         23    2    1    2    0    0 -0.97089364046E+03  0.56019472783E+03 -0.26331669271E+04  0.28632701204E+04  0.91077562389E+02 0.  0.
    5000000    2    1    2    0    0  0.97089364046E+03 -0.56019472783E+03 -0.85858795358E+03  0.15342680044E+04  0.60029362919E+03 0.  0.
         23    2    4    4    0    0  0.20680275036E+03 -0.37351770044E+03 -0.12385465739E+03  0.45400623511E+03  0.92189127667E+02 0.  0.
         23    2    4    4    0    0  0.76409089011E+03 -0.18667702739E+03 -0.73473329618E+03  0.10802617693E+04  0.91919926379E+02 0.  0.
          1    1    3    3  502    0 -0.24981867606E+03  0.14790984778E+03 -0.78746452033E+03  0.83927770420E+03  0.00000000000E+00 0. -1.
         -1    1    3    3    0  502 -0.72107496440E+03  0.41228488005E+03 -0.18457024067E+04  0.20239924162E+04  0.00000000000E+00 0.  1.
         13    1    5    5    0    0  0.51718862144E+02 -0.54016213477E+02  0.79083135166E+01  0.75200621291E+02  0.00000000000E+00 0. -1.
        -13    1    5    5    0    0  0.15508388821E+03 -0.31950148696E+03 -0.13176297091E+03  0.37880561381E+03  0.00000000000E+00 0.  1.
          2    1    6    6  503    0  0.58334303285E+03 -0.11740760446E+03 -0.59534996023E+03  0.84173345823E+03  0.00000000000E+00 0. -1.
         -2    1    6    6    0  503  0.18074785726E+03 -0.69269422931E+02 -0.13938333595E+03  0.23852831110E+03  0.00000000000E+00 0.  1.
<mgrwt>
<rscale>  0 0.11697414E+04</rscale>
<asrwt>0</asrwt>
<pdfrwt beam="1">  1        1 0.69675633E-01 0.11697414E+04</pdfrwt>
<pdfrwt beam="2">  1       -1 0.60686870E+00 0.11697414E+04</pdfrwt>
<totfact> 0.20302252E-02</totfact>
</mgrwt>
</event>
<event>
12    1  0.1338445E-007  0.5012934E+03  0.7818608E-02  0.1013442E+00
          2   -1    0    0  501    0  0.00000000000E+00  0.00000000000E+00  0.10148043608E+04  0.10148043608E+04  0.00000000000E+00 0. -1.
         -2   -1    0    0    0  501 -0.00000000000E+00 -0.00000000000E+00 -0.27020985953E+03  0.27020985953E+03  0.00000000000E+00 0.  1.
         23    2    1    2    0    0  0.18901452818E+03  0.27781293967E+03  0.33981805990E+03  0.48608710419E+03  0.88869779533E+02 0.  0.
    5000000    2    1    2    0    0 -0.18901452818E+03 -0.27781293967E+03  0.40477644140E+03  0.79892711616E+03  0.60127701446E+03 0.  0.
         23    2    4    4    0    0  0.49677484305E+02  0.15327761525E+03  0.10360449346E+03  0.21451342198E+03  0.96541376414E+02 0.  0.
         23    2    4    4    0    0 -0.23869201249E+03 -0.43109055492E+03  0.30117194793E+03  0.58441369419E+03  0.89564950558E+02 0.  0.
          4    1    3    3  502    0  0.17000155550E+03  0.28003413182E+03  0.32807400336E+03  0.46362937303E+03  0.00000000000E+00 0. -1.
         -4    1    3    3    0  502  0.19012972685E+02 -0.22211921497E+01  0.11744056542E+02  0.22457731162E+02  0.00000000000E+00 0.  1.
         11    1    5    5    0    0  0.30507095846E+02  0.11324269345E+03  0.18776192397E+02  0.11877346470E+03  0.00000000000E+00 0. -1.
        -11    1    5    5    0    0  0.19170388459E+02  0.40034921795E+02  0.84828301064E+02  0.95739957271E+02  0.00000000000E+00 0.  1.
          2    1    6    6  503    0 -0.20377147411E+03 -0.33698783073E+03  0.27611389359E+03  0.48095997126E+03  0.00000000000E+00 0. -1.
         -2    1    6    6    0  503 -0.34920538379E+02 -0.94102724191E+02  0.25058054342E+02  0.10345372293E+03  0.00000000000E+00 0.  1.
<mgrwt>
<rscale>  0 0.50129338E+03</rscale>
<asrwt>0</asrwt>
<pdfrwt beam="1">  1        2 0.15612375E+00 0.50129338E+03</pdfrwt>
<pdfrwt beam="2">  1       -2 0.41570748E-01 0.50129338E+03</pdfrwt>
<totfact> 0.13956189E+02</totfact>
</mgrwt>
</event>
<event>
12    1  0.1338445E-007  0.8450558E+03  0.7818608E-02  0.9496997E-01
         -2   -1    0    0    0  501 -0.00000000000E+00  0.00000000000E+00  0.45355599816E+03  0.45355599816E+03  0.00000000000E+00 0.  1.
          2   -1    0    0  501    0  0.00000000000E+00 -0.00000000000E+00 -0.19350799268E+04  0.19350799268E+04  0.00000000000E+00 0. -1.
         23    2    1    2    0    0  0.59827255140E+03 -0.57721230305E+03 -0.53360389194E+03  0.99230978508E+03  0.94029290784E+02 0.  0.
    5000000    2    1    2    0    0 -0.59827255140E+03  0.57721230305E+03 -0.94792003665E+03  0.13963261398E+04  0.60005850078E+03 0.  0.
         23    2    4    4    0    0 -0.25652641372E+03  0.36527099060E+03 -0.86338798847E+03  0.97617993813E+03  0.90883196843E+02 0.  0.
         23    2    4    4    0    0 -0.34174613768E+03  0.21194131245E+03 -0.84532048189E+02  0.42014620171E+03  0.87564953601E+02 0.  0.
          2    1    3    3  502    0  0.21315575555E+03 -0.15820488159E+03 -0.20270865828E+03  0.33399844435E+03  0.00000000000E+00 0. -1.
         -2    1    3    3    0  502  0.38511679585E+03 -0.41900742146E+03 -0.33089523366E+03  0.65831134073E+03  0.00000000000E+00 0.  1.
         13    1    5    5    0    0 -0.74739487270E+02  0.11487915122E+03 -0.36110870788E+03  0.38624177564E+03  0.00000000000E+00 0. -1.
        -13    1    5    5    0    0 -0.18178692645E+03  0.25039183937E+03 -0.50227928058E+03  0.58993816248E+03  0.00000000000E+00 0.  1.
          4    1    6    6  503    0 -0.46748470105E+01 -0.60610885114E+01  0.46196827342E+01  0.89404953487E+01  0.00000000000E+00 0. -1.
         -4    1    6    6    0  503 -0.33707129067E+03  0.21800240097E+03 -0.89151730923E+02  0.41120570637E+03  0.00000000000E+00 0.  1.
<mgrwt>
<rscale>  0 0.84505584E+03</rscale>
<asrwt>0</asrwt>
<pdfrwt beam="1">  1        2 0.29770460E+00 0.84505584E+03</pdfrwt>
<pdfrwt beam="2">  1       -2 0.69777847E-01 0.84505584E+03</pdfrwt>
<totfact> 0.13865603E+01</totfact>
</mgrwt>
</event>
<event>
12    1  0.1338445E-007  0.6142639E+03  0.7818608E-02  0.9876247E-01
         -1   -1    0    0    0  501 -0.00000000000E+00  0.00000000000E+00  0.15489798249E+04  0.15489798249E+04  0.00000000000E+00 0.  1.
          1   -1    0    0  501    0  0.00000000000E+00 -0.00000000000E+00 -0.34077304542E+03  0.34077304542E+03  0.00000000000E+00 0. -1.
         23    2    1    2    0    0 -0.24349351431E+03 -0.54071738010E+03  0.39614049174E+03  0.71877842791E+03  0.89726041837E+02 0.  0.
    5000000    2    1    2    0    0  0.24349351431E+03  0.54071738010E+03  0.81206628773E+03  0.11709744424E+04  0.60005425790E+03 0.  0.
         23    2    4    4    0    0  0.20356396509E+03  0.28345083210E+03  0.81894873944E+03  0.89503485492E+03  0.92885368056E+02 0.  0.
         23    2    4    4    0    0  0.39929549222E+02  0.25726654799E+03 -0.68824517069E+01  0.27593958747E+03  0.91185756425E+02 0.  0.
          4    1    3    3  502    0 -0.16240470073E+03 -0.25142262896E+03  0.19909827580E+03  0.35948400326E+03  0.00000000000E+00 0. -1.
         -4    1    3    3    0  502 -0.81088813576E+02 -0.28929475113E+03  0.19704221594E+03  0.35929442465E+03  0.00000000000E+00 0.  1.
         11    1    5    5    0    0  0.83597923051E+02  0.17261101433E+03  0.36020380114E+03  0.40808081720E+03  0.00000000000E+00 0. -1.
        -11    1    5    5    0    0  0.11996604203E+03  0.11083981777E+03  0.45874493830E+03  0.48695403773E+03  0.00000000000E+00 0.  1.
          2    1    6    6  503    0 -0.14238349744E+02  0.17227896603E+03  0.12472412351E+02  0.17331570561E+03  0.00000000000E+00 0. -1.
         -2    1    6    6    0  503  0.54167898966E+02  0.84987581961E+02 -0.19354864058E+02  0.10262388186E+03  0.00000000000E+00 0.  1.
<mgrwt>
<rscale>  0 0.61426393E+03</rscale>
<asrwt>0</asrwt>
<pdfrwt beam="1">  1        1 0.52426623E-01 0.61426393E+03</pdfrwt>
<pdfrwt beam="2">  1       -1 0.23830458E+00 0.61426393E+03</pdfrwt>
<totfact> 0.65278201E+00</totfact>
</mgrwt>
</event>
<event>
12    1  0.1338445E-007  0.6914973E+03  0.7818608E-02  0.9731884E-01
          2   -1    0    0  501    0  0.00000000000E+00  0.00000000000E+00  0.22549994866E+04  0.22549994866E+04  0.00000000000E+00 0. -1.
         -2   -1    0    0    0  501 -0.00000000000E+00 -0.00000000000E+00 -0.36312443637E+03  0.36312443637E+03  0.00000000000E+00 0.  1.
         23    2    1    2    0    0  0.42469120098E+03 -0.38487092752E+03  0.16568277368E+04  0.17556258352E+04  0.93035890455E+02 0.  0.
    5000000    2    1    2    0    0 -0.42469120098E+03  0.38487092752E+03  0.23504731349E+03  0.86249808778E+03  0.60013953778E+03 0.  0.
         23    2    4    4    0    0 -0.49546508299E+03  0.11179075503E+03  0.61808024072E+02  0.51976587850E+03  0.91397566942E+02 0.  0.
         23    2    4    4    0    0  0.70773882005E+02  0.27308017248E+03  0.17323928942E+03  0.34273220928E+03  0.88723124951E+02 0.  0.
          1    1    3    3  502    0  0.23111300743E+03 -0.24448850276E+03  0.10803037564E+04  0.11314787034E+04  0.00000000000E+00 0. -1.
         -1    1    3    3    0  502  0.19357819355E+03 -0.14038242476E+03  0.57652398041E+03  0.62414713185E+03  0.00000000000E+00 0.  1.
         11    1    5    5    0    0 -0.10881360848E+03  0.57931900807E+02 -0.65214609520E+01  0.12344649033E+03  0.00000000000E+00 0.  1.
        -11    1    5    5    0    0 -0.38665147450E+03  0.53858854227E+02  0.68329485024E+02  0.39631938817E+03  0.00000000000E+00 0. -1.
          1    1    6    6  503    0  0.54345767761E+02  0.27193355508E+03  0.17176771285E+03  0.32619851016E+03  0.00000000000E+00 0. -1.
         -1    1    6    6    0  503  0.16428114244E+02  0.11466174054E+01  0.14715765718E+01  0.16533699123E+02  0.00000000000E+00 0.  1.
<mgrwt>
<rscale>  0 0.69149728E+03</rscale>
<asrwt>0</asrwt>
<pdfrwt beam="1">  1        2 0.34692299E+00 0.69149728E+03</pdfrwt>
<pdfrwt beam="2">  1       -2 0.55865299E-01 0.69149728E+03</pdfrwt>
<totfact> 0.15199305E+01</totfact>
</mgrwt>
</event>
<event>
12    1  0.1338445E-007  0.8565997E+03  0.7818608E-02  0.9481522E-01
          1   -1    0    0  501    0  0.00000000000E+00  0.00000000000E+00  0.12036882337E+04  0.12036882337E+04  0.00000000000E+00 0. -1.
         -1   -1    0    0    0  501 -0.00000000000E+00 -0.00000000000E+00 -0.76530538261E+03  0.76530538261E+03  0.00000000000E+00 0.  1.
         23    2    1    2    0    0 -0.26062501849E+03 -0.71106279211E+03 -0.22768279337E+03  0.79571657761E+03  0.88259406838E+02 0.  0.
    5000000    2    1    2    0    0  0.26062501849E+03  0.71106279211E+03  0.66606564446E+03  0.11732770387E+04  0.59949968491E+03 0.  0.
         23    2    4    4    0    0  0.24835147027E+03  0.15296097931E+02  0.17133072693E+03  0.31453154453E+03  0.87541139577E+02 0.  0.
         23    2    4    4    0    0  0.12273548223E+02  0.69576669418E+03  0.49473491753E+03  0.85874549417E+03  0.91865403753E+02 0.  0.
          1    1    3    3  502    0 -0.41182247955E+02 -0.18503030020E+03 -0.87404608257E+02  0.20873848491E+03  0.00000000000E+00 0. -1.
         -1    1    3    3    0  502 -0.21944277054E+03 -0.52603249192E+03 -0.14027818511E+03  0.58697809270E+03  0.00000000000E+00 0.  1.
         13    1    5    5    0    0  0.48681619086E+02 -0.23960151400E+02  0.10755120259E+02  0.55314207070E+02  0.00000000000E+00 0. -1.
        -13    1    5    5    0    0  0.19966985118E+03  0.39256249331E+02  0.16057560667E+03  0.25921733746E+03  0.00000000000E+00 0.  1.
          1    1    6    6  503    0  0.12369158716E+02  0.49499383497E+03  0.29940580195E+03  0.57863263560E+03  0.00000000000E+00 0. -1.
         -1    1    6    6    0  503 -0.95610492670E-01  0.20077285921E+03  0.19532911558E+03  0.28011285856E+03  0.00000000000E+00 0.  1.
<mgrwt>
<rscale>  0 0.85659975E+03</rscale>
<asrwt>0</asrwt>
<pdfrwt beam="1">  1        1 0.18518281E+00 0.85659975E+03</pdfrwt>
<pdfrwt beam="2">  1       -1 0.11773929E+00 0.85659975E+03</pdfrwt>
<totfact> 0.70306189E+00</totfact>
</mgrwt>
</event>
<event>
12    1  0.1338445E-007  0.1023783E+04  0.7818608E-02  0.9282838E-01
         -2   -1    0    0    0  501 -0.00000000000E+00  0.00000000000E+00  0.20084060263E+04  0.20084060263E+04  0.00000000000E+00 0. -1.
          2   -1    0    0  501    0  0.00000000000E+00 -0.00000000000E+00 -0.55564825588E+03  0.55564825588E+03  0.00000000000E+00 0.  1.
         23    2    1    2    0    0 -0.94456804383E+03 -0.10904658113E+03  0.44455832154E+03  0.10538958062E+04  0.94680108024E+02 0.  0.
    5000000    2    1    2    0    0  0.94456804383E+03  0.10904658113E+03  0.10081994488E+04  0.15101584759E+04  0.60001045614E+03 0.  0.
         23    2    4    4    0    0  0.33377907105E+03 -0.21169931161E+03  0.22955253943E+03  0.46601090187E+03  0.90811483268E+02 0.  0.
         23    2    4    4    0    0  0.61078897278E+03  0.32074589274E+03  0.77864690939E+03  0.10441475740E+04  0.89510054724E+02 0.  0.
          2    1    3    3  502    0 -0.46655022473E+03 -0.68756163671E+02  0.26999260439E+03  0.54340825229E+03  0.00000000000E+00 0. -1.
         -2    1    3    3    0  502 -0.47801781910E+03 -0.40290417462E+02  0.17456571715E+03  0.51048755394E+03  0.00000000000E+00 0.  1.
         13    1    5    5    0    0  0.27264574941E+03 -0.20068595493E+03  0.21846607106E+03  0.40291187793E+03  0.00000000000E+00 0. -1.
        -13    1    5    5    0    0  0.61133321644E+02 -0.11013356679E+02  0.11086468372E+02  0.63099023934E+02  0.00000000000E+00 0.  1.
          4    1    6    6  503    0  0.47426842503E+03  0.20522441449E+03  0.57229258767E+03  0.77108132203E+03  0.00000000000E+00 0. -1.
         -4    1    6    6    0  503  0.13652054775E+03  0.11552147825E+03  0.20635432172E+03  0.27306625201E+03  0.00000000000E+00 0.  1.
<mgrwt>
<rscale>  0 0.10237830E+04</rscale>
<asrwt>0</asrwt>
<pdfrwt beam="1">  1        2 0.85484348E-01 0.10237830E+04</pdfrwt>
<pdfrwt beam="2">  1       -2 0.30898554E+00 0.10237830E+04</pdfrwt>
<totfact> 0.15300986E+00</totfact>
</mgrwt>
</event>
<event>
12    1  0.1338445E-007  0.1325978E+04  0.7818608E-02  0.9009214E-01
         -2   -1    0    0    0  501 -0.00000000000E+00  0.00000000000E+00  0.96962530684E+03  0.96962530684E+03  0.00000000000E+00 0.  1.
          2   -1    0    0  501    0  0.00000000000E+00 -0.00000000000E+00 -0.29030882547E+04  0.29030882547E+04  0.00000000000E+00 0. -1.
         23    2    1    2    0    0 -0.10344706985E+04  0.81950296519E+03 -0.20263996312E+04  0.24200106447E+04  0.91876651836E+02 0.  0.
    5000000    2    1    2    0    0  0.10344706985E+04 -0.81950296519E+03  0.92936683308E+02  0.14527029168E+04  0.59999483449E+03 0.  0.
         23    2    4    4    0    0  0.30806680512E+03 -0.32947556588E+03 -0.23070848654E+03  0.51421659450E+03  0.87937451437E+02 0.  0.
         23    2    4    4    0    0  0.72640389341E+03 -0.49002739931E+03  0.32364516985E+03  0.93848632234E+03  0.90669249570E+02 0.  0.
          3    1    3    3  502    0 -0.74203091113E+03  0.63756142320E+03 -0.15172853250E+04  0.18053390814E+04  0.00000000000E+00 0. -1.
         -3    1    3    3    0  502 -0.29243978740E+03  0.18194154200E+03 -0.50911430617E+03  0.61467156328E+03  0.00000000000E+00 0.  1.
         13    1    5    5    0    0  0.17832893317E+03 -0.18172260892E+03 -0.81325730327E+02  0.26727923490E+03  0.00000000000E+00 0. -1.
        -13    1    5    5    0    0  0.12973787196E+03 -0.14775295697E+03 -0.14938275622E+03  0.24693735960E+03  0.00000000000E+00 0.  1.
          4    1    6    6  503    0  0.68019767594E+03 -0.47409000405E+03  0.28694449427E+03  0.87736386584E+03  0.00000000000E+00 0. -1.
         -4    1    6    6    0  503  0.46206217475E+02 -0.15937395264E+02  0.36700675578E+02  0.61122456504E+02  0.00000000000E+00 0.  1.
<mgrwt>
<rscale>  0 0.13259783E+04</rscale>
<asrwt>0</asrwt>
<pdfrwt beam="1">  1        2 0.44662895E+00 0.13259783E+04</pdfrwt>
<pdfrwt beam="2">  1       -2 0.14917313E+00 0.13259783E+04</pdfrwt>
<totfact> 0.58806833E-01</totfact>
</mgrwt>
</event>
<event>
12    1  0.1338445E-007  0.8105313E+03  0.7818608E-02  0.9544897E-01
         -1   -1    0    0    0  501 -0.00000000000E+00  0.00000000000E+00  0.57278162027E+03  0.57278162027E+03  0.00000000000E+00 0.  1.
          1   -1    0    0  501    0  0.00000000000E+00 -0.00000000000E+00 -0.16329810830E+04  0.16329810830E+04  0.00000000000E+00 0. -1.
         23    2    1    2    0    0 -0.32035636641E+03  0.71387613042E+03 -0.91743013238E+03  0.12092599601E+04  0.91565671756E+02 0.  0.
    5000000    2    1    2    0    0  0.32035636641E+03 -0.71387613042E+03 -0.14276933032E+03  0.99650274313E+03  0.60032266682E+03 0.  0.
         23    2    4    4    0    0  0.10398337195E+03 -0.54702323804E+03 -0.33149365675E+03  0.65449746075E+03  0.91825470708E+02 0.  0.
         23    2    4    4    0    0  0.21637299446E+03 -0.16685289238E+03  0.18872432643E+03  0.34200528237E+03  0.81814310216E+02 0.  0.
          1    1    3    3  502    0 -0.52195645201E+02  0.20266597161E+03 -0.21470464533E+03  0.29982656012E+03  0.00000000000E+00 0. -1.
         -1    1    3    3    0  502 -0.26816072121E+03  0.51121015881E+03 -0.70272548705E+03  0.90943339999E+03  0.00000000000E+00 0.  1.
         13    1    5    5    0    0  0.13755124852E+02 -0.14356278074E+03 -0.13178176124E+03  0.19536096864E+03  0.00000000000E+00 0.  1.
        -13    1    5    5    0    0  0.90228247098E+02 -0.40346045730E+03 -0.19971189550E+03  0.45913649211E+03  0.00000000000E+00 0. -1.
          3    1    6    6  503    0  0.12659154260E+03 -0.12463616456E+03  0.80041737136E+02  0.19484935683E+03  0.00000000000E+00 0. -1.
         -3    1    6    6    0  503  0.89781451853E+02 -0.42216727827E+02  0.10868258930E+03  0.14715592554E+03  0.00000000000E+00 0.  1.
<mgrwt>
<rscale>  0 0.81053135E+03</rscale>
<asrwt>0</asrwt>
<pdfrwt beam="1">  1        1 0.25122786E+00 0.81053135E+03</pdfrwt>
<pdfrwt beam="2">  1       -1 0.88120250E-01 0.81053135E+03</pdfrwt>
<totfact> 0.69207535E+00</totfact>
</mgrwt>
</event>
<event>
12    1  0.1338445E-007  0.1062112E+04  0.7818608E-02  0.9242927E-01
          2   -1    0    0  501    0  0.00000000000E+00  0.00000000000E+00  0.18090473761E+04  0.18090473761E+04  0.00000000000E+00 0. -1.
         -2   -1    0    0    0  501 -0.00000000000E+00 -0.00000000000E+00 -0.72529028824E+03  0.72529028824E+03  0.00000000000E+00 0.  1.
         23    2    1    2    0    0  0.38997045767E+03 -0.98270234213E+03  0.36959773877E+03  0.11249298324E+04  0.10527957186E+03 0.  0.
    5000000    2    1    2    0    0 -0.38997045767E+03  0.98270234213E+03  0.71415934913E+03  0.14094078320E+04  0.59885391357E+03 0.  0.
         23    2    4    4    0    0 -0.31452723001E+03  0.77483374283E+03  0.79452052547E+03  0.11570679006E+04  0.90821548469E+02 0.  0.
         23    2    4    4    0    0 -0.75443227658E+02  0.20786859929E+03 -0.80361176342E+02  0.25233993141E+03  0.91194775886E+02 0.  0.
          3    1    3    3  502    0  0.20507212191E+03 -0.38417305118E+03  0.16958949694E+03  0.46733725072E+03  0.00000000000E+00 0. -1.
         -3    1    3    3    0  502  0.18489833577E+03 -0.59852929094E+03  0.20000824183E+03  0.65759258168E+03  0.00000000000E+00 0.  1.
         11    1    5    5    0    0 -0.62904968101E+01  0.88896349230E+02  0.87034535129E+02  0.12456781912E+03  0.00000000000E+00 0.  1.
        -11    1    5    5    0    0 -0.30823673320E+03  0.68593739360E+03  0.70748599034E+03  0.10325000814E+04  0.00000000000E+00 0. -1.
          3    1    6    6  503    0 -0.59641561682E+02  0.16918879615E+03 -0.22251727797E+02  0.18076809457E+03  0.00000000000E+00 0. -1.
         -3    1    6    6    0  503 -0.15801665976E+02  0.38679803138E+02 -0.58109448545E+02  0.71571836839E+02  0.00000000000E+00 0.  1.
<mgrwt>
<rscale>  0 0.10621122E+04</rscale>
<asrwt>0</asrwt>
<pdfrwt beam="1">  1        2 0.27831498E+00 0.10621122E+04</pdfrwt>
<pdfrwt beam="2">  1       -2 0.11158312E+00 0.10621122E+04</pdfrwt>
<totfact> 0.53607952E+00</totfact>
</mgrwt>
</event>
<event>
12    1  0.1338445E-007  0.4451291E+03  0.7818608E-02  0.1029185E+00
         -1   -1    0    0    0  501 -0.00000000000E+00  0.00000000000E+00  0.46634658014E+03  0.46634658014E+03  0.00000000000E+00 0.  1.
          1   -1    0    0  501    0  0.00000000000E+00 -0.00000000000E+00 -0.47509766203E+03  0.47509766203E+03  0.00000000000E+00 0. -1.
         23    2    1    2    0    0 -0.19340084825E+03  0.18521852433E+03  0.24220063387E+02  0.28346822773E+03  0.89765443267E+02 0.  0.
    5000000    2    1    2    0    0  0.19340084825E+03 -0.18521852433E+03 -0.32971145271E+02  0.65797601444E+03  0.60011294712E+03 0.  0.
         23    2    4    4    0    0  0.46840488983E+02  0.19594219838E+03 -0.83927869207E+02  0.23645665136E+03  0.90997166057E+02 0.  0.
         23    2    4    4    0    0  0.14656035927E+03 -0.38116072271E+03  0.50956723936E+02  0.42151936308E+03  0.91206086924E+02 0.  0.
          2    1    3    3  502    0 -0.95026431598E+02  0.10059277831E+03 -0.32026255834E+02  0.14203735710E+03  0.00000000000E+00 0. -1.
         -2    1    3    3    0  502 -0.98374416651E+02  0.84625746019E+02  0.56246319221E+02  0.14143087063E+03  0.00000000000E+00 0.  1.
         11    1    5    5    0    0  0.39849881521E+02  0.10085293315E+03  0.14812958455E+01  0.10845054827E+03  0.00000000000E+00 0. -1.
        -11    1    5    5    0    0  0.69906074621E+01  0.95089265223E+02 -0.85409165052E+02  0.12800610309E+03  0.00000000000E+00 0.  1.
          3    1    6    6  503    0  0.14587942518E+03 -0.26772582555E+03  0.41251262182E+02  0.30766798824E+03  0.00000000000E+00 0. -1.
         -3    1    6    6    0  503  0.68093408703E+00 -0.11343489715E+03  0.97054617540E+01  0.11385137483E+03  0.00000000000E+00 0.  1.
<mgrwt>
<rscale>  0 0.44512913E+03</rscale>
<asrwt>0</asrwt>
<pdfrwt beam="1">  1        1 0.73091948E-01 0.44512913E+03</pdfrwt>
<pdfrwt beam="2">  1       -1 0.71745628E-01 0.44512913E+03</pdfrwt>
<totfact> 0.97435786E+01</totfact>
</mgrwt>
</event>
<event>
12    1  0.1338445E-007  0.1419967E+04  0.7818608E-02  0.8939491E-01
         -1   -1    0    0    0  501 -0.00000000000E+00  0.00000000000E+00  0.12364459454E+04  0.12364459454E+04  0.00000000000E+00 0.  1.
          1   -1    0    0  501    0  0.00000000000E+00 -0.00000000000E+00 -0.26015512042E+04  0.26015512042E+04  0.00000000000E+00 0. -1.
         23    2    1    2    0    0 -0.49504355663E+03  0.12671890834E+04 -0.18282728767E+04  0.22806417393E+04  0.88931070651E+02 0.  0.
    5000000    2    1    2    0    0  0.49504355663E+03 -0.12671890834E+04  0.46316761789E+03  0.15573554103E+04  0.59999611309E+03 0.  0.
         23    2    4    4    0    0  0.59160301369E+03 -0.80711923528E+03  0.26099464847E+03  0.10381023337E+04  0.90014792804E+02 0.  0.
         23    2    4    4    0    0 -0.96559457058E+02 -0.46006984816E+03  0.20217296942E+03  0.51925307665E+03  0.88101385449E+02 0.  0.
          2    1    3    3  502    0 -0.12159855567E+03  0.21763769850E+03 -0.32730201618E+03  0.41143527601E+03  0.00000000000E+00 0.  1.
         -2    1    3    3    0  502 -0.37344500096E+03  0.10495513849E+04 -0.15009708605E+04  0.18692064633E+04  0.00000000000E+00 0. -1.
         13    1    5    5    0    0  0.41568142802E+03 -0.49773803286E+03  0.15498647721E+03  0.66674958348E+03  0.00000000000E+00 0. -1.
        -13    1    5    5    0    0  0.17592158567E+03 -0.30938120242E+03  0.10600817126E+03  0.37135275021E+03  0.00000000000E+00 0.  1.
          1    1    6    6  503    0 -0.82766296993E+02 -0.28927733819E+03  0.88509885289E+02  0.31363296718E+03  0.00000000000E+00 0. -1.
         -1    1    6    6    0  503 -0.13793160065E+02 -0.17079250997E+03  0.11366308413E+03  0.20562010947E+03  0.00000000000E+00 0.  1.
<mgrwt>
<rscale>  0 0.14199670E+04</rscale>
<asrwt>0</asrwt>
<pdfrwt beam="1">  1        1 0.40023865E+00 0.14199670E+04</pdfrwt>
<pdfrwt beam="2">  1       -1 0.19022245E+00 0.14199670E+04</pdfrwt>
<totfact> 0.19376991E-01</totfact>
</mgrwt>
</event>
<event>
12    1  0.1338445E-007  0.9246622E+03  0.7818608E-02  0.9395267E-01
         -2   -1    0    0    0  501 -0.00000000000E+00  0.00000000000E+00  0.65945559888E+03  0.65945559888E+03  0.00000000000E+00 0.  1.
          2   -1    0    0  501    0  0.00000000000E+00 -0.00000000000E+00 -0.15423718897E+04  0.15423718897E+04  0.00000000000E+00 0. -1.
         23    2    1    2    0    0  0.79458178896E+03  0.34653353590E+03 -0.77426611016E+02  0.87507604355E+03  0.91200279930E+02 0.  0.
    5000000    2    1    2    0    0 -0.79458178896E+03 -0.34653353590E+03 -0.80548967980E+03  0.13267514450E+04  0.60000838476E+03 0.  0.
         23    2    4    4    0    0  0.55286686112E+02 -0.52085934416E+02 -0.21747788467E+03  0.24827251772E+03  0.92590769019E+02 0.  0.
         23    2    4    4    0    0 -0.84986847507E+03 -0.29444760148E+03 -0.58801179513E+03  0.10784789273E+04  0.91559327825E+02 0.  0.
          3    1    3    3  502    0  0.18991417700E+03  0.11879451637E+03 -0.42467880892E+02  0.22799792248E+03  0.00000000000E+00 0. -1.
         -3    1    3    3    0  502  0.60466761195E+03  0.22773901953E+03 -0.34958730124E+02  0.64707812107E+03  0.00000000000E+00 0.  1.
         11    1    5    5    0    0  0.27983251172E+02 -0.41436404717E+02 -0.29563362572E+02  0.58086404507E+02  0.00000000000E+00 0.  1.
        -11    1    5    5    0    0  0.27303434940E+02 -0.10649529699E+02 -0.18791452210E+03  0.19018611321E+03  0.00000000000E+00 0. -1.
          1    1    6    6  503    0 -0.91463129974E+02 -0.22523432900E+02 -0.95749856881E+02  0.13431620999E+03  0.00000000000E+00 0. -1.
         -1    1    6    6    0  503 -0.75840534509E+03 -0.27192416858E+03 -0.49226193825E+03  0.94416271732E+03  0.00000000000E+00 0.  1.
<mgrwt>
<rscale>  0 0.92466225E+03</rscale>
<asrwt>0</asrwt>
<pdfrwt beam="1">  1        2 0.23728798E+00 0.92466225E+03</pdfrwt>
<pdfrwt beam="2">  1       -2 0.10145471E+00 0.92466225E+03</pdfrwt>
<totfact> 0.96235897E+00</totfact>
</mgrwt>
</event>
<event>
12    1  0.1338445E-007  0.2065861E+04  0.7818608E-02  0.8576433E-01
         -1   -1    0    0    0  501 -0.00000000000E+00  0.00000000000E+00  0.24778679592E+04  0.24778679592E+04  0.00000000000E+00 0.  1.
          1   -1    0    0  501    0  0.00000000000E+00 -0.00000000000E+00 -0.17807501223E+04  0.17807501223E+04  0.00000000000E+00 0. -1.
         23    2    1    2    0    0  0.19822076928E+04 -0.44821602118E+03  0.66213355322E+03  0.21393458824E+04  0.91296347637E+02 0.  0.
    5000000    2    1    2    0    0 -0.19822076928E+04  0.44821602118E+03  0.34984283655E+02  0.21192721991E+04  0.60003817762E+03 0.  0.
         23    2    4    4    0    0 -0.82064584585E+02 -0.75633790820E+02  0.16644610031E+02  0.14609802878E+03  0.92803688583E+02 0.  0.
         23    2    4    4    0    0 -0.19001431082E+04  0.52384981200E+03  0.18339673625E+02  0.19731741703E+04  0.90097199833E+02 0.  0.
          2    1    3    3  502    0  0.90935855773E+03 -0.15929524265E+03  0.30564721187E+03  0.97248556748E+03  0.00000000000E+00 0. -1.
         -2    1    3    3    0  502  0.10728491351E+04 -0.28892077853E+03  0.35648634136E+03  0.11668603149E+04  0.00000000000E+00 0.  1.
         11    1    5    5    0    0 -0.43877313563E+02 -0.37391042743E+01 -0.29038611594E+02  0.52748843680E+02  0.00000000000E+00 0. -1.
        -11    1    5    5    0    0 -0.38187271022E+02 -0.71894686546E+02  0.45683221624E+02  0.93349185104E+02  0.00000000000E+00 0.  1.
          3    1    6    6  503    0 -0.14134640492E+04  0.41757062216E+03 -0.14752045598E+02  0.14739279039E+04  0.00000000000E+00 0. -1.
         -3    1    6    6    0  503 -0.48667905897E+03  0.10627918984E+03  0.33091719222E+02  0.49924626640E+03  0.00000000000E+00 0.  1.
<mgrwt>
<rscale>  0 0.20658614E+04</rscale>
<asrwt>0</asrwt>
<pdfrwt beam="1">  1        1 0.27396156E+00 0.20658614E+04</pdfrwt>
<pdfrwt beam="2">  1       -1 0.38121046E+00 0.20658614E+04</pdfrwt>
<totfact> 0.35682834E-02</totfact>
</mgrwt>
</event>
<event>
12    1  0.1338445E-007  0.4801579E+03  0.7818608E-02  0.1019092E+00
          2   -1    0    0  501    0  0.00000000000E+00  0.00000000000E+00  0.73264802218E+03  0.73264802218E+03  0.00000000000E+00 0. -1.
         -2   -1    0    0    0  501 -0.00000000000E+00 -0.00000000000E+00 -0.50268171152E+03  0.50268171152E+03  0.00000000000E+00 0.  1.
         23    2    1    2    0    0  0.43892205049E+03  0.11026322628E+03  0.10166642338E+03  0.47302692847E+03  0.92778596380E+02 0.  0.
    5000000    2    1    2    0    0 -0.43892205049E+03 -0.11026322628E+03  0.12829988729E+03  0.76230280523E+03  0.59986178434E+03 0.  0.
         23    2    4    4    0    0 -0.35887724882E+03 -0.10189541612E+03 -0.18465869812E+03  0.42620430424E+03  0.91518952196E+02 0.  0.
         23    2    4    4    0    0 -0.80044801663E+02 -0.83678101522E+01  0.31295858540E+03  0.33609850099E+03  0.92422592849E+02 0.  0.
          3    1    3    3  502    0  0.23460718753E+03  0.10009669618E+03  0.79975711434E+02  0.26731254263E+03  0.00000000000E+00 0. -1.
         -3    1    3    3    0  502  0.20431486295E+03  0.10166530095E+02  0.21690711947E+02  0.20571438584E+03  0.00000000000E+00 0.  1.
         11    1    5    5    0    0 -0.20690584514E+03 -0.18185564905E+02 -0.12660695947E+03  0.24324897885E+03  0.00000000000E+00 0. -1.
        -11    1    5    5    0    0 -0.15197140368E+03 -0.83709851220E+02 -0.58051738642E+02  0.18295532539E+03  0.00000000000E+00 0.  1.
          2    1    6    6  503    0 -0.95591932670E+01 -0.40786492135E+02  0.14785183965E+03  0.15367199681E+03  0.00000000000E+00 0.  1.
         -2    1    6    6    0  503 -0.70485608396E+02  0.32418681983E+02  0.16510674576E+03  0.18242650418E+03  0.00000000000E+00 0. -1.
<mgrwt>
<rscale>  0 0.48015792E+03</rscale>
<asrwt>0</asrwt>
<pdfrwt beam="1">  1        2 0.11271508E+00 0.48015792E+03</pdfrwt>
<pdfrwt beam="2">  1       -2 0.77335648E-01 0.48015792E+03</pdfrwt>
<totfact> 0.59838807E+01</totfact>
</mgrwt>
</event>
<event>
12    1  0.1338445E-007  0.1311709E+04  0.7818608E-02  0.9020331E-01
          1   -1    0    0  501    0  0.00000000000E+00  0.00000000000E+00  0.11500344463E+04  0.11500344463E+04  0.00000000000E+00 0. -1.
         -1   -1    0    0    0  501 -0.00000000000E+00 -0.00000000000E+00 -0.16241907987E+04  0.16241907987E+04  0.00000000000E+00 0.  1.
         23    2    1    2    0    0  0.10771601279E+04 -0.71969479063E+03 -0.12820828820E+03  0.13050779606E+04  0.92501813081E+02 0.  0.
    5000000    2    1    2    0    0 -0.10771601279E+04  0.71969479063E+03 -0.34594806418E+03  0.14691472844E+04  0.60039915687E+03 0.  0.
         23    2    4    4    0    0 -0.24135757635E+03  0.31172626379E+03 -0.35006936533E+03  0.53456013273E+03  0.88199953310E+02 0.  0.
         23    2    4    4    0    0 -0.83580255151E+03  0.40796852684E+03  0.41213011509E+01  0.93458715172E+03  0.91825568439E+02 0.  0.
          3    1    3    3  502    0  0.67158901126E+03 -0.50170326509E+03 -0.78725797113E+02  0.84198320492E+03  0.00000000000E+00 0. -1.
         -3    1    3    3    0  502  0.40557111661E+03 -0.21799152555E+03 -0.49482491092E+02  0.46309475570E+03  0.00000000000E+00 0.  1.
         11    1    5    5    0    0 -0.11759621096E+02  0.14906489472E+02 -0.51908813942E+02  0.55272208945E+02  0.00000000000E+00 0. -1.
        -11    1    5    5    0    0 -0.22959795526E+03  0.29681977432E+03 -0.29816055139E+03  0.47928792379E+03  0.00000000000E+00 0.  1.
          1    1    6    6  503    0 -0.61155884693E+03  0.28528128707E+03  0.42251309368E+02  0.67614703220E+03  0.00000000000E+00 0. -1.
         -1    1    6    6    0  503 -0.22424370459E+03  0.12268723978E+03 -0.38130008217E+02  0.25844011952E+03  0.00000000000E+00 0.  1.
<mgrwt>
<rscale>  0 0.13117092E+04</rscale>
<asrwt>0</asrwt>
<pdfrwt beam="1">  1        1 0.17692838E+00 0.13117092E+04</pdfrwt>
<pdfrwt beam="2">  1       -1 0.24987551E+00 0.13117092E+04</pdfrwt>
<totfact> 0.78689132E-01</totfact>
</mgrwt>
</event>
<event>
12    1  0.1338445E-007  0.5672154E+03  0.7818608E-02  0.9975860E-01
         -1   -1    0    0    0  501 -0.00000000000E+00  0.00000000000E+00  0.18869291592E+03  0.18869291592E+03  0.00000000000E+00 0.  1.
          1   -1    0    0  501    0  0.00000000000E+00 -0.00000000000E+00 -0.20395243331E+04  0.20395243331E+04  0.00000000000E+00 0. -1.
         23    2    1    2    0    0 -0.32501482980E+03  0.33525748244E+03 -0.61403143178E+03  0.77683113478E+03  0.91650388100E+02 0.  0.
    5000000    2    1    2    0    0  0.32501482980E+03 -0.33525748244E+03 -0.12367999854E+04  0.14513861142E+04  0.59901187765E+03 0.  0.
         23    2    4    4    0    0  0.28564080680E+03 -0.44279729977E+03 -0.11768464073E+04  0.12925940595E+04  0.90398103104E+02 0.  0.
         23    2    4    4    0    0  0.39374022992E+02  0.10753981733E+03 -0.59953578099E+02  0.15879205474E+03  0.92224503932E+02 0.  0.
          3    1    3    3  502    0 -0.54054046041E+02  0.11252373590E+03 -0.15005991719E+03  0.19519582419E+03  0.00000000000E+00 0. -1.
         -3    1    3    3    0  502 -0.27096078375E+03  0.22273374655E+03 -0.46397151459E+03  0.58163531060E+03  0.00000000000E+00 0.  1.
         11    1    5    5    0    0  0.17784420216E+02 -0.33776679192E+02 -0.41162140503E+02  0.56137968172E+02  0.00000000000E+00 0.  1.
        -11    1    5    5    0    0  0.26785638659E+03 -0.40902062058E+03 -0.11356842668E+04  0.12364560913E+04  0.00000000000E+00 0. -1.
          2    1    6    6  503    0 -0.11131688172E+02  0.64307680250E+02 -0.65010402596E+02  0.92118101730E+02  0.00000000000E+00 0.  1.
         -2    1    6    6    0  503  0.50505711164E+02  0.43232137075E+02  0.50568244974E+01  0.66673953012E+02  0.00000000000E+00 0. -1.
<mgrwt>
<rscale>  0 0.56721540E+03</rscale>
<asrwt>0</asrwt>
<pdfrwt beam="1">  1        1 0.31377295E+00 0.56721540E+03</pdfrwt>
<pdfrwt beam="2">  1       -1 0.29029682E-01 0.56721540E+03</pdfrwt>
<totfact> 0.32288632E+01</totfact>
</mgrwt>
</event>
<event>
12    1  0.1338445E-007  0.2287056E+04  0.7818608E-02  0.8483042E-01
         -1   -1    0    0    0  501 -0.00000000000E+00  0.00000000000E+00  0.18778259260E+04  0.18778259260E+04  0.00000000000E+00 0.  1.
          1   -1    0    0  501    0  0.00000000000E+00 -0.00000000000E+00 -0.30979705535E+04  0.30979705535E+04  0.00000000000E+00 0. -1.
         23    2    1    2    0    0 -0.13013330542E+04  0.18331174098E+04 -0.13868735824E+04  0.26430305369E+04  0.91678401869E+02 0.  0.
    5000000    2    1    2    0    0  0.13013330542E+04 -0.18331174098E+04  0.16672895492E+03  0.23327659426E+04  0.60017600976E+03 0.  0.
         23    2    4    4    0    0  0.68239833910E+03 -0.14170795309E+04  0.10558586455E+03  0.15788805493E+04  0.89070332306E+02 0.  0.
         23    2    4    4    0    0  0.61893471512E+03 -0.41603787892E+03  0.61143090372E+02  0.75388539336E+03  0.91853201120E+02 0.  0.
          1    1    3    3  502    0 -0.61007816448E+03  0.78079126970E+03 -0.61224080374E+03  0.11647614242E+04  0.00000000000E+00 0. -1.
         -1    1    3    3    0  502 -0.69125488973E+03  0.10523261401E+04 -0.77463277865E+03  0.14782691126E+04  0.00000000000E+00 0.  1.
         11    1    5    5    0    0  0.15168258092E+03 -0.30153688101E+03 -0.13454437432E+02  0.33780633187E+03  0.00000000000E+00 0.  1.
        -11    1    5    5    0    0  0.53071575818E+03 -0.11155426498E+04  0.11904030198E+03  0.12410742174E+04  0.00000000000E+00 0. -1.
          2    1    6    6  503    0  0.47161270124E+03 -0.36140560007E+03  0.43085205977E+02  0.59572550953E+03  0.00000000000E+00 0. -1.
         -2    1    6    6    0  503  0.14732201388E+03 -0.54632278846E+02  0.18057884395E+02  0.15815988383E+03  0.00000000000E+00 0.  1.
<mgrwt>
<rscale>  0 0.22870558E+04</rscale>
<asrwt>0</asrwt>
<pdfrwt beam="1">  1        1 0.47661085E+00 0.22870558E+04</pdfrwt>
<pdfrwt beam="2">  1       -1 0.28889630E+00 0.22870558E+04</pdfrwt>
<totfact> 0.16973246E-02</totfact>
</mgrwt>
</event>
<event>
12    1  0.1338445E-007  0.5630233E+03  0.7818608E-02  0.9985237E-01
         -2   -1    0    0    0  501 -0.00000000000E+00  0.00000000000E+00  0.48276883106E+03  0.48276883106E+03  0.00000000000E+00 0.  1.
          2   -1    0    0  501    0  0.00000000000E+00 -0.00000000000E+00 -0.14089549849E+04  0.14089549849E+04  0.00000000000E+00 0. -1.
         23    2    1    2    0    0  0.35308188899E+03  0.22368217150E+03 -0.10647382115E+04  0.11474655186E+04  0.91154391432E+02 0.  0.
    5000000    2    1    2    0    0 -0.35308188899E+03 -0.22368217150E+03  0.13855205768E+03  0.74425829737E+03  0.60001933830E+03 0.  0.
         23    2    4    4    0    0 -0.35967223323E+03 -0.37530381184E+03  0.18670794975E+03  0.56004173384E+03  0.92573314798E+02 0.  0.
         23    2    4    4    0    0  0.65903442320E+01  0.15162164034E+03 -0.48155892066E+02  0.18421656353E+03  0.92650946477E+02 0.  0.
          2    1    3    3  502    0  0.93715875642E+02  0.97191588378E+02 -0.41815563542E+03  0.43941211366E+03  0.00000000000E+00 0. -1.
         -2    1    3    3    0  502  0.25936601335E+03  0.12649058313E+03 -0.64658257607E+03  0.70805340489E+03  0.00000000000E+00 0.  1.
         13    1    5    5    0    0 -0.17858282751E+03 -0.13503044083E+03  0.49167530782E+02  0.22922149183E+03  0.00000000000E+00 0. -1.
        -13    1    5    5    0    0 -0.18108940572E+03 -0.24027337101E+03  0.13754041897E+03  0.33082024202E+03  0.00000000000E+00 0.  1.
          2    1    6    6  503    0  0.35939963554E+02  0.14251436522E+03 -0.42199930119E+02  0.15291454926E+03  0.00000000000E+00 0.  1.
         -2    1    6    6    0  503 -0.29349619322E+02  0.91072751140E+01 -0.59559619467E+01  0.31302014266E+02  0.00000000000E+00 0. -1.
<mgrwt>
<rscale>  0 0.56302331E+03</rscale>
<asrwt>0</asrwt>
<pdfrwt beam="1">  1        2 0.21676231E+00 0.56302331E+03</pdfrwt>
<pdfrwt beam="2">  1       -2 0.74272128E-01 0.56302331E+03</pdfrwt>
<totfact> 0.24455831E+01</totfact>
</mgrwt>
</event>
<event>
12    1  0.1338445E-007  0.7863376E+03  0.7818608E-02  0.9580006E-01
          2   -1    0    0  501    0  0.00000000000E+00  0.00000000000E+00  0.11222210165E+04  0.11222210165E+04  0.00000000000E+00 0.  1.
         -2   -1    0    0    0  501 -0.00000000000E+00 -0.00000000000E+00 -0.75161812180E+03  0.75161812180E+03  0.00000000000E+00 0. -1.
         23    2    1    2    0    0  0.26328115054E+03  0.73133989419E+03 -0.93747900173E+02  0.78820825364E+03  0.91151397436E+02 0.  0.
    5000000    2    1    2    0    0 -0.26328115054E+03 -0.73133989419E+03  0.46435079492E+03  0.10856308847E+04  0.59899728883E+03 0.  0.
         23    2    4    4    0    0 -0.11717413172E+03 -0.48682259051E+03  0.57482438382E+03  0.76679364265E+03  0.82603912694E+02 0.  0.
         23    2    4    4    0    0 -0.14610701882E+03 -0.24451730368E+03 -0.11047358890E+03  0.31883724206E+03  0.91196492973E+02 0.  0.
          2    1    3    3  502    0  0.14220404652E+03  0.28467732562E+03 -0.63085041519E+02  0.32441161051E+03  0.00000000000E+00 0.  1.
         -2    1    3    3    0  502  0.12107710402E+03  0.44666256857E+03 -0.30662858655E+02  0.46379664314E+03  0.00000000000E+00 0. -1.
         13    1    5    5    0    0 -0.10590468525E+03 -0.31000702330E+03  0.41001528809E+03  0.52481681882E+03  0.00000000000E+00 0.  1.
        -13    1    5    5    0    0 -0.11269446477E+02 -0.17681556721E+03  0.16480909573E+03  0.24197682382E+03  0.00000000000E+00 0. -1.
          2    1    6    6  503    0 -0.10630438441E+03 -0.20439642795E+03 -0.12268589570E+03  0.26101791300E+03  0.00000000000E+00 0. -1.
         -2    1    6    6    0  503 -0.39802634407E+02 -0.40120875730E+02  0.12212306798E+02  0.57819329055E+02  0.00000000000E+00 0.  1.
<mgrwt>
<rscale>  0 0.78633762E+03</rscale>
<asrwt>0</asrwt>
<pdfrwt beam="1">  1        2 0.17264939E+00 0.78633762E+03</pdfrwt>
<pdfrwt beam="2">  1       -2 0.11563356E+00 0.78633762E+03</pdfrwt>
<totfact> 0.12456612E+01</totfact>
</mgrwt>
</event>
<event>
12    1  0.1338445E-007  0.7806836E+03  0.7818608E-02  0.9588405E-01
         -2   -1    0    0    0  501 -0.00000000000E+00  0.00000000000E+00  0.59680505327E+03  0.59680505327E+03  0.00000000000E+00 0.  1.
          2   -1    0    0  501    0  0.00000000000E+00 -0.00000000000E+00 -0.13779008977E+04  0.13779008977E+04  0.00000000000E+00 0. -1.
         23    2    1    2    0    0  0.19755758448E+02  0.71352123721E+03 -0.75355378071E+03  0.10418547384E+04  0.90084125190E+02 0.  0.
    5000000    2    1    2    0    0 -0.19755758448E+02 -0.71352123721E+03 -0.27542063712E+02  0.93285121254E+03  0.59995830981E+03 0.  0.
         23    2    4    4    0    0  0.18938842339E+03 -0.17990529159E+03  0.16607865376E+03  0.32180712713E+03  0.87998971499E+02 0.  0.
         23    2    4    4    0    0 -0.20914418184E+03 -0.53361594563E+03 -0.19362071747E+03  0.61104408540E+03  0.86015265200E+02 0.  0.
          2    1    3    3  502    0 -0.32964881189E+02  0.28013842482E+03 -0.32005434056E+03  0.42661340973E+03  0.00000000000E+00 0. -1.
         -2    1    3    3    0  502  0.52720639637E+02  0.43338281239E+03 -0.43349944015E+03  0.61524132869E+03  0.00000000000E+00 0.  1.
         13    1    5    5    0    0  0.85765652425E+02 -0.49670198785E+02  0.21650695022E+02  0.10144766325E+03  0.00000000000E+00 0.  1.
        -13    1    5    5    0    0  0.10362277096E+03 -0.13023509280E+03  0.14442795874E+03  0.22035946389E+03  0.00000000000E+00 0. -1.
          4    1    6    6  503    0 -0.14785625295E+03 -0.28441984622E+03 -0.79963254371E+02  0.33037893775E+03  0.00000000000E+00 0. -1.
         -4    1    6    6    0  503 -0.61287928883E+02 -0.24919609940E+03 -0.11365746310E+03  0.28066514765E+03  0.00000000000E+00 0.  1.
<mgrwt>
<rscale>  0 0.78068364E+03</rscale>
<asrwt>0</asrwt>
<pdfrwt beam="1">  1        2 0.21198475E+00 0.78068364E+03</pdfrwt>
<pdfrwt beam="2">  1       -2 0.91816162E-01 0.78068364E+03</pdfrwt>
<totfact> 0.15310384E+01</totfact>
</mgrwt>
</event>
<event>
12    1  0.1338445E-007  0.5236176E+03  0.7818608E-02  0.1007792E+00
         -2   -1    0    0    0  501 -0.00000000000E+00  0.00000000000E+00  0.36777538010E+03  0.36777538010E+03  0.00000000000E+00 0.  1.
          2   -1    0    0  501    0  0.00000000000E+00 -0.00000000000E+00 -0.10101115587E+04  0.10101115587E+04  0.00000000000E+00 0. -1.
         23    2    1    2    0    0  0.40701681220E+03  0.20953318802E+03 -0.20435745659E+03  0.50525540173E+03  0.62882498454E+02 0.  0.
    5000000    2    1    2    0    0 -0.40701681220E+03 -0.20953318802E+03 -0.43797872199E+03  0.87263153705E+03  0.60007799180E+03 0.  0.
         23    2    4    4    0    0 -0.28887619922E+03  0.48461255428E+02 -0.48146701207E+03  0.57086268559E+03  0.90971261014E+02 0.  0.
         23    2    4    4    0    0 -0.11814061298E+03 -0.25799444345E+03  0.43488290079E+02  0.30176885146E+03  0.93031559452E+02 0.  0.
          4    1    3    3  502    0  0.45475810027E+02  0.11788792231E+02 -0.43012849963E+01  0.47175480628E+02  0.00000000000E+00 0. -1.
         -4    1    3    3    0  502  0.36154100218E+03  0.19774439579E+03 -0.20005617159E+03  0.45807992110E+03  0.00000000000E+00 0.  1.
         13    1    5    5    0    0 -0.16467867028E+03  0.65621442607E+02 -0.23527371122E+03  0.29458268341E+03  0.00000000000E+00 0. -1.
        -13    1    5    5    0    0 -0.12419752895E+03 -0.17160187178E+02 -0.24619330085E+03  0.27628000218E+03  0.00000000000E+00 0.  1.
          1    1    6    6  503    0 -0.75228150871E+02 -0.12624451918E+03  0.66506917864E+02  0.16130754300E+03  0.00000000000E+00 0. -1.
         -1    1    6    6    0  503 -0.42912462109E+02 -0.13174992427E+03 -0.23018627784E+02  0.14046130846E+03  0.00000000000E+00 0.  1.
<mgrwt>
<rscale>  0 0.52361763E+03</rscale>
<asrwt>0</asrwt>
<pdfrwt beam="1">  1        2 0.15540178E+00 0.52361763E+03</pdfrwt>
<pdfrwt beam="2">  1       -2 0.56580828E-01 0.52361763E+03</pdfrwt>
<totfact> 0.75381439E+01</totfact>
</mgrwt>
</event>
<event>
12    1  0.1338445E-007  0.4811546E+03  0.7818608E-02  0.1018818E+00
         -2   -1    0    0    0  501 -0.00000000000E+00  0.00000000000E+00  0.37334350103E+03  0.37334350103E+03  0.00000000000E+00 0.  1.
          2   -1    0    0  501    0  0.00000000000E+00 -0.00000000000E+00 -0.81970349616E+03  0.81970349616E+03  0.00000000000E+00 0. -1.
         23    2    1    2    0    0  0.26956072091E+03  0.14829689389E+03 -0.40910095474E+03  0.51805124991E+03  0.79740550407E+02 0.  0.
    5000000    2    1    2    0    0 -0.26956072091E+03 -0.14829689389E+03 -0.37259040396E+02  0.67499574727E+03  0.59964662239E+03 0.  0.
         23    2    4    4    0    0  0.17912099102E+03 -0.49769344968E+02 -0.15155643551E+02  0.20701081528E+03  0.89791241174E+02 0.  0.
         23    2    4    4    0    0 -0.44868171192E+03 -0.98527548921E+02 -0.22103396845E+02  0.46798493199E+03  0.86593186244E+02 0.  0.
          2    1    3    3  502    0  0.11782915056E+03  0.85503171331E+02 -0.25062621697E+03  0.28984133877E+03  0.00000000000E+00 0.  1.
         -2    1    3    3    0  502  0.15173157035E+03  0.62793722557E+02 -0.15847473777E+03  0.22820991114E+03  0.00000000000E+00 0. -1.
         13    1    5    5    0    0  0.85135692868E+02 -0.36051881346E+02 -0.50884157968E+02  0.10553208934E+03  0.00000000000E+00 0.  1.
        -13    1    5    5    0    0  0.93985298149E+02 -0.13717463621E+02  0.35728514417E+02  0.10147872594E+03  0.00000000000E+00 0. -1.
          1    1    6    6  503    0 -0.44900907262E+03 -0.91742682894E+02 -0.15554953889E+02  0.45854969605E+03  0.00000000000E+00 0. -1.
         -1    1    6    6    0  503  0.32736069394E+00 -0.67848660272E+01 -0.65484429563E+01  0.94352359367E+01  0.00000000000E+00 0.  1.
<mgrwt>
<rscale>  0 0.48115460E+03</rscale>
<asrwt>0</asrwt>
<pdfrwt beam="1">  1        2 0.12610823E+00 0.48115460E+03</pdfrwt>
<pdfrwt beam="2">  1       -2 0.57437463E-01 0.48115460E+03</pdfrwt>
<totfact> 0.98018012E+01</totfact>
</mgrwt>
</event>
<event>
12    1  0.1338445E-007  0.6769898E+03  0.7818608E-02  0.9757412E-01
         -2   -1    0    0    0  501 -0.00000000000E+00  0.00000000000E+00  0.11273221653E+04  0.11273221653E+04  0.00000000000E+00 0. -1.
          2   -1    0    0  501    0  0.00000000000E+00 -0.00000000000E+00 -0.10977121383E+04  0.10977121383E+04  0.00000000000E+00 0.  1.
         23    2    1    2    0    0  0.24311693831E+03  0.50454155456E+03  0.87748252383E+03  0.10449574634E+04  0.91063135459E+02 0.  0.
    5000000    2    1    2    0    0 -0.24311693831E+03 -0.50454155456E+03 -0.84787249677E+03  0.11800768403E+04  0.60002129312E+03 0.  0.
         23    2    4    4    0    0 -0.30333377944E+03 -0.59794078746E+03 -0.69696824238E+03  0.97127718662E+03  0.89833597853E+02 0.  0.
         23    2    4    4    0    0  0.60216841124E+02  0.93399232897E+02 -0.15090425439E+03  0.20879965366E+03  0.92063655771E+02 0.  0.
          2    1    3    3  502    0  0.16083325737E+03  0.40831463900E+03  0.64314340472E+03  0.77860235046E+03  0.00000000000E+00 0. -1.
         -2    1    3    3    0  502  0.82283680944E+02  0.96226915560E+02  0.23433911910E+03  0.26635511290E+03  0.00000000000E+00 0.  1.
         11    1    5    5    0    0 -0.18562905629E+03 -0.37201664446E+03 -0.36818444841E+03  0.55535062649E+03  0.00000000000E+00 0.  1.
        -11    1    5    5    0    0 -0.11770472315E+03 -0.22592414300E+03 -0.32878379397E+03  0.41592656012E+03  0.00000000000E+00 0. -1.
          2    1    6    6  503    0  0.24537523519E+02  0.72783519392E+02 -0.14890075626E+03  0.16754392251E+03  0.00000000000E+00 0. -1.
         -2    1    6    6    0  503  0.35679317605E+02  0.20615713505E+02 -0.20034981358E+01  0.41255731152E+02  0.00000000000E+00 0.  1.
<mgrwt>
<rscale>  0 0.67698981E+03</rscale>
<asrwt>0</asrwt>
<pdfrwt beam="1">  1        2 0.16887879E+00 0.67698981E+03</pdfrwt>
<pdfrwt beam="2">  1       -2 0.17343418E+00 0.67698981E+03</pdfrwt>
<totfact> 0.45511429E+00</totfact>
</mgrwt>
</event>
<event>
12    1  0.1338445E-007  0.4555620E+03  0.7818608E-02  0.1026076E+00
          2   -1    0    0  501    0  0.00000000000E+00  0.00000000000E+00  0.13910743986E+04  0.13910743986E+04  0.00000000000E+00 0. -1.
         -2   -1    0    0    0  501 -0.00000000000E+00 -0.00000000000E+00 -0.17968454895E+03  0.17968454895E+03  0.00000000000E+00 0.  1.
         23    2    1    2    0    0 -0.26817247458E+03  0.15298822478E+03  0.33958619808E+03  0.46810256393E+03  0.92083393635E+02 0.  0.
    5000000    2    1    2    0    0  0.26817247458E+03 -0.15298822478E+03  0.87180365161E+03  0.11026563837E+04  0.60040621285E+03 0.  0.
         23    2    4    4    0    0  0.19791601104E+02  0.17439978886E+03  0.10145462994E+03  0.22477838271E+03  0.97083909944E+02 0.  0.
         23    2    4    4    0    0  0.24838087348E+03 -0.32738801364E+03  0.77034902167E+03  0.87787800095E+03  0.91412250724E+02 0.  0.
          3    1    3    3  502    0 -0.90280476918E+02  0.70538207980E+02  0.68313792914E+02  0.13339032049E+03  0.00000000000E+00 0. -1.
         -3    1    3    3    0  502 -0.17789199766E+03  0.82450016801E+02  0.27127240516E+03  0.33471224344E+03  0.00000000000E+00 0.  1.
         11    1    5    5    0    0  0.27353682115E+02  0.24242980943E+02 -0.96855317164E+01  0.37812108839E+02  0.00000000000E+00 0. -1.
        -11    1    5    5    0    0 -0.75620810112E+01  0.15015680792E+03  0.11114016165E+03  0.18696627387E+03  0.00000000000E+00 0.  1.
          3    1    6    6  503    0  0.79332901469E+02 -0.14228097916E+03  0.22612177776E+03  0.27869094830E+03  0.00000000000E+00 0. -1.
         -3    1    6    6    0  503  0.16904797201E+03 -0.18510703448E+03  0.54422724391E+03  0.59918705265E+03  0.00000000000E+00 0.  1.
<mgrwt>
<rscale>  0 0.45556200E+03</rscale>
<asrwt>0</asrwt>
<pdfrwt beam="1">  1        2 0.21401144E+00 0.45556200E+03</pdfrwt>
<pdfrwt beam="2">  1       -2 0.27643778E-01 0.45556200E+03</pdfrwt>
<totfact> 0.18208446E+02</totfact>
</mgrwt>
</event>
<event>
12    1  0.1338445E-007  0.1363020E+04  0.7818608E-02  0.8981030E-01
          2   -1    0    0  501    0  0.00000000000E+00  0.00000000000E+00  0.39617646377E+04  0.39617646377E+04  0.00000000000E+00 0. -1.
         -2   -1    0    0    0  501 -0.00000000000E+00 -0.00000000000E+00 -0.48320778380E+03  0.48320778380E+03  0.00000000000E+00 0.  1.
         23    2    1    2    0    0 -0.11640691622E+04 -0.59228475749E+03  0.19238827105E+04  0.23275152977E+04  0.10072005198E+03 0.  0.
    5000000    2    1    2    0    0  0.11640691622E+04  0.59228475749E+03  0.15546741434E+04  0.21174571238E+04  0.60062861311E+03 0.  0.
         23    2    4    4    0    0  0.20085788029E+02 -0.64055165787E+02  0.10363880084E+03  0.15452179372E+03  0.92894997442E+02 0.  0.
         23    2    4    4    0    0  0.11439833741E+04  0.65633992328E+03  0.14510353425E+04  0.19629353301E+04  0.90174773068E+02 0.  0.
          2    1    3    3  502    0 -0.54205250897E+03 -0.33227869244E+03  0.93393650373E+03  0.11298085877E+04  0.00000000000E+00 0.  1.
         -2    1    3    3    0  502 -0.62201665319E+03 -0.26000606505E+03  0.98994620680E+03  0.11977067100E+04  0.00000000000E+00 0. -1.
         11    1    5    5    0    0  0.36915993118E+02 -0.10026400886E+02  0.87778681776E+02  0.95751847173E+02  0.00000000000E+00 0. -1.
        -11    1    5    5    0    0 -0.16830205089E+02 -0.54028764901E+02  0.15860119059E+02  0.58769946543E+02  0.00000000000E+00 0.  1.
          3    1    6    6  503    0  0.10517807460E+04  0.62694033207E+03  0.13269425504E+04  0.18055673484E+04  0.00000000000E+00 0.  1.
         -3    1    6    6    0  503  0.92202628156E+02  0.29399591207E+02  0.12409279213E+03  0.15736798169E+03  0.00000000000E+00 0. -1.
<mgrwt>
<rscale>  0 0.13630199E+04</rscale>
<asrwt>0</asrwt>
<pdfrwt beam="1">  1        2 0.60950223E+00 0.13630199E+04</pdfrwt>
<pdfrwt beam="2">  1       -2 0.74339662E-01 0.13630199E+04</pdfrwt>
<totfact> 0.59362210E-01</totfact>
</mgrwt>
</event>
<event>
12    1  0.1338445E-007  0.8505607E+03  0.7818608E-02  0.9489585E-01
         -1   -1    0    0    0  501 -0.00000000000E+00  0.00000000000E+00  0.93748629895E+03  0.93748629895E+03  0.00000000000E+00 0.  1.
          1   -1    0    0  501    0  0.00000000000E+00 -0.00000000000E+00 -0.10254270573E+04  0.10254270573E+04  0.00000000000E+00 0. -1.
         23    2    1    2    0    0  0.39011878901E+03 -0.73074567231E+03 -0.35559082159E+03  0.90562993980E+03  0.86826541559E+02 0.  0.
    5000000    2    1    2    0    0 -0.39011878901E+03  0.73074567231E+03  0.26765006323E+03  0.10572834165E+04  0.60002479887E+03 0.  0.
         23    2    4    4    0    0 -0.11793476014E+03  0.82954749771E+02  0.30263593543E+03  0.34789273879E+03  0.93009408834E+02 0.  0.
         23    2    4    4    0    0 -0.27218402887E+03  0.64779092254E+03 -0.34985872203E+02  0.70939067768E+03  0.91070837414E+02 0.  0.
          3    1    3    3  502    0  0.26279360145E+03 -0.50273540241E+03 -0.19922195013E+03  0.60124266916E+03  0.00000000000E+00 0. -1.
         -3    1    3    3    0  502  0.12732518756E+03 -0.22801026990E+03 -0.15636887146E+03  0.30438727064E+03  0.00000000000E+00 0.  1.
         13    1    5    5    0    0 -0.53400948599E+02 -0.72439687839E+01  0.57340477056E+02  0.78689686135E+02  0.00000000000E+00 0.  1.
        -13    1    5    5    0    0 -0.64533811540E+02  0.90198718555E+02  0.24529545837E+03  0.26920305266E+03  0.00000000000E+00 0. -1.
          4    1    6    6  503    0 -0.89022673212E+02  0.32272742082E+03 -0.31508868735E+02  0.33626006796E+03  0.00000000000E+00 0. -1.
         -4    1    6    6    0  503 -0.18316135566E+03  0.32506350172E+03 -0.34770034682E+01  0.37313060972E+03  0.00000000000E+00 0.  1.
<mgrwt>
<rscale>  0 0.85056073E+03</rscale>
<asrwt>0</asrwt>
<pdfrwt beam="1">  1        1 0.15775801E+00 0.85056073E+03</pdfrwt>
<pdfrwt beam="2">  1       -1 0.14422866E+00 0.85056073E+03</pdfrwt>
<totfact> 0.57205341E+00</totfact>
</mgrwt>
</event>
<event>
12    1  0.1434385E-007  0.9612167E+03  0.7818608E-02  0.9352135E-01
          2   -1    0    0  501    0  0.00000000000E+00  0.00000000000E+00  0.10534463506E+04  0.10534463506E+04  0.00000000000E+00 0. -1.
         -2   -1    0    0    0  501 -0.00000000000E+00 -0.00000000000E+00 -0.89594687258E+03  0.89594687258E+03  0.00000000000E+00 0.  1.
         23    2    1    2    0    0 -0.71486656344E+03  0.49595874903E+03 -0.33218203909E+02  0.87545028513E+03  0.91106906417E+02 0.  0.
    5000000    2    1    2    0    0  0.71486656344E+03 -0.49595874903E+03  0.19071768197E+03  0.10739429381E+04  0.59997576267E+03 0.  0.
         23    2    4    4    0    0  0.13651456932E+03  0.12197897614E+03  0.59566812093E+02  0.21262395330E+03  0.90253211353E+02 0.  0.
         23    2    4    4    0    0  0.57835199412E+03 -0.61793772517E+03  0.13115086988E+03  0.86131898479E+03  0.91278593328E+02 0.  0.
          1    1    3    3  502    0 -0.32571592825E+03  0.27950945646E+03 -0.28130347575E+02  0.43012523598E+03  0.00000000000E+00 0. -1.
         -1    1    3    3    0  502 -0.38915063519E+03  0.21644929257E+03 -0.50878563333E+01  0.44532504915E+03  0.00000000000E+00 0.  1.
         11    1    5    5    0    0  0.40203416144E+02  0.92400547411E+02  0.12900573197E+02  0.10159035693E+03  0.00000000000E+00 0. -1.
        -11    1    5    5    0    0  0.96311153172E+02  0.29578428725E+02  0.46666238896E+02  0.11103359637E+03  0.00000000000E+00 0.  1.
          3    1    6    6  503    0  0.32387402940E+03 -0.35248888681E+03  0.28508094833E+02  0.47953676993E+03  0.00000000000E+00 0. -1.
         -3    1    6    6    0  503  0.25447796472E+03 -0.26544883836E+03  0.10264277504E+03  0.38178221486E+03  0.00000000000E+00 0.  1.
<mgrwt>
<rscale>  0 0.96121666E+03</rscale>
<asrwt>0</asrwt>
<pdfrwt beam="1">  1        2 0.16206867E+00 0.96121666E+03</pdfrwt>
<pdfrwt beam="2">  1       -2 0.13783798E+00 0.96121666E+03</pdfrwt>
<totfact> 0.86689115E+00</totfact>
</mgrwt>
</event>
<event>
12    1  0.1338445E-007  0.9506473E+03  0.7818608E-02  0.9364394E-01
         -2   -1    0    0    0  501 -0.00000000000E+00  0.00000000000E+00  0.10621551277E+04  0.10621551277E+04  0.00000000000E+00 0.  1.
          2   -1    0    0  501    0  0.00000000000E+00 -0.00000000000E+00 -0.15337688411E+04  0.15337688411E+04  0.00000000000E+00 0. -1.
         23    2    1    2    0    0 -0.58057533399E+02  0.92068221034E+03 -0.10100217576E+04  0.13708772154E+04  0.90188576467E+02 0.  0.
    5000000    2    1    2    0    0  0.58057533399E+02 -0.92068221034E+03  0.53840804415E+03  0.12250467534E+04  0.59985824697E+03 0.  0.
         23    2    4    4    0    0  0.98305381495E+02 -0.65517553832E+02  0.29347327864E+03  0.33006980094E+03  0.94143562321E+02 0.  0.
         23    2    4    4    0    0 -0.40247848097E+02 -0.85516465650E+03  0.24493476550E+03  0.89497695248E+03  0.89801041786E+02 0.  0.
          1    1    3    3  502    0 -0.24144059128E+02  0.33642427281E+03 -0.43467371713E+03  0.55018675674E+03  0.00000000000E+00 0. -1.
         -1    1    3    3    0  502 -0.33913474271E+02  0.58425793753E+03 -0.57534804044E+03  0.82069045867E+03  0.00000000000E+00 0.  1.
         13    1    5    5    0    0  0.27577549764E+02 -0.16414153502E+02  0.97075737301E+01  0.33528833470E+02  0.00000000000E+00 0.  1.
        -13    1    5    5    0    0  0.70727831732E+02 -0.49103400331E+02  0.28376570491E+03  0.29654096747E+03  0.00000000000E+00 0. -1.
          1    1    6    6  503    0 -0.54292372015E+02 -0.27902108948E+03  0.71002791235E+02  0.29298775811E+03  0.00000000000E+00 0. -1.
         -1    1    6    6    0  503  0.14044523918E+02 -0.57614356702E+03  0.17393197427E+03  0.60198919437E+03  0.00000000000E+00 0.  1.
<mgrwt>
<rscale>  0 0.95064732E+03</rscale>
<asrwt>0</asrwt>
<pdfrwt beam="1">  1        2 0.23596444E+00 0.95064732E+03</pdfrwt>
<pdfrwt beam="2">  1       -2 0.16340848E+00 0.95064732E+03</pdfrwt>
<totfact> 0.28856876E+00</totfact>
</mgrwt>
</event>
<event>
12    1  0.1338445E-007  0.1238996E+04  0.7818608E-02  0.9079392E-01
         -2   -1    0    0    0  501 -0.00000000000E+00  0.00000000000E+00  0.81538505907E+03  0.81538505907E+03  0.00000000000E+00 0.  1.
          2   -1    0    0  501    0  0.00000000000E+00 -0.00000000000E+00 -0.20546998327E+04  0.20546998327E+04  0.00000000000E+00 0. -1.
         23    2    1    2    0    0 -0.28771091807E+03 -0.11827373749E+04 -0.45479769141E+03  0.13025860677E+04  0.90797870921E+02 0.  0.
    5000000    2    1    2    0    0  0.28771091807E+03  0.11827373749E+04 -0.78451708221E+03  0.15674988240E+04  0.59995019854E+03 0.  0.
         23    2    4    4    0    0  0.30481561797E+03  0.10725135214E+04 -0.45448091948E+03  0.12070809208E+04  0.85402743587E+02 0.  0.
         23    2    4    4    0    0 -0.17104699899E+02  0.11022385350E+03 -0.33003616273E+03  0.36041790325E+03  0.92386836936E+02 0.  0.
          1    1    3    3  502    0 -0.14195277880E+03 -0.48467597430E+03 -0.14800636976E+03  0.52627680640E+03  0.00000000000E+00 0. -1.
         -1    1    3    3    0  502 -0.14575813927E+03 -0.69806140060E+03 -0.30679132165E+03  0.77630926132E+03  0.00000000000E+00 0.  1.
         13    1    5    5    0    0  0.72308703485E+02  0.24492907701E+03 -0.66125126494E+02  0.26380169393E+03  0.00000000000E+00 0.  1.
        -13    1    5    5    0    0  0.23250691449E+03  0.82758444438E+03 -0.38835579299E+03  0.94327922685E+03  0.00000000000E+00 0. -1.
          1    1    6    6  503    0 -0.16817121289E+02  0.12697345809E+03 -0.29150432072E+03  0.31840201573E+03  0.00000000000E+00 0. -1.
         -1    1    6    6    0  503 -0.28757861012E+00 -0.16749604588E+02 -0.38531842009E+02  0.42015887518E+02  0.00000000000E+00 0.  1.
<mgrwt>
<rscale>  0 0.12389959E+04</rscale>
<asrwt>0</asrwt>
<pdfrwt beam="1">  1        2 0.31610766E+00 0.12389959E+04</pdfrwt>
<pdfrwt beam="2">  1       -2 0.12544386E+00 0.12389959E+04</pdfrwt>
<totfact> 0.28769519E+00</totfact>
</mgrwt>
</event>
<event>
12    1  0.1338445E-007  0.2374645E+04  0.7818608E-02  0.8449058E-01
          2   -1    0    0  501    0  0.00000000000E+00  0.00000000000E+00  0.58780886524E+04  0.58780886524E+04  0.00000000000E+00 0. -1.
         -2   -1    0    0    0  501 -0.00000000000E+00 -0.00000000000E+00 -0.11101779613E+04  0.11101779613E+04  0.00000000000E+00 0.  1.
         23    2    1    2    0    0 -0.70774038643E+03 -0.22592942972E+04  0.35264981302E+04  0.42485051983E+04  0.91105331762E+02 0.  0.
    5000000    2    1    2    0    0  0.70774038643E+03  0.22592942972E+04  0.12414125609E+04  0.27397614155E+04  0.59990023460E+03 0.  0.
         23    2    4    4    0    0  0.49688140839E+03  0.18793613514E+04  0.77198704550E+03  0.20936152820E+04  0.91491679708E+02 0.  0.
         23    2    4    4    0    0  0.21085897804E+03  0.37993294574E+03  0.46942551542E+03  0.64614613344E+03  0.91290521735E+02 0.  0.
          1    1    3    3  502    0 -0.12105143227E+03 -0.28791442656E+03  0.48123661934E+03  0.57370449717E+03  0.00000000000E+00 0. -1.
         -1    1    3    3    0  502 -0.58668895415E+03 -0.19713798706E+04  0.30452615109E+04  0.36748007011E+04  0.00000000000E+00 0.  1.
         13    1    5    5    0    0  0.18961051658E+03  0.81963940614E+03  0.29424934857E+03  0.89125954874E+03  0.00000000000E+00 0. -1.
        -13    1    5    5    0    0  0.30727089181E+03  0.10597219453E+04  0.47773769693E+03  0.12023557333E+04  0.00000000000E+00 0.  1.
          2    1    6    6  503    0  0.12442326375E+03  0.25259007293E+03  0.24053946550E+03  0.37032705541E+03  0.00000000000E+00 0.  1.
         -2    1    6    6    0  503  0.86435714288E+02  0.12734287281E+03  0.22888604992E+03  0.27581907803E+03  0.00000000000E+00 0. -1.
<mgrwt>
<rscale>  0 0.23746450E+04</rscale>
<asrwt>0</asrwt>
<pdfrwt beam="1">  1        2 0.90432131E+00 0.23746450E+04</pdfrwt>
<pdfrwt beam="2">  1       -2 0.17079661E+00 0.23746450E+04</pdfrwt>
<totfact> 0.15177246E-04</totfact>
</mgrwt>
</event>
<event>
12    1  0.1338445E-007  0.3592950E+03  0.7818608E-02  0.1058863E+00
          2   -1    0    0  501    0  0.00000000000E+00  0.00000000000E+00  0.13944173115E+04  0.13944173115E+04  0.00000000000E+00 0.  1.
         -2   -1    0    0    0  501 -0.00000000000E+00 -0.00000000000E+00 -0.17433540595E+03  0.17433540595E+03  0.00000000000E+00 0. -1.
         23    2    1    2    0    0 -0.13465155622E+03  0.26032677214E+03  0.50507087185E+03  0.59074454013E+03  0.89338996038E+02 0.  0.
    5000000    2    1    2    0    0  0.13465155622E+03 -0.26032677214E+03  0.71501103372E+03  0.97800817735E+03  0.59946488365E+03 0.  0.
         23    2    4    4    0    0  0.33764849222E+01 -0.25750403827E+03  0.29624411674E+02  0.27405286961E+03  0.88924907630E+02 0.  0.
         23    2    4    4    0    0  0.13127507130E+03 -0.28227338704E+01  0.68538662205E+03  0.70395530774E+03  0.92504818466E+02 0.  0.
          4    1    3    3  502    0  0.11407202583E+01  0.68729551078E+02  0.15052776079E+03  0.16548008703E+03  0.00000000000E+00 0. -1.
         -4    1    3    3    0  502 -0.13579227648E+03  0.19159722106E+03  0.35454311106E+03  0.42526445310E+03  0.00000000000E+00 0.  1.
         13    1    5    5    0    0 -0.17197554232E+02 -0.22741080065E+03  0.48261975642E+02  0.23311080288E+03  0.00000000000E+00 0.  1.
        -13    1    5    5    0    0  0.20574039155E+02 -0.30093237617E+02 -0.18637563969E+02  0.40942066730E+02  0.00000000000E+00 0. -1.
          4    1    6    6  503    0  0.44068947414E+02  0.34176301515E+02  0.14551312770E+03  0.15583376414E+03  0.00000000000E+00 0. -1.
         -4    1    6    6    0  503  0.87206123883E+02 -0.36999035386E+02  0.53987349435E+03  0.54812154360E+03  0.00000000000E+00 0.  1.
<mgrwt>
<rscale>  0 0.35929501E+03</rscale>
<asrwt>0</asrwt>
<pdfrwt beam="1">  1        2 0.21452573E+00 0.35929501E+03</pdfrwt>
<pdfrwt beam="2">  1       -2 0.26820833E-01 0.35929501E+03</pdfrwt>
<totfact> 0.19398482E+02</totfact>
</mgrwt>
</event>
<event>
12    1  0.1338445E-007  0.1010409E+04  0.7818608E-02  0.9297202E-01
          2   -1    0    0  501    0  0.00000000000E+00  0.00000000000E+00  0.13595425111E+04  0.13595425111E+04  0.00000000000E+00 0. -1.
         -2   -1    0    0    0  501 -0.00000000000E+00 -0.00000000000E+00 -0.84777533120E+03  0.84777533120E+03  0.00000000000E+00 0.  1.
         23    2    1    2    0    0 -0.33335688668E+03  0.91199911459E+03  0.51745779060E+02  0.97666845350E+03  0.91293173460E+02 0.  0.
    5000000    2    1    2    0    0  0.33335688668E+03 -0.91199911459E+03  0.46002140082E+03  0.12306493888E+04  0.60000752495E+03 0.  0.
         23    2    4    4    0    0 -0.60084724381E+02 -0.28385596807E+03  0.36848411236E+03  0.47826439118E+03  0.93658433130E+02 0.  0.
         23    2    4    4    0    0  0.39344161106E+03 -0.62814314651E+03  0.91537288461E+02  0.75238499760E+03  0.91345473977E+02 0.  0.
          3    1    3    3  502    0 -0.17850335942E+03  0.60038990645E+03  0.54093381293E+02  0.62869514313E+03  0.00000000000E+00 0. -1.
         -3    1    3    3    0  502 -0.15485352726E+03  0.31160920814E+03 -0.23476022328E+01  0.34797331038E+03  0.00000000000E+00 0.  1.
         11    1    5    5    0    0  0.18039720844E+02 -0.13270970701E+03  0.14507638467E+03  0.19744481571E+03  0.00000000000E+00 0. -1.
        -11    1    5    5    0    0 -0.78124445225E+02 -0.15114626106E+03  0.22340772769E+03  0.28081957547E+03  0.00000000000E+00 0.  1.
          3    1    6    6  503    0  0.17963110236E+03 -0.24722854267E+03  0.77825786370E+02  0.31535081777E+03  0.00000000000E+00 0. -1.
         -3    1    6    6    0  503  0.21381050870E+03 -0.38091460384E+03  0.13711502091E+02  0.43703417983E+03  0.00000000000E+00 0.  1.
<mgrwt>
<rscale>  0 0.10104089E+04</rscale>
<asrwt>0</asrwt>
<pdfrwt beam="1">  1        2 0.20916039E+00 0.10104089E+04</pdfrwt>
<pdfrwt beam="2">  1       -2 0.13042697E+00 0.10104089E+04</pdfrwt>
<totfact> 0.65201049E+00</totfact>
</mgrwt>
</event>
<event>
12    1  0.1338445E-007  0.5648653E+03  0.7818608E-02  0.9981106E-01
          1   -1    0    0  501    0  0.00000000000E+00  0.00000000000E+00  0.19528215072E+04  0.19528215072E+04  0.00000000000E+00 0. -1.
         -1   -1    0    0    0  501 -0.00000000000E+00 -0.00000000000E+00 -0.27278687845E+03  0.27278687845E+03  0.00000000000E+00 0.  1.
         23    2    1    2    0    0 -0.51593665743E+03  0.42815469526E+02  0.11723182771E+04  0.12847203762E+04  0.90291212468E+02 0.  0.
    5000000    2    1    2    0    0  0.51593665743E+03 -0.42815469526E+02  0.50771635157E+03  0.94088800947E+03  0.59955863248E+03 0.  0.
         23    2    4    4    0    0  0.36671021563E+02  0.64468203086E+02 -0.98678838660E+02  0.15518112862E+03  0.94035931692E+02 0.  0.
         23    2    4    4    0    0  0.47926563587E+03 -0.10728367261E+03  0.60639519023E+03  0.78570688085E+03  0.91732435556E+02 0.  0.
          2    1    3    3  502    0 -0.36369313338E+03  0.56746559219E+02  0.90108723335E+03  0.97337098239E+03  0.00000000000E+00 0. -1.
         -2    1    3    3    0  502 -0.15224352405E+03 -0.13931089693E+02  0.27123104380E+03  0.31134939376E+03  0.00000000000E+00 0.  1.
         13    1    5    5    0    0  0.38678497733E+02 -0.93693624416E+01 -0.59462458988E+02  0.71551346377E+02  0.00000000000E+00 0.  1.
        -13    1    5    5    0    0 -0.20074761702E+01  0.73837565527E+02 -0.39216379671E+02  0.83629782244E+02  0.00000000000E+00 0. -1.
          4    1    6    6  503    0  0.33660878236E+03 -0.10433614285E+03  0.47719396104E+03  0.59321630079E+03  0.00000000000E+00 0. -1.
         -4    1    6    6    0  503  0.14265685351E+03 -0.29475297579E+01  0.12920122919E+03  0.19249058005E+03  0.00000000000E+00 0.  1.
<mgrwt>
<rscale>  0 0.56486528E+03</rscale>
<asrwt>0</asrwt>
<pdfrwt beam="1">  1        1 0.30043407E+00 0.56486528E+03</pdfrwt>
<pdfrwt beam="2">  1       -1 0.41967213E-01 0.56486528E+03</pdfrwt>
<totfact> 0.19188985E+01</totfact>
</mgrwt>
</event>
<event>
12    1  0.1338445E-007  0.3797908E+03  0.7818608E-02  0.1051011E+00
         -2   -1    0    0    0  501 -0.00000000000E+00  0.00000000000E+00  0.17610376774E+03  0.17610376774E+03  0.00000000000E+00 0. -1.
          2   -1    0    0  501    0  0.00000000000E+00 -0.00000000000E+00 -0.17937450290E+04  0.17937450290E+04  0.00000000000E+00 0.  1.
         23    2    1    2    0    0 -0.55887572263E+02 -0.17942704185E+03 -0.11949069363E+04  0.12122458714E+04  0.80124791768E+02 0.  0.
    5000000    2    1    2    0    0  0.55887572263E+02  0.17942704185E+03 -0.42273432495E+03  0.75760292532E+03  0.59995033035E+03 0.  0.
         23    2    4    4    0    0 -0.21561613122E+03  0.15886983704E+03 -0.37287994425E+03  0.46830900570E+03  0.92433385944E+02 0.  0.
         23    2    4    4    0    0  0.27150370349E+03  0.20557204816E+02 -0.49854380704E+02  0.28929391962E+03  0.84075281613E+02 0.  0.
          3    1    3    3  502    0 -0.63892450412E+02 -0.77124940048E+02 -0.51626293674E+03  0.52588774606E+03  0.00000000000E+00 0. -1.
         -3    1    3    3    0  502  0.80048781494E+01 -0.10230210180E+03 -0.67864399951E+03  0.68635812531E+03  0.00000000000E+00 0.  1.
         13    1    5    5    0    0 -0.47159476471E+02  0.87644347798E+02 -0.11388802635E+03  0.15124824121E+03  0.00000000000E+00 0. -1.
        -13    1    5    5    0    0 -0.16845665475E+03  0.71225489238E+02 -0.25899191790E+03  0.31706076450E+03  0.00000000000E+00 0.  1.
          2    1    6    6  503    0  0.29434670476E+02  0.13074388325E+02 -0.33631883663E+02  0.46566544373E+02  0.00000000000E+00 0. -1.
         -2    1    6    6    0  503  0.24206903301E+03  0.74828164911E+01 -0.16222497041E+02  0.24272737525E+03  0.00000000000E+00 0.  1.
<mgrwt>
<rscale>  0 0.37979080E+03</rscale>
<asrwt>0</asrwt>
<pdfrwt beam="1">  1        2 0.27596080E+00 0.37979080E+03</pdfrwt>
<pdfrwt beam="2">  1       -2 0.27092885E-01 0.37979080E+03</pdfrwt>
<totfact> 0.11564406E+02</totfact>
</mgrwt>
</event>
<event>
12    1  0.1338445E-007  0.4525946E+03  0.7818608E-02  0.1026951E+00
          1   -1    0    0  501    0  0.00000000000E+00  0.00000000000E+00  0.80488748280E+03  0.80488748280E+03  0.00000000000E+00 0. -1.
         -1   -1    0    0    0  501 -0.00000000000E+00 -0.00000000000E+00 -0.34991213461E+03  0.34991213461E+03  0.00000000000E+00 0.  1.
         23    2    1    2    0    0 -0.30872500987E+03 -0.14822329012E+03  0.25603610201E+03  0.43588953638E+03  0.84639984255E+02 0.  0.
    5000000    2    1    2    0    0  0.30872500987E+03  0.14822329012E+03  0.19893924618E+03  0.71891008104E+03  0.59997800418E+03 0.  0.
         23    2    4    4    0    0  0.39008425498E+03  0.18775674359E+03 -0.43583387563E+02  0.44425749467E+03  0.89704454477E+02 0.  0.
         23    2    4    4    0    0 -0.81359245110E+02 -0.39533453472E+02  0.24252263374E+03  0.27465258637E+03  0.91840049078E+02 0.  0.
          3    1    3    3  502    0 -0.20077376893E+03 -0.10257500049E+03  0.11689032951E+03  0.25395882767E+03  0.00000000000E+00 0. -1.
         -3    1    3    3    0  502 -0.10795124094E+03 -0.45648289628E+02  0.13914577250E+03  0.18193070871E+03  0.00000000000E+00 0.  1.
         11    1    5    5    0    0  0.12312410716E+03  0.23187831220E+02  0.11622333513E+02  0.12582646747E+03  0.00000000000E+00 0.  1.
        -11    1    5    5    0    0  0.26696014782E+03  0.16456891237E+03 -0.55205721075E+02  0.31843102720E+03  0.00000000000E+00 0. -1.
          1    1    6    6  503    0 -0.63139180936E+02  0.16038228883E+02  0.88424473764E+02  0.10983018035E+03  0.00000000000E+00 0. -1.
         -1    1    6    6    0  503 -0.18220064175E+02 -0.55571682355E+02  0.15409815998E+03  0.16482240602E+03  0.00000000000E+00 0.  1.
<mgrwt>
<rscale>  0 0.45259458E+03</rscale>
<asrwt>0</asrwt>
<pdfrwt beam="1">  1        1 0.12382884E+00 0.45259458E+03</pdfrwt>
<pdfrwt beam="2">  1       -1 0.53832636E-01 0.45259458E+03</pdfrwt>
<totfact> 0.80244099E+01</totfact>
</mgrwt>
</event>
<event>
12    1  0.1338445E-007  0.8511544E+03  0.7818608E-02  0.9488789E-01
          2   -1    0    0  501    0  0.00000000000E+00  0.00000000000E+00  0.21660538246E+04  0.21660538246E+04  0.00000000000E+00 0.  1.
         -2   -1    0    0    0  501 -0.00000000000E+00 -0.00000000000E+00 -0.45421653943E+03  0.45421653943E+03  0.00000000000E+00 0. -1.
         23    2    1    2    0    0 -0.83036331875E+02  0.74952840730E+03  0.13394697130E+03  0.77138248345E+03  0.91658490530E+02 0.  0.
    5000000    2    1    2    0    0  0.83036331875E+02 -0.74952840730E+03  0.15778903139E+04  0.18488878806E+04  0.59996723798E+03 0.  0.
         23    2    4    4    0    0  0.31452345940E+03 -0.30705204041E+03  0.85136377101E+03  0.96243247317E+03  0.90829691205E+02 0.  0.
         23    2    4    4    0    0 -0.23148712752E+03 -0.44247636689E+03  0.72652654290E+03  0.88645540746E+03  0.92686279484E+02 0.  0.
          1    1    3    3  502    0 -0.68384879805E+02  0.24363540429E+03  0.31382337430E+02  0.25498931960E+03  0.00000000000E+00 0. -1.
         -1    1    3    3    0  502 -0.14651452071E+02  0.50589300301E+03  0.10256463387E+03  0.51639316384E+03  0.00000000000E+00 0.  1.
         13    1    5    5    0    0  0.20812178186E+03 -0.21234463639E+03  0.65991390702E+03  0.72380334716E+03  0.00000000000E+00 0. -1.
        -13    1    5    5    0    0  0.10640167754E+03 -0.94707404024E+02  0.19144986399E+03  0.23862912601E+03  0.00000000000E+00 0.  1.
          3    1    6    6  503    0 -0.12910372922E+03 -0.17894148279E+03  0.26068940510E+03  0.34153593236E+03  0.00000000000E+00 0. -1.
         -3    1    6    6    0  503 -0.10238339831E+03 -0.26353488410E+03  0.46583713781E+03  0.54491947510E+03  0.00000000000E+00 0.  1.
<mgrwt>
<rscale>  0 0.85115440E+03</rscale>
<asrwt>0</asrwt>
<pdfrwt beam="1">  1        2 0.33323904E+00 0.85115440E+03</pdfrwt>
<pdfrwt beam="2">  1       -2 0.69879469E-01 0.85115440E+03</pdfrwt>
<totfact> 0.10312242E+01</totfact>
</mgrwt>
</event>
<event>
12    1  0.1338445E-007  0.6869516E+03  0.7818608E-02  0.9739810E-01
         -1   -1    0    0    0  501 -0.00000000000E+00  0.00000000000E+00  0.37418485383E+03  0.37418485383E+03  0.00000000000E+00 0.  1.
          1   -1    0    0  501    0  0.00000000000E+00 -0.00000000000E+00 -0.16191992476E+04  0.16191992476E+04  0.00000000000E+00 0. -1.
         23    2    1    2    0    0  0.59480590292E+03 -0.13780924914E+03 -0.21466106795E+03  0.65381582221E+03  0.92791723693E+02 0.  0.
    5000000    2    1    2    0    0 -0.59480590292E+03  0.13780924914E+03 -0.10303533258E+04  0.13395682792E+04  0.60002478895E+03 0.  0.
         23    2    4    4    0    0 -0.56156147278E+03  0.26404738128E+03 -0.99491795043E+03  0.11761144097E+04  0.91165066946E+02 0.  0.
         23    2    4    4    0    0 -0.33244430147E+02 -0.12623813214E+03 -0.35435375367E+02  0.16345386946E+03  0.91761884645E+02 0.  0.
          4    1    3    3  502    0  0.19882163368E+03 -0.86610470694E+02 -0.54498408578E+02  0.22361013436E+03  0.00000000000E+00 0. -1.
         -4    1    3    3    0  502  0.39598426925E+03 -0.51198778443E+02 -0.16016265937E+03  0.43020568785E+03  0.00000000000E+00 0.  1.
         11    1    5    5    0    0 -0.35556038538E+03  0.11802783124E+03 -0.58628297239E+03  0.69575964263E+03  0.00000000000E+00 0.  1.
        -11    1    5    5    0    0 -0.20600108739E+03  0.14601955004E+03 -0.40863497804E+03  0.48035476711E+03  0.00000000000E+00 0. -1.
          2    1    6    6  503    0 -0.30896765154E+02 -0.11201086602E+03  0.91897854516E+01  0.11655683746E+03  0.00000000000E+00 0. -1.
         -2    1    6    6    0  503 -0.23476649934E+01 -0.14227266120E+02 -0.44625160819E+02  0.46897031999E+02  0.00000000000E+00 0.  1.
<mgrwt>
<rscale>  0 0.68695165E+03</rscale>
<asrwt>0</asrwt>
<pdfrwt beam="1">  1        1 0.24910758E+00 0.68695165E+03</pdfrwt>
<pdfrwt beam="2">  1       -1 0.57566900E-01 0.68695165E+03</pdfrwt>
<totfact> 0.17314062E+01</totfact>
</mgrwt>
</event>
<event>
12    1  0.1338445E-007  0.6089586E+03  0.7818608E-02  0.9886992E-01
          1   -1    0    0  501    0  0.00000000000E+00  0.00000000000E+00  0.20039662839E+04  0.20039662839E+04  0.00000000000E+00 0. -1.
         -1   -1    0    0    0  501 -0.00000000000E+00 -0.00000000000E+00 -0.30089282758E+03  0.30089282758E+03  0.00000000000E+00 0.  1.
         23    2    1    2    0    0  0.36126836011E+03 -0.30795871614E+03  0.53430484813E+02  0.48645332824E+03  0.91807543181E+02 0.  0.
    5000000    2    1    2    0    0 -0.36126836011E+03  0.30795871614E+03  0.16496429715E+04  0.18184057833E+04  0.59993688022E+03 0.  0.
         23    2    4    4    0    0 -0.40094258395E+01  0.36188175398E+03  0.62566710505E+03  0.72878615273E+03  0.93249400528E+02 0.  0.
         23    2    4    4    0    0 -0.35725893427E+03 -0.53923037839E+02  0.10239758665E+04  0.10896196306E+04  0.90568890996E+02 0.  0.
          1    1    3    3  502    0  0.15330545145E+03 -0.75249447947E+02  0.69614420672E+01  0.17091957915E+03  0.00000000000E+00 0. -1.
         -1    1    3    3    0  502  0.20796290866E+03 -0.23270926820E+03  0.46469042746E+02  0.31553374909E+03  0.00000000000E+00 0.  1.
         13    1    5    5    0    0 -0.40928509325E+02  0.20747552313E+03  0.40574645258E+03  0.45754936276E+03  0.00000000000E+00 0. -1.
        -13    1    5    5    0    0  0.36919083485E+02  0.15440623085E+03  0.21992065247E+03  0.27123678997E+03  0.00000000000E+00 0.  1.
          2    1    6    6  503    0 -0.23367335415E+03 -0.59406401741E+02  0.56564590200E+03  0.61488831787E+03  0.00000000000E+00 0. -1.
         -2    1    6    6    0  503 -0.12358558012E+03  0.54833639027E+01  0.45832996449E+03  0.47473131269E+03  0.00000000000E+00 0.  1.
<mgrwt>
<rscale>  0 0.60895863E+03</rscale>
<asrwt>0</asrwt>
<pdfrwt beam="1">  1        1 0.30830250E+00 0.60895863E+03</pdfrwt>
<pdfrwt beam="2">  1       -1 0.46291205E-01 0.60895863E+03</pdfrwt>
<totfact> 0.14690995E+01</totfact>
</mgrwt>
</event>
<event>
12    1  0.1338445E-007  0.6283263E+03  0.7818608E-02  0.9848320E-01
         -2   -1    0    0    0  501 -0.00000000000E+00  0.00000000000E+00  0.48875273583E+03  0.48875273583E+03  0.00000000000E+00 0. -1.
          2   -1    0    0  501    0  0.00000000000E+00 -0.00000000000E+00 -0.15321106724E+04  0.15321106724E+04  0.00000000000E+00 0.  1.
         23    2    1    2    0    0  0.51314973857E+03  0.16920104860E+03  0.16050272010E+03  0.57124508233E+03  0.92780234383E+02 0.  0.
    5000000    2    1    2    0    0 -0.51314973857E+03 -0.16920104860E+03 -0.12038606566E+04  0.14496183259E+04  0.60013428582E+03 0.  0.
         23    2    4    4    0    0 -0.48465135958E+03 -0.27288007063E+03 -0.58198436719E+03  0.81024691646E+03  0.91890090313E+02 0.  0.
         23    2    4    4    0    0 -0.28498378993E+02  0.10367902203E+03 -0.62187628945E+03  0.63937140940E+03  0.10248991443E+03 0.  0.
          3    1    3    3  502    0  0.18330981118E+03  0.10629734850E+03  0.74581677451E+02  0.22464202586E+03  0.00000000000E+00 0. -1.
         -3    1    3    3    0  502  0.32983992739E+03  0.62903700101E+02  0.85921042651E+02  0.34660305647E+03  0.00000000000E+00 0.  1.
         13    1    5    5    0    0 -0.40755604960E+03 -0.19857412374E+03 -0.43415772040E+03  0.62771533545E+03  0.00000000000E+00 0. -1.
        -13    1    5    5    0    0 -0.77095309976E+02 -0.74305946882E+02 -0.14782664679E+03  0.18253158100E+03  0.00000000000E+00 0.  1.
          3    1    6    6  503    0  0.38694274098E+02  0.44781129869E+02 -0.24410841483E+03  0.25118024331E+03  0.00000000000E+00 0.  1.
         -3    1    6    6    0  503 -0.67192653091E+02  0.58897892160E+02 -0.37776787462E+03  0.38819116609E+03  0.00000000000E+00 0. -1.
<mgrwt>
<rscale>  0 0.62832632E+03</rscale>
<asrwt>0</asrwt>
<pdfrwt beam="1">  1        2 0.23570933E+00 0.62832632E+03</pdfrwt>
<pdfrwt beam="2">  1       -2 0.75192730E-01 0.62832632E+03</pdfrwt>
<totfact> 0.20134314E+01</totfact>
</mgrwt>
</event>
<event>
12    1  0.1338445E-007  0.7930219E+03  0.7818608E-02  0.9570173E-01
          2   -1    0    0  501    0  0.00000000000E+00  0.00000000000E+00  0.11867329817E+04  0.11867329817E+04  0.00000000000E+00 0.  1.
         -2   -1    0    0    0  501 -0.00000000000E+00 -0.00000000000E+00 -0.63277338922E+03  0.63277338922E+03  0.00000000000E+00 0. -1.
         23    2    1    2    0    0 -0.64663994985E+03  0.38947046336E+03  0.15660007172E+03  0.77644920419E+03  0.92300149771E+02 0.  0.
    5000000    2    1    2    0    0  0.64663994985E+03 -0.38947046336E+03  0.39735952074E+03  0.10430571667E+04  0.60020263058E+03 0.  0.
         23    2    4    4    0    0  0.60315699181E+03 -0.20536685773E+03  0.60317172019E+02  0.64643930796E+03  0.90948967038E+02 0.  0.
         23    2    4    4    0    0  0.43482958042E+02 -0.18410360563E+03  0.33704234872E+03  0.39661785876E+03  0.89012784556E+02 0.  0.
          4    1    3    3  502    0 -0.36717838547E+03  0.24984267362E+03  0.13082356964E+03  0.46298610637E+03  0.00000000000E+00 0. -1.
         -4    1    3    3    0  502 -0.27946156438E+03  0.13962778974E+03  0.25776502077E+02  0.31346309782E+03  0.00000000000E+00 0.  1.
         13    1    5    5    0    0  0.26246326098E+03 -0.12225417062E+03  0.60312455148E+02  0.29575435389E+03  0.00000000000E+00 0. -1.
        -13    1    5    5    0    0  0.34069373083E+03 -0.83112687105E+02  0.47168710349E-02  0.35068495406E+03  0.00000000000E+00 0.  1.
          3    1    6    6  503    0  0.24567501597E+02 -0.88737624705E+02  0.80619571090E+02  0.12238236562E+03  0.00000000000E+00 0. -1.
         -3    1    6    6    0  503  0.18915456445E+02 -0.95365980922E+02  0.25642277763E+03  0.27423549314E+03  0.00000000000E+00 0.  1.
<mgrwt>
<rscale>  0 0.79302193E+03</rscale>
<asrwt>0</asrwt>
<pdfrwt beam="1">  1        2 0.18257430E+00 0.79302193E+03</pdfrwt>
<pdfrwt beam="2">  1       -2 0.97349752E-01 0.79302193E+03</pdfrwt>
<totfact> 0.17218921E+01</totfact>
</mgrwt>
</event>
<event>
12    1  0.1338445E-007  0.7421371E+03  0.7818608E-02  0.9647767E-01
         -1   -1    0    0    0  501 -0.00000000000E+00  0.00000000000E+00  0.59458785923E+03  0.59458785923E+03  0.00000000000E+00 0.  1.
          1   -1    0    0  501    0  0.00000000000E+00 -0.00000000000E+00 -0.98042051569E+03  0.98042051569E+03  0.00000000000E+00 0. -1.
         23    2    1    2    0    0 -0.10838660191E+03 -0.63197972075E+03 -0.19808450804E+03  0.67703271996E+03  0.89385729658E+02 0.  0.
    5000000    2    1    2    0    0  0.10838660191E+03  0.63197972075E+03 -0.18774814843E+03  0.89797565496E+03  0.59997073824E+03 0.  0.
         23    2    4    4    0    0 -0.21916364822E+03  0.26431445465E+03  0.15169968968E+02  0.35756440521E+03  0.98627279556E+02 0.  0.
         23    2    4    4    0    0  0.32755025013E+03  0.36766526609E+03 -0.20291811740E+03  0.54041124975E+03  0.91660472616E+02 0.  0.
          4    1    3    3  502    0 -0.21552627070E+02 -0.13720571146E+03 -0.53480850515E+01  0.13899109685E+03  0.00000000000E+00 0.  1.
         -4    1    3    3    0  502 -0.86833974839E+02 -0.49477400929E+03 -0.19273642298E+03  0.53804162311E+03  0.00000000000E+00 0. -1.
         13    1    5    5    0    0 -0.18883391310E+03  0.18277122997E+03 -0.20362178351E+02  0.26358715361E+03  0.00000000000E+00 0.  1.
        -13    1    5    5    0    0 -0.30329735117E+02  0.81543224685E+02  0.35532147320E+02  0.93977251595E+02  0.00000000000E+00 0. -1.
          1    1    6    6  503    0  0.49858117678E+02  0.41381506761E+02  0.33693042170E+01  0.64881532126E+02  0.00000000000E+00 0. -1.
         -1    1    6    6    0  503  0.27769213245E+03  0.32628375933E+03 -0.20628742161E+03  0.47552971762E+03  0.00000000000E+00 0.  1.
<mgrwt>
<rscale>  0 0.74213706E+03</rscale>
<asrwt>0</asrwt>
<pdfrwt beam="1">  1        1 0.15083393E+00 0.74213706E+03</pdfrwt>
<pdfrwt beam="2">  1       -1 0.91475055E-01 0.74213706E+03</pdfrwt>
<totfact> 0.18819403E+01</totfact>
</mgrwt>
</event>
<event>
12    1  0.1338445E-007  0.6765807E+03  0.7818608E-02  0.9758142E-01
          1   -1    0    0  501    0  0.00000000000E+00  0.00000000000E+00  0.25972494041E+04  0.25972494041E+04  0.00000000000E+00 0. -1.
         -1   -1    0    0    0  501 -0.00000000000E+00 -0.00000000000E+00 -0.29292722129E+03  0.29292722129E+03  0.00000000000E+00 0.  1.
         23    2    1    2    0    0 -0.48451651982E+03  0.29941153065E+03  0.18675667220E+04  0.19546378775E+04  0.91652869081E+02 0.  0.
    5000000    2    1    2    0    0  0.48451651982E+03 -0.29941153065E+03  0.43675546082E+03  0.93553874790E+03  0.60006157484E+03 0.  0.
         23    2    4    4    0    0  0.42768177935E+03  0.32355574210E+02  0.38373595097E+03  0.58265565380E+03  0.90971112250E+02 0.  0.
         23    2    4    4    0    0  0.56834740467E+02 -0.33176710486E+03  0.53019509854E+02  0.35288309410E+03  0.91737724434E+02 0.  0.
          2    1    3    3  502    0 -0.43668000024E+03  0.29605353800E+03  0.16710144047E+04  0.17523202506E+04  0.00000000000E+00 0. -1.
         -2    1    3    3    0  502 -0.47836519580E+02  0.33579926578E+01  0.19655231731E+03  0.20231762692E+03  0.00000000000E+00 0.  1.
         11    1    5    5    0    0  0.95375316039E+02  0.25198492734E+02  0.13644780804E+03  0.16837285786E+03  0.00000000000E+00 0.  1.
        -11    1    5    5    0    0  0.33230646332E+03  0.71570814764E+01  0.24728814293E+03  0.41428279594E+03  0.00000000000E+00 0. -1.
          4    1    6    6  503    0  0.37675975699E+02 -0.42892032155E+02  0.23977688138E+02  0.61920393214E+02  0.00000000000E+00 0. -1.
         -4    1    6    6    0  503  0.19158764768E+02 -0.28887507271E+03  0.29041821716E+02  0.29096270089E+03  0.00000000000E+00 0.  1.
<mgrwt>
<rscale>  0 0.67658075E+03</rscale>
<asrwt>0</asrwt>
<pdfrwt beam="1">  1        1 0.39957682E+00 0.67658075E+03</pdfrwt>
<pdfrwt beam="2">  1       -1 0.45065728E-01 0.67658075E+03</pdfrwt>
<totfact> 0.60782004E+00</totfact>
</mgrwt>
</event>
<event>
12    1  0.1699228E-007  0.7693925E+03  0.7818608E-02  0.9605408E-01
          2   -1    0    0  501    0  0.00000000000E+00  0.00000000000E+00  0.15306295060E+04  0.15306295060E+04  0.00000000000E+00 0. -1.
         -2   -1    0    0    0  501 -0.00000000000E+00 -0.00000000000E+00 -0.69717541550E+03  0.69717541550E+03  0.00000000000E+00 0.  1.
         23    2    1    2    0    0  0.25064030960E+01 -0.75386807303E+03 -0.22946412510E+03  0.79327410440E+03  0.91140915193E+02 0.  0.
    5000000    2    1    2    0    0 -0.25064030960E+01  0.75386807303E+03  0.10629182156E+04  0.14345308171E+04  0.59980011551E+03 0.  0.
         23    2    4    4    0    0 -0.70735600820E+02  0.35003464098E+03  0.92051459758E+03  0.99129694884E+03  0.88287832264E+02 0.  0.
         23    2    4    4    0    0  0.68229197724E+02  0.40383343205E+03  0.14240361801E+03  0.44323386825E+03  0.91873866110E+02 0.  0.
          3    1    3    3  502    0  0.26924790568E+02 -0.43329053089E+03 -0.17049045912E+03  0.46640392918E+03  0.00000000000E+00 0. -1.
         -3    1    3    3    0  502 -0.24418387472E+02 -0.32057754214E+03 -0.58973665981E+02  0.32687017523E+03  0.00000000000E+00 0.  1.
         13    1    5    5    0    0 -0.55598745641E+02  0.10605470879E+03  0.37147442257E+03  0.39029741019E+03  0.00000000000E+00 0.  1.
        -13    1    5    5    0    0 -0.15136855179E+02  0.24397993219E+03  0.54904017500E+03  0.60099953865E+03  0.00000000000E+00 0. -1.
          1    1    6    6  503    0  0.29832890199E+02  0.35767938266E+03  0.13126873031E+03  0.38217276417E+03  0.00000000000E+00 0. -1.
         -1    1    6    6    0  503  0.38396307525E+02  0.46154049391E+02  0.11134887703E+02  0.61061104075E+02  0.00000000000E+00 0.  1.
<mgrwt>
<rscale>  0 0.76939246E+03</rscale>
<asrwt>0</asrwt>
<pdfrwt beam="1">  1        2 0.23548146E+00 0.76939246E+03</pdfrwt>
<pdfrwt beam="2">  1       -2 0.10725776E+00 0.76939246E+03</pdfrwt>
<totfact> 0.87122881E+00</totfact>
</mgrwt>
</event>
<event>
12    1  0.1338445E-007  0.1031484E+04  0.7818608E-02  0.9274672E-01
          1   -1    0    0  501    0  0.00000000000E+00  0.00000000000E+00  0.87551461471E+03  0.87551461471E+03  0.00000000000E+00 0. -1.
         -1   -1    0    0    0  501 -0.00000000000E+00 -0.00000000000E+00 -0.14176105699E+04  0.14176105699E+04  0.00000000000E+00 0.  1.
         23    2    1    2    0    0  0.10057221915E+04  0.90460631559E+02 -0.37447858904E+02  0.10147278959E+04  0.92790669456E+02 0.  0.
    5000000    2    1    2    0    0 -0.10057221915E+04 -0.90460631559E+02 -0.50464809633E+03  0.12783972887E+04  0.59997472819E+03 0.  0.
         23    2    4    4    0    0 -0.91623521695E+03 -0.17009673374E+03 -0.22864520321E+03  0.96415470895E+03  0.94317560565E+02 0.  0.
         23    2    4    4    0    0 -0.89486974518E+02  0.79636102179E+02 -0.27600289311E+03  0.31424257980E+03  0.90669590110E+02 0.  0.
          4    1    3    3  502    0  0.75596834175E+03  0.49185137308E+02 -0.63639142152E+02  0.76023499780E+03  0.00000000000E+00 0. -1.
         -4    1    3    3    0  502  0.24975384971E+03  0.41275494251E+02  0.26191283248E+02  0.25449289811E+03  0.00000000000E+00 0.  1.
         13    1    5    5    0    0 -0.62378796521E+03 -0.10464235080E+03 -0.19869602502E+03  0.66297930396E+03  0.00000000000E+00 0. -1.
        -13    1    5    5    0    0 -0.29244725174E+03 -0.65454382939E+02 -0.29949178193E+02  0.30117540499E+03  0.00000000000E+00 0.  1.
          4    1    6    6  503    0 -0.77782473231E+01  0.10323299455E+02 -0.14238240250E+03  0.14296789914E+03  0.00000000000E+00 0.  1.
         -4    1    6    6    0  503 -0.81708727195E+02  0.69312802724E+02 -0.13362049061E+03  0.17127468065E+03  0.00000000000E+00 0. -1.
<mgrwt>
<rscale>  0 0.10314840E+04</rscale>
<asrwt>0</asrwt>
<pdfrwt beam="1">  1        1 0.13469456E+00 0.10314840E+04</pdfrwt>
<pdfrwt beam="2">  1       -1 0.21809393E+00 0.10314840E+04</pdfrwt>
<totfact> 0.21634858E+00</totfact>
</mgrwt>
</event>
<event>
12    1  0.1338445E-007  0.1233714E+04  0.7818608E-02  0.9083848E-01
          2   -1    0    0  501    0  0.00000000000E+00  0.00000000000E+00  0.24099957630E+04  0.24099957630E+04  0.00000000000E+00 0. -1.
         -2   -1    0    0    0  501 -0.00000000000E+00 -0.00000000000E+00 -0.68506884561E+03  0.68506884561E+03  0.00000000000E+00 0.  1.
         23    2    1    2    0    0 -0.10506529318E+04  0.54621691082E+03  0.11326424100E+04  0.16414108184E+04  0.95530880651E+02 0.  0.
    5000000    2    1    2    0    0  0.10506529318E+04 -0.54621691082E+03  0.59228450739E+03  0.14536537902E+04  0.60006991880E+03 0.  0.
         23    2    4    4    0    0  0.64797860939E+03 -0.57777157321E+03  0.22717833045E+03  0.90254743989E+03  0.96361913515E+02 0.  0.
         23    2    4    4    0    0  0.40267432236E+03  0.31554662396E+02  0.36510617694E+03  0.55110635033E+03  0.85284127040E+02 0.  0.
          3    1    3    3  502    0 -0.30567460058E+03  0.11177968599E+03  0.32141183569E+03  0.45742455965E+03  0.00000000000E+00 0. -1.
         -3    1    3    3    0  502 -0.74497833117E+03  0.43443722482E+03  0.81123057432E+03  0.11839862588E+04  0.00000000000E+00 0.  1.
         11    1    5    5    0    0  0.33566731992E+03 -0.35621358833E+03  0.15010838565E+03  0.51195038589E+03  0.00000000000E+00 0. -1.
        -11    1    5    5    0    0  0.31231128947E+03 -0.22155798488E+03  0.77069944801E+02  0.39059705399E+03  0.00000000000E+00 0.  1.
          2    1    6    6  503    0  0.16923486939E+03 -0.12256051118E+02  0.19766573513E+03  0.26050411638E+03  0.00000000000E+00 0. -1.
         -2    1    6    6    0  503  0.23343945297E+03  0.43810713515E+02  0.16744044181E+03  0.29060223395E+03  0.00000000000E+00 0.  1.
<mgrwt>
<rscale>  0 0.12337144E+04</rscale>
<asrwt>0</asrwt>
<pdfrwt beam="1">  1        2 0.37076858E+00 0.12337144E+04</pdfrwt>
<pdfrwt beam="2">  1       -2 0.10539521E+00 0.12337144E+04</pdfrwt>
<totfact> 0.27948636E+00</totfact>
</mgrwt>
</event>
<event>
12    1  0.1338445E-007  0.4180802E+03  0.7818608E-02  0.1037693E+00
         -1   -1    0    0    0  501 -0.00000000000E+00  0.00000000000E+00  0.16817245840E+03  0.16817245840E+03  0.00000000000E+00 0.  1.
          1   -1    0    0  501    0  0.00000000000E+00 -0.00000000000E+00 -0.13106243596E+04  0.13106243596E+04  0.00000000000E+00 0. -1.
         23    2    1    2    0    0 -0.16199742679E+03  0.18083596767E+03 -0.51693410899E+03  0.57854733070E+03  0.92473387213E+02 0.  0.
    5000000    2    1    2    0    0  0.16199742679E+03 -0.18083596767E+03 -0.62551779226E+03  0.90024948734E+03  0.60019315019E+03 0.  0.
         23    2    4    4    0    0 -0.88262676936E+02 -0.27976566709E+03 -0.50576351339E+03  0.59161286829E+03  0.90276939665E+02 0.  0.
         23    2    4    4    0    0  0.25026010372E+03  0.98929699413E+02 -0.11975427887E+03  0.30863661905E+03  0.92186063850E+02 0.  0.
          4    1    3    3  502    0 -0.42616417033E+02  0.11590077574E+03 -0.26244965205E+03  0.29004994170E+03  0.00000000000E+00 0. -1.
         -4    1    3    3    0  502 -0.11938100975E+03  0.64935191928E+02 -0.25448445693E+03  0.28849738900E+03  0.00000000000E+00 0.  1.
         11    1    5    5    0    0 -0.81357874670E+02 -0.11560280985E+03 -0.20729780781E+03  0.25090933530E+03  0.00000000000E+00 0.  1.
        -11    1    5    5    0    0 -0.69048022657E+01 -0.16416285723E+03 -0.29846570557E+03  0.34070353299E+03  0.00000000000E+00 0. -1.
          2    1    6    6  503    0  0.13457871168E+03  0.35532329167E+02 -0.14628701259E+02  0.13995704682E+03  0.00000000000E+00 0. -1.
         -2    1    6    6    0  503  0.11568139204E+03  0.63397370246E+02 -0.10512557761E+03  0.16867957222E+03  0.00000000000E+00 0.  1.
<mgrwt>
<rscale>  0 0.41808022E+03</rscale>
<asrwt>0</asrwt>
<pdfrwt beam="1">  1        1 0.20163451E+00 0.41808022E+03</pdfrwt>
<pdfrwt beam="2">  1       -1 0.25872686E-01 0.41808022E+03</pdfrwt>
<totfact> 0.12406513E+02</totfact>
</mgrwt>
</event>
<event>
12    1  0.1338445E-007  0.3685763E+03  0.7818608E-02  0.1055239E+00
          2   -1    0    0  501    0  0.00000000000E+00  0.00000000000E+00  0.38237371217E+03  0.38237371217E+03  0.00000000000E+00 0. -1.
         -2   -1    0    0    0  501 -0.00000000000E+00 -0.00000000000E+00 -0.63451489578E+03  0.63451489578E+03  0.00000000000E+00 0.  1.
         23    2    1    2    0    0  0.24086715855E+03  0.11745476021E+03  0.59901591958E+02  0.28967967694E+03  0.92268660680E+02 0.  0.
    5000000    2    1    2    0    0 -0.24086715855E+03 -0.11745476021E+03 -0.31204277557E+03  0.72720893101E+03  0.59970786787E+03 0.  0.
         23    2    4    4    0    0 -0.28103304808E+02  0.11569934302E+03 -0.36446985464E+03  0.39442046667E+03  0.92482949045E+02 0.  0.
         23    2    4    4    0    0 -0.21276385375E+03 -0.23315410323E+03  0.52427079073E+02  0.33278846434E+03  0.91489180045E+02 0.  0.
          1    1    3    3  502    0  0.41634226215E+02  0.47735269543E+02 -0.16064762414E+02  0.65346318506E+02  0.00000000000E+00 0. -1.
         -1    1    3    3    0  502  0.19923293234E+03  0.69719490671E+02  0.75966354372E+02  0.22433335843E+03  0.00000000000E+00 0.  1.
         11    1    5    5    0    0  0.20450668807E+02  0.31109419851E+02 -0.36047522023E+02  0.51821324782E+02  0.00000000000E+00 0. -1.
        -11    1    5    5    0    0 -0.48553973615E+02  0.84589923170E+02 -0.32842233262E+03  0.34259914188E+03  0.00000000000E+00 0.  1.
          3    1    6    6  503    0 -0.91444811552E+02 -0.16544244178E+03  0.19750480454E+02  0.19006166521E+03  0.00000000000E+00 0. -1.
         -3    1    6    6    0  503 -0.12131904219E+03 -0.67711661453E+02  0.32676598619E+02  0.14272679914E+03  0.00000000000E+00 0.  1.
<mgrwt>
<rscale>  0 0.36857632E+03</rscale>
<asrwt>0</asrwt>
<pdfrwt beam="1">  1        2 0.58826725E-01 0.36857632E+03</pdfrwt>
<pdfrwt beam="2">  1       -2 0.97617676E-01 0.36857632E+03</pdfrwt>
<totfact> 0.76024066E+01</totfact>
</mgrwt>
</event>
<event>
12    1  0.1338445E-007  0.4941737E+03  0.7818608E-02  0.1015311E+00
          1   -1    0    0  501    0  0.00000000000E+00  0.00000000000E+00  0.15804356944E+04  0.15804356944E+04  0.00000000000E+00 0. -1.
         -1   -1    0    0    0  501 -0.00000000000E+00 -0.00000000000E+00 -0.16603642994E+03  0.16603642994E+03  0.00000000000E+00 0.  1.
         23    2    1    2    0    0 -0.28884874221E+03  0.14685687653E+03  0.38404849296E+03  0.51060874111E+03  0.90705586883E+02 0.  0.
    5000000    2    1    2    0    0  0.28884874221E+03 -0.14685687653E+03  0.10303507715E+04  0.12358633832E+04  0.60061223066E+03 0.  0.
         23    2    4    4    0    0 -0.11139736640E+03 -0.22160486558E+03  0.44883081440E+03  0.51967747669E+03  0.84246603126E+02 0.  0.
         23    2    4    4    0    0  0.40024610861E+03  0.74747989050E+02  0.58151995707E+03  0.71618590651E+03  0.94723718752E+02 0.  0.
          2    1    3    3  502    0 -0.10368076017E+03  0.43315786381E+02  0.20158134753E+03  0.23078344189E+03  0.00000000000E+00 0. -1.
         -2    1    3    3    0  502 -0.18516798204E+03  0.10354109015E+03  0.18246714544E+03  0.27982529922E+03  0.00000000000E+00 0.  1.
         13    1    5    5    0    0 -0.68822897603E+02 -0.91563680656E+02  0.27888638051E+03  0.30149313770E+03  0.00000000000E+00 0. -1.
        -13    1    5    5    0    0 -0.42574468795E+02 -0.13004118492E+03  0.16994443389E+03  0.21818433899E+03  0.00000000000E+00 0.  1.
          3    1    6    6  503    0  0.66466644616E+02  0.38243681864E+02  0.15875192653E+03  0.17630249070E+03  0.00000000000E+00 0. -1.
         -3    1    6    6    0  503  0.33377946399E+03  0.36504307186E+02  0.42276803053E+03  0.53988341581E+03  0.00000000000E+00 0.  1.
<mgrwt>
<rscale>  0 0.49417365E+03</rscale>
<asrwt>0</asrwt>
<pdfrwt beam="1">  1        1 0.24314394E+00 0.49417365E+03</pdfrwt>
<pdfrwt beam="2">  1       -1 0.25544067E-01 0.49417365E+03</pdfrwt>
<totfact> 0.82126041E+01</totfact>
</mgrwt>
</event>
<event>
12    1  0.1338445E-007  0.5820090E+03  0.7818608E-02  0.9943451E-01
          2   -1    0    0  501    0  0.00000000000E+00  0.00000000000E+00  0.56747231521E+03  0.56747231521E+03  0.00000000000E+00 0. -1.
         -2   -1    0    0    0  501 -0.00000000000E+00 -0.00000000000E+00 -0.82358355249E+03  0.82358355249E+03  0.00000000000E+00 0.  1.
         23    2    1    2    0    0 -0.19617342563E+03  0.48481475226E+03 -0.27140091482E+03  0.59456242280E+03  0.79477425166E+02 0.  0.
    5000000    2    1    2    0    0  0.19617342563E+03 -0.48481475226E+03  0.15289677536E+02  0.79649344490E+03  0.60053199466E+03 0.  0.
         23    2    4    4    0    0  0.13124099891E+03 -0.58093239737E+01 -0.20299163388E+03  0.25824357988E+03  0.90698374185E+02 0.  0.
         23    2    4    4    0    0  0.64932426715E+02 -0.47900542828E+03  0.21828131142E+03  0.53824986503E+03  0.91672056408E+02 0.  0.
          1    1    3    3  502    0 -0.74609079879E+02  0.10011277681E+03 -0.77293070815E+02  0.14684448126E+03  0.00000000000E+00 0. -1.
         -1    1    3    3    0  502 -0.12156434575E+03  0.38470197545E+03 -0.19410784400E+03  0.44771794154E+03  0.00000000000E+00 0.  1.
         11    1    5    5    0    0  0.69020758273E+02  0.35226356810E+02 -0.63892880622E+02  0.10043436404E+03  0.00000000000E+00 0. -1.
        -11    1    5    5    0    0  0.62220240638E+02 -0.41035680784E+02 -0.13909875326E+03  0.15780921583E+03  0.00000000000E+00 0.  1.
          1    1    6    6  503    0  0.62629571601E+02 -0.42085205851E+03  0.22202380154E+03  0.47993071046E+03  0.00000000000E+00 0. -1.
         -1    1    6    6    0  503  0.23028551140E+01 -0.58153369769E+02 -0.37424901212E+01  0.58319154568E+02  0.00000000000E+00 0.  1.
<mgrwt>
<rscale>  0 0.58200902E+03</rscale>
<asrwt>0</asrwt>
<pdfrwt beam="1">  1        2 0.87303433E-01 0.58200902E+03</pdfrwt>
<pdfrwt beam="2">  1       -2 0.12670516E+00 0.58200902E+03</pdfrwt>
<totfact> 0.25296695E+01</totfact>
</mgrwt>
</event>
<event>
12    1  0.1338445E-007  0.1623500E+04  0.7818608E-02  0.8806240E-01
          1   -1    0    0  501    0  0.00000000000E+00  0.00000000000E+00  0.19943213083E+04  0.19943213083E+04  0.00000000000E+00 0. -1.
         -1   -1    0    0    0  501 -0.00000000000E+00 -0.00000000000E+00 -0.13983056129E+04  0.13983056129E+04  0.00000000000E+00 0.  1.
         23    2    1    2    0    0 -0.13910073926E+04 -0.72445958484E+03  0.67739304970E+03  0.17109832887E+04  0.94123397839E+02 0.  0.
    5000000    2    1    2    0    0  0.13910073926E+04  0.72445958484E+03 -0.81377354305E+02  0.16816436325E+04  0.60129840891E+03 0.  0.
         23    2    4    4    0    0 -0.12076068424E+02  0.11069970759E+03  0.38542126145E+01  0.14502237319E+03  0.92824442270E+02 0.  0.
         23    2    4    4    0    0  0.14030834610E+04  0.61375987725E+03 -0.85231566919E+02  0.15366212593E+04  0.92715095824E+02 0.  0.
          1    1    3    3  502    0 -0.75386537418E+03 -0.34523715875E+03  0.38047363557E+03  0.91228388429E+03  0.00000000000E+00 0. -1.
         -1    1    3    3    0  502 -0.63714201843E+03 -0.37922242609E+03  0.29691941413E+03  0.79869940440E+03  0.00000000000E+00 0.  1.
         11    1    5    5    0    0 -0.51237597839E+02  0.51757711167E+02  0.11919480232E+02  0.73798550843E+02  0.00000000000E+00 0. -1.
        -11    1    5    5    0    0  0.39161529415E+02  0.58941996423E+02 -0.80652676175E+01  0.71223822350E+02  0.00000000000E+00 0.  1.
          3    1    6    6  503    0  0.59883851084E+03  0.29661590468E+03 -0.70467600298E+02  0.67197785653E+03  0.00000000000E+00 0. -1.
         -3    1    6    6    0  503  0.80424495019E+03  0.31714397257E+03 -0.14763966621E+02  0.86464340277E+03  0.00000000000E+00 0.  1.
<mgrwt>
<rscale>  0 0.16235002E+04</rscale>
<asrwt>0</asrwt>
<pdfrwt beam="1">  1        1 0.30681866E+00 0.16235002E+04</pdfrwt>
<pdfrwt beam="2">  1       -1 0.21512394E+00 0.16235002E+04</pdfrwt>
<totfact> 0.33256819E-01</totfact>
</mgrwt>
</event>
<event>
12    1  0.1338445E-007  0.7795616E+03  0.7818608E-02  0.9590081E-01
          1   -1    0    0  501    0  0.00000000000E+00  0.00000000000E+00  0.37700236211E+03  0.37700236211E+03  0.00000000000E+00 0. -1.
         -1   -1    0    0    0  501 -0.00000000000E+00 -0.00000000000E+00 -0.19269478120E+04  0.19269478120E+04  0.00000000000E+00 0.  1.
         23    2    1    2    0    0  0.72462764067E+03  0.34134037267E+02 -0.90431616549E+03  0.11624443633E+04  0.85081258190E+02 0.  0.
    5000000    2    1    2    0    0 -0.72462764067E+03 -0.34134037267E+02 -0.64562928439E+03  0.11415058108E+04  0.59995665932E+03 0.  0.
         23    2    4    4    0    0 -0.52713796772E+03 -0.18473352114E+03 -0.66770410566E+03  0.87546139946E+03  0.92752241942E+02 0.  0.
         23    2    4    4    0    0 -0.19748967295E+03  0.15059948387E+03  0.22074821274E+02  0.26604441132E+03  0.92789846411E+02 0.  0.
          3    1    3    3  502    0  0.44438394613E+03 -0.20244032145E+02 -0.54200540038E+03  0.70118240598E+03  0.00000000000E+00 0. -1.
         -3    1    3    3    0  502  0.28024369455E+03  0.54378069412E+02 -0.36231076511E+03  0.46126195733E+03  0.00000000000E+00 0.  1.
         13    1    5    5    0    0 -0.17084500705E+03 -0.10685416661E+03 -0.23936994001E+03  0.31289582538E+03  0.00000000000E+00 0.  1.
        -13    1    5    5    0    0 -0.35629296067E+03 -0.77879354531E+02 -0.42833416565E+03  0.56256557409E+03  0.00000000000E+00 0. -1.
          2    1    6    6  503    0 -0.15891977044E+03  0.70831406777E+02 -0.28093819146E+01  0.17401285656E+03  0.00000000000E+00 0. -1.
         -2    1    6    6    0  503 -0.38569902511E+02  0.79768077094E+02  0.24884203188E+02  0.92031554759E+02  0.00000000000E+00 0.  1.
<mgrwt>
<rscale>  0 0.77956162E+03</rscale>
<asrwt>0</asrwt>
<pdfrwt beam="1">  1        1 0.58000363E-01 0.77956162E+03</pdfrwt>
<pdfrwt beam="2">  1       -1 0.29645351E+00 0.77956162E+03</pdfrwt>
<totfact> 0.23620602E+00</totfact>
</mgrwt>
</event>
<event>
12    1  0.1338445E-007  0.3825011E+03  0.7818608E-02  0.1050013E+00
          2   -1    0    0  501    0  0.00000000000E+00  0.00000000000E+00  0.10569284182E+04  0.10569284182E+04  0.00000000000E+00 0. -1.
         -2   -1    0    0    0  501 -0.00000000000E+00 -0.00000000000E+00 -0.42775245478E+03  0.42775245478E+03  0.00000000000E+00 0.  1.
         23    2    1    2    0    0  0.18923893678E+02  0.32537311632E+03 -0.21398577473E+03  0.39966927108E+03  0.87862596600E+02 0.  0.
    5000000    2    1    2    0    0 -0.18923893678E+02 -0.32537311632E+03  0.84316173816E+03  0.10850116019E+04  0.60008556143E+03 0.  0.
         23    2    4    4    0    0  0.61953943749E+01 -0.32791979090E+03  0.12414028259E+03  0.35974752784E+03  0.80235290526E+02 0.  0.
         23    2    4    4    0    0 -0.25119288053E+02  0.25466745833E+01  0.71902145557E+03  0.72526407409E+03  0.91535017389E+02 0.  0.
          1    1    3    3  502    0 -0.30923141247E+02  0.93757581948E+02 -0.82827737332E+02  0.12886876623E+03  0.00000000000E+00 0. -1.
         -1    1    3    3    0  502  0.49847034925E+02  0.23161553437E+03 -0.13115803740E+03  0.27080050485E+03  0.00000000000E+00 0.  1.
         13    1    5    5    0    0  0.31145053574E+02 -0.78214666098E+02  0.50692724604E+02  0.98271565993E+02  0.00000000000E+00 0.  1.
        -13    1    5    5    0    0 -0.24949659199E+02 -0.24970512480E+03  0.73447557985E+02  0.26147596184E+03  0.00000000000E+00 0. -1.
          4    1    6    6  503    0 -0.18934482696E+02  0.46306080269E+02  0.42626118514E+03  0.42918686567E+03  0.00000000000E+00 0. -1.
         -4    1    6    6    0  503 -0.61848053565E+01 -0.43759405686E+02  0.29276027043E+03  0.29607720842E+03  0.00000000000E+00 0.  1.
<mgrwt>
<rscale>  0 0.38250113E+03</rscale>
<asrwt>0</asrwt>
<pdfrwt beam="1">  1        2 0.16260437E+00 0.38250113E+03</pdfrwt>
<pdfrwt beam="2">  1       -2 0.65808070E-01 0.38250113E+03</pdfrwt>
<totfact> 0.52354985E+01</totfact>
</mgrwt>
</event>
<event>
12    1  0.1338445E-007  0.1178056E+04  0.7818608E-02  0.9132284E-01
         -2   -1    0    0    0  501 -0.00000000000E+00  0.00000000000E+00  0.44368145287E+03  0.44368145287E+03  0.00000000000E+00 0.  1.
          2   -1    0    0  501    0  0.00000000000E+00 -0.00000000000E+00 -0.33257044835E+04  0.33257044835E+04  0.00000000000E+00 0. -1.
         23    2    1    2    0    0  0.10520105910E+04 -0.43320877913E+03 -0.14294427735E+04  0.18292135313E+04  0.91210583061E+02 0.  0.
    5000000    2    1    2    0    0 -0.10520105910E+04  0.43320877913E+03 -0.14525802571E+04  0.19401724050E+04  0.59990284896E+03 0.  0.
         23    2    4    4    0    0 -0.25214315860E+02 -0.53840448160E+02 -0.35256686458E+02  0.12121258837E+03  0.99573601210E+02 0.  0.
         23    2    4    4    0    0 -0.10267962751E+04  0.48704922729E+03 -0.14173235706E+04  0.18189598167E+04  0.91000936384E+02 0.  0.
          3    1    3    3  502    0  0.41706507080E+03 -0.12548493495E+03 -0.52716376307E+03  0.68380653351E+03  0.00000000000E+00 0. -1.
         -3    1    3    3    0  502  0.63494552018E+03 -0.30772384418E+03 -0.90227901047E+03  0.11454069978E+04  0.00000000000E+00 0.  1.
         13    1    5    5    0    0 -0.36546852539E+02 -0.24539373023E+02 -0.64633883284E+02  0.78200972674E+02  0.00000000000E+00 0. -1.
        -13    1    5    5    0    0  0.11332536679E+02 -0.29301075137E+02  0.29377196825E+02  0.43011615700E+02  0.00000000000E+00 0.  1.
          3    1    6    6  503    0 -0.20572067344E+03  0.13582753612E+03 -0.32992358935E+03  0.41184911054E+03  0.00000000000E+00 0. -1.
         -3    1    6    6    0  503 -0.82107560167E+03  0.35122169117E+03 -0.10873999813E+04  0.14071107061E+04  0.00000000000E+00 0.  1.
<mgrwt>
<rscale>  0 0.11780563E+04</rscale>
<asrwt>0</asrwt>
<pdfrwt beam="1">  1        2 0.51164686E+00 0.11780563E+04</pdfrwt>
<pdfrwt beam="2">  1       -2 0.68258683E-01 0.11780563E+04</pdfrwt>
<totfact> 0.21117906E+00</totfact>
</mgrwt>
</event>
<event>
12    1  0.1338445E-007  0.5048623E+03  0.7818608E-02  0.1012518E+00
          1   -1    0    0  501    0  0.00000000000E+00  0.00000000000E+00  0.28436341436E+04  0.28436341436E+04  0.00000000000E+00 0. -1.
         -1   -1    0    0    0  501 -0.00000000000E+00 -0.00000000000E+00 -0.14598404777E+03  0.14598404777E+03  0.00000000000E+00 0.  1.
         23    2    1    2    0    0 -0.26956363497E+03 -0.29945416495E+03  0.17478093288E+04  0.17960714091E+04  0.93261493906E+02 0.  0.
    5000000    2    1    2    0    0  0.26956363497E+03  0.29945416495E+03  0.94984076697E+03  0.11935467823E+04  0.60001590707E+03 0.  0.
         23    2    4    4    0    0  0.37426825184E+03  0.18375108236E+03  0.30181431693E+03  0.52071125673E+03  0.78785445222E+02 0.  0.
         23    2    4    4    0    0 -0.10470461686E+03  0.11570308260E+03  0.64802645004E+03  0.67283552557E+03  0.91755677784E+02 0.  0.
          4    1    3    3  502    0 -0.16156867773E+03 -0.11235937874E+03  0.88700231082E+03  0.90857149802E+03  0.00000000000E+00 0. -1.
         -4    1    3    3    0  502 -0.10799495724E+03 -0.18709478621E+03  0.86080701802E+03  0.88749991104E+03  0.00000000000E+00 0.  1.
         11    1    5    5    0    0  0.24143057794E+03  0.92130764935E+02  0.14807589163E+03  0.29783094449E+03  0.00000000000E+00 0.  1.
        -11    1    5    5    0    0  0.13283767390E+03  0.91620317420E+02  0.15373842531E+03  0.22288031225E+03  0.00000000000E+00 0. -1.
          1    1    6    6  503    0  0.35680724010E+01 -0.10351327500E+02  0.87925848755E+02  0.88604943434E+02  0.00000000000E+00 0. -1.
         -1    1    6    6    0  503 -0.10827268927E+03  0.12605441010E+03  0.56010060128E+03  0.58423058214E+03  0.00000000000E+00 0.  1.
<mgrwt>
<rscale>  0 0.50486232E+03</rscale>
<asrwt>0</asrwt>
<pdfrwt beam="1">  1        1 0.43748213E+00 0.50486232E+03</pdfrwt>
<pdfrwt beam="2">  1       -1 0.22459086E-01 0.50486232E+03</pdfrwt>
<totfact> 0.14452094E+01</totfact>
</mgrwt>
</event>
<event>
12    1  0.1338445E-007  0.4042050E+03  0.7818608E-02  0.1042333E+00
          1   -1    0    0  501    0  0.00000000000E+00  0.00000000000E+00  0.12881271066E+04  0.12881271066E+04  0.00000000000E+00 0. -1.
         -1   -1    0    0    0  501 -0.00000000000E+00 -0.00000000000E+00 -0.19867900918E+03  0.19867900918E+03  0.00000000000E+00 0.  1.
         23    2    1    2    0    0 -0.31394148566E+03 -0.38458708753E+02  0.40966730413E+03  0.52642761930E+03  0.96231021987E+02 0.  0.
    5000000    2    1    2    0    0  0.31394148566E+03  0.38458708753E+02  0.67978079328E+03  0.96037849647E+03  0.60015548058E+03 0.  0.
         23    2    4    4    0    0  0.15345650811E+02 -0.12408528958E+03  0.56783657419E+03  0.58893255611E+03  0.93651121596E+02 0.  0.
         23    2    4    4    0    0  0.29859583485E+03  0.16254399833E+03  0.11194421909E+03  0.37144594035E+03  0.99300324443E+02 0.  0.
          4    1    3    3  502    0 -0.14687441029E+03  0.28920766409E+02  0.20384583808E+03  0.25290636376E+03  0.00000000000E+00 0. -1.
         -4    1    3    3    0  502 -0.16706707538E+03 -0.67379475162E+02  0.20582146605E+03  0.27352125554E+03  0.00000000000E+00 0.  1.
         13    1    5    5    0    0  0.87768468740E+01 -0.56192423936E+02  0.44335507920E+03  0.44698808463E+03  0.00000000000E+00 0. -1.
        -13    1    5    5    0    0  0.65688039371E+01 -0.67892865643E+02  0.12448149499E+03  0.14194447149E+03  0.00000000000E+00 0.  1.
          1    1    6    6  503    0  0.14741080918E+03  0.25830289408E+02  0.58853022347E+02  0.16081302420E+03  0.00000000000E+00 0.  1.
         -1    1    6    6    0  503  0.15118502567E+03  0.13671370892E+03  0.53091196739E+02  0.21063291615E+03  0.00000000000E+00 0. -1.
<mgrwt>
<rscale>  0 0.40420500E+03</rscale>
<asrwt>0</asrwt>
<pdfrwt beam="1">  1        1 0.19817340E+00 0.40420500E+03</pdfrwt>
<pdfrwt beam="2">  1       -1 0.30566002E-01 0.40420500E+03</pdfrwt>
<totfact> 0.96935297E+01</totfact>
</mgrwt>
</event>
<event>
12    1  0.1338445E-007  0.1862411E+04  0.7818608E-02  0.8673796E-01
          2   -1    0    0  501    0  0.00000000000E+00  0.00000000000E+00  0.30933157595E+04  0.30933157595E+04  0.00000000000E+00 0. -1.
         -2   -1    0    0    0  501 -0.00000000000E+00 -0.00000000000E+00 -0.11703052216E+04  0.11703052216E+04  0.00000000000E+00 0.  1.
         23    2    1    2    0    0 -0.18506979913E+04  0.50935035571E+02  0.82265283739E+03  0.20278990272E+04  0.89102978420E+02 0.  0.
    5000000    2    1    2    0    0  0.18506979913E+04 -0.50935035571E+02  0.11003577006E+04  0.22357219539E+04  0.59999012755E+03 0.  0.
         23    2    4    4    0    0  0.21802396549E+03  0.25784676922E+02  0.37768573143E+03  0.44622047715E+03  0.90922513234E+02 0.  0.
         23    2    4    4    0    0  0.16326740258E+04 -0.76719712494E+02  0.72267196915E+03  0.17895014768E+04  0.92468219026E+02 0.  0.
          2    1    3    3  502    0 -0.10454655640E+04  0.72499506125E+02  0.47207204596E+03  0.11493939449E+04  0.00000000000E+00 0. -1.
         -2    1    3    3    0  502 -0.80523242724E+03 -0.21564470553E+02  0.35058079143E+03  0.87850508228E+03  0.00000000000E+00 0.  1.
         11    1    5    5    0    0  0.14979123211E+03  0.58787069793E+02  0.23794157052E+03  0.28724471061E+03  0.00000000000E+00 0.  1.
        -11    1    5    5    0    0  0.68232733386E+02 -0.33002392870E+02  0.13974416091E+03  0.15897576654E+03  0.00000000000E+00 0. -1.
          3    1    6    6  503    0  0.46840674449E+02 -0.57901739941E+01  0.52335720989E+01  0.47486473597E+02  0.00000000000E+00 0. -1.
         -3    1    6    6    0  503  0.15858333513E+04 -0.70929538500E+02  0.71743839705E+03  0.17420150032E+04  0.00000000000E+00 0.  1.
<mgrwt>
<rscale>  0 0.18624112E+04</rscale>
<asrwt>0</asrwt>
<pdfrwt beam="1">  1        2 0.47589473E+00 0.18624112E+04</pdfrwt>
<pdfrwt beam="2">  1       -2 0.18004696E+00 0.18624112E+04</pdfrwt>
<totfact> 0.25015556E-01</totfact>
</mgrwt>
</event>
<event>
12    1  0.1338445E-007  0.4041367E+03  0.7818608E-02  0.1042357E+00
          2   -1    0    0  501    0  0.00000000000E+00  0.00000000000E+00  0.12698960541E+04  0.12698960541E+04  0.00000000000E+00 0. -1.
         -2   -1    0    0    0  501 -0.00000000000E+00 -0.00000000000E+00 -0.73094486694E+03  0.73094486694E+03  0.00000000000E+00 0.  1.
         23    2    1    2    0    0 -0.20901020305E+03  0.14906193375E+03 -0.61643548563E+03  0.67388789340E+03  0.90705346329E+02 0.  0.
    5000000    2    1    2    0    0  0.20901020305E+03 -0.14906193375E+03  0.11553866728E+04  0.13269530276E+04  0.59998437382E+03 0.  0.
         23    2    4    4    0    0 -0.11742462168E+03  0.57493879544E+02  0.71647502845E+03  0.73394025931E+03  0.90762050895E+02 0.  0.
         23    2    4    4    0    0  0.32643482473E+03 -0.20655581330E+03  0.43891164433E+03  0.59301276832E+03  0.98973294667E+02 0.  0.
          1    1    3    3  502    0 -0.18870504482E+03  0.12206252248E+03 -0.43811728428E+03  0.49239781490E+03  0.00000000000E+00 0. -1.
         -1    1    3    3    0  502 -0.20305158224E+02  0.26999411275E+02 -0.17831820135E+03  0.18149007850E+03  0.00000000000E+00 0.  1.
         13    1    5    5    0    0 -0.37938625565E+02 -0.21384224877E+02  0.27806595738E+03  0.28145568219E+03  0.00000000000E+00 0. -1.
        -13    1    5    5    0    0 -0.79485996118E+02  0.78878104421E+02  0.43840907107E+03  0.45248457712E+03  0.00000000000E+00 0.  1.
          2    1    6    6  503    0  0.21325185638E+03 -0.89141272267E+02  0.30051552583E+03  0.37912016820E+03  0.00000000000E+00 0. -1.
         -2    1    6    6    0  503  0.11318296835E+03 -0.11741454103E+03  0.13839611850E+03  0.21389260012E+03  0.00000000000E+00 0.  1.
<mgrwt>
<rscale>  0 0.40413672E+03</rscale>
<asrwt>0</asrwt>
<pdfrwt beam="1">  1        2 0.19536862E+00 0.40413672E+03</pdfrwt>
<pdfrwt beam="2">  1       -2 0.11245306E+00 0.40413672E+03</pdfrwt>
<totfact> 0.11611049E+01</totfact>
</mgrwt>
</event>
<event>
12    1  0.1338445E-007  0.1223786E+04  0.7818608E-02  0.9092287E-01
         -2   -1    0    0    0  501 -0.00000000000E+00  0.00000000000E+00  0.11513105962E+04  0.11513105962E+04  0.00000000000E+00 0.  1.
          2   -1    0    0  501    0  0.00000000000E+00 -0.00000000000E+00 -0.26216007029E+04  0.26216007029E+04  0.00000000000E+00 0. -1.
         23    2    1    2    0    0 -0.11222322280E+04 -0.30777349431E+03 -0.20362149255E+04  0.23470737590E+04  0.91947324040E+02 0.  0.
    5000000    2    1    2    0    0  0.11222322280E+04  0.30777349431E+03  0.56592481877E+03  0.14258375401E+04  0.59884229385E+03 0.  0.
         23    2    4    4    0    0  0.44144574248E+03  0.39062903352E+03  0.14085374678E+03  0.61283263046E+03  0.90877222656E+02 0.  0.
         23    2    4    4    0    0  0.68078648548E+03 -0.82855539209E+02  0.42507107199E+03  0.81300490960E+03  0.99781198687E+02 0.  0.
          1    1    3    3  502    0 -0.10837547259E+04 -0.28685013751E+03 -0.19266312166E+04  0.22290614958E+04  0.00000000000E+00 0. -1.
         -1    1    3    3    0  502 -0.38477502083E+02 -0.20923356801E+02 -0.10958370892E+03  0.11801226329E+03  0.00000000000E+00 0.  1.
         11    1    5    5    0    0  0.11757709851E+03  0.55640337814E+02  0.21527324078E+02  0.13184705901E+03  0.00000000000E+00 0. -1.
        -11    1    5    5    0    0  0.32386864396E+03  0.33498869570E+03  0.11932642270E+03  0.48098557145E+03  0.00000000000E+00 0.  1.
          4    1    6    6  503    0  0.54195877402E+02 -0.16101700076E+02  0.74109192024E+01  0.57020869830E+02  0.00000000000E+00 0. -1.
         -4    1    6    6    0  503  0.62659060808E+03 -0.66753839133E+02  0.41766015278E+03  0.75598403977E+03  0.00000000000E+00 0.  1.
<mgrwt>
<rscale>  0 0.12237864E+04</rscale>
<asrwt>0</asrwt>
<pdfrwt beam="1">  1        2 0.40332318E+00 0.12237864E+04</pdfrwt>
<pdfrwt beam="2">  1       -2 0.17712471E+00 0.12237864E+04</pdfrwt>
<totfact> 0.54680740E-01</totfact>
</mgrwt>
</event>
<event>
12    1  0.1338445E-007  0.1178483E+04  0.7818608E-02  0.9131902E-01
         -2   -1    0    0    0  501 -0.00000000000E+00  0.00000000000E+00  0.46697140037E+03  0.46697140037E+03  0.00000000000E+00 0.  1.
          2   -1    0    0  501    0  0.00000000000E+00 -0.00000000000E+00 -0.33521367387E+04  0.33521367387E+04  0.00000000000E+00 0. -1.
         23    2    1    2    0    0 -0.34801077761E+03 -0.11213437840E+04 -0.12289425659E+04  0.17021507032E+04  0.92161830121E+02 0.  0.
    5000000    2    1    2    0    0  0.34801077761E+03  0.11213437840E+04 -0.16562227725E+04  0.21169574359E+04  0.59992627069E+03 0.  0.
         23    2    4    4    0    0  0.14814051888E+03  0.47720369864E+03 -0.11866982716E+04  0.12904829639E+04  0.86165591734E+02 0.  0.
         23    2    4    4    0    0  0.19987025873E+03  0.64414008532E+03 -0.46952450092E+03  0.82647447197E+03  0.87989919938E+02 0.  0.
          3    1    3    3  502    0 -0.23802886308E+03 -0.68110759920E+03 -0.80728598691E+03  0.10827169372E+04  0.00000000000E+00 0. -1.
         -3    1    3    3    0  502 -0.10998191453E+03 -0.44023618476E+03 -0.42165657900E+03  0.61943376604E+03  0.00000000000E+00 0.  1.
         13    1    5    5    0    0  0.14323449389E+03  0.34124217762E+03 -0.90099869372E+03  0.97404362844E+03  0.00000000000E+00 0. -1.
        -13    1    5    5    0    0  0.49060249904E+01  0.13596152102E+03 -0.28569957783E+03  0.31643933551E+03  0.00000000000E+00 0.  1.
          3    1    6    6  503    0  0.37189410929E+02  0.17821471807E+03 -0.17058753573E+03  0.24948676391E+03  0.00000000000E+00 0. -1.
         -3    1    6    6    0  503  0.16268084780E+03  0.46592536726E+03 -0.29893696519E+03  0.57698770806E+03  0.00000000000E+00 0.  1.
<mgrwt>
<rscale>  0 0.11784829E+04</rscale>
<asrwt>0</asrwt>
<pdfrwt beam="1">  1        2 0.51571335E+00 0.11784829E+04</pdfrwt>
<pdfrwt beam="2">  1       -2 0.71841753E-01 0.11784829E+04</pdfrwt>
<totfact> 0.18123829E+00</totfact>
</mgrwt>
</event>
<event>
12    1  0.1338445E-007  0.4562605E+03  0.7818608E-02  0.1025871E+00
          2   -1    0    0  501    0  0.00000000000E+00  0.00000000000E+00  0.11294499689E+04  0.11294499689E+04  0.00000000000E+00 0. -1.
         -2   -1    0    0    0  501 -0.00000000000E+00 -0.00000000000E+00 -0.22778548069E+03  0.22778548069E+03  0.00000000000E+00 0.  1.
         23    2    1    2    0    0  0.30756294557E+03 -0.70798160636E+02  0.21870374270E+03  0.39489950736E+03  0.92233122057E+02 0.  0.
    5000000    2    1    2    0    0 -0.30756294557E+03  0.70798160636E+02  0.68296074552E+03  0.96233594224E+03  0.60003978266E+03 0.  0.
         23    2    4    4    0    0  0.13224409124E+03 -0.13160238134E+02  0.29343259064E+02  0.16530998100E+03  0.93833210703E+02 0.  0.
         23    2    4    4    0    0 -0.43980703681E+03  0.83958398770E+02  0.65361748646E+03  0.79702596124E+03  0.86921354861E+02 0.  0.
          4    1    3    3  502    0  0.15689503145E+03  0.98856187757E+01  0.92030951297E+02  0.18216331230E+03  0.00000000000E+00 0. -1.
         -4    1    3    3    0  502  0.15066791412E+03 -0.80683779411E+02  0.12667279140E+03  0.21273619505E+03  0.00000000000E+00 0.  1.
         13    1    5    5    0    0  0.37769497804E+02 -0.17907668253E+02  0.53294293464E+02  0.67731095240E+02  0.00000000000E+00 0. -1.
        -13    1    5    5    0    0  0.94474593438E+02  0.47474301191E+01 -0.23951034400E+02  0.97578885763E+02  0.00000000000E+00 0.  1.
          3    1    6    6  503    0 -0.35302860104E+03  0.61166805075E+02  0.45539745010E+03  0.57944577723E+03  0.00000000000E+00 0. -1.
         -3    1    6    6    0  503 -0.86778435771E+02  0.22791593695E+02  0.19822003636E+03  0.21758018400E+03  0.00000000000E+00 0.  1.
<mgrwt>
<rscale>  0 0.45626050E+03</rscale>
<asrwt>0</asrwt>
<pdfrwt beam="1">  1        2 0.17376153E+00 0.45626050E+03</pdfrwt>
<pdfrwt beam="2">  1       -2 0.35043921E-01 0.45626050E+03</pdfrwt>
<totfact> 0.16572319E+02</totfact>
</mgrwt>
</event>
<event>
12    1  0.1338445E-007  0.2105222E+04  0.7818608E-02  0.8558946E-01
         -2   -1    0    0    0  501 -0.00000000000E+00  0.00000000000E+00  0.13606279620E+04  0.13606279620E+04  0.00000000000E+00 0.  1.
          2   -1    0    0  501    0  0.00000000000E+00 -0.00000000000E+00 -0.33834844474E+04  0.33834844474E+04  0.00000000000E+00 0. -1.
         23    2    1    2    0    0  0.15855858364E+04  0.13629940408E+04 -0.74675696830E+03  0.22221451072E+04  0.91911412218E+02 0.  0.
    5000000    2    1    2    0    0 -0.15855858364E+04 -0.13629940408E+04 -0.12760995171E+04  0.25219673023E+04  0.60004491211E+03 0.  0.
         23    2    4    4    0    0 -0.66712282811E+01 -0.87156838233E+01 -0.55273471740E+02  0.10825349737E+03  0.92429403237E+02 0.  0.
         23    2    4    4    0    0 -0.15789146081E+04 -0.13542783570E+04 -0.12208260454E+04  0.24137138049E+04  0.92503466178E+02 0.  0.
          3    1    3    3  502    0  0.13358161587E+04  0.11036196273E+04 -0.62608182911E+03  0.18423787744E+04  0.00000000000E+00 0. -1.
         -3    1    3    3    0  502  0.24976967772E+03  0.25937441352E+03 -0.12067513919E+03  0.37976633278E+03  0.00000000000E+00 0.  1.
         11    1    5    5    0    0 -0.95635829361E+01  0.11559356774E+02 -0.76969455795E+02  0.78417969707E+02  0.00000000000E+00 0.  1.
        -11    1    5    5    0    0  0.28923546550E+01 -0.20275040598E+02  0.21695984055E+02  0.29835527660E+02  0.00000000000E+00 0. -1.
          1    1    6    6  503    0 -0.62910986700E+03 -0.59866209048E+03 -0.51895482177E+03  0.10116766432E+04  0.00000000000E+00 0. -1.
         -1    1    6    6    0  503 -0.94980474113E+03 -0.75561626648E+03 -0.70187122359E+03  0.14020371618E+04  0.00000000000E+00 0.  1.
<mgrwt>
<rscale>  0 0.21052221E+04</rscale>
<asrwt>0</asrwt>
<pdfrwt beam="1">  1        2 0.52053606E+00 0.21052221E+04</pdfrwt>
<pdfrwt beam="2">  1       -2 0.20932738E+00 0.21052221E+04</pdfrwt>
<totfact> 0.99979319E-02</totfact>
</mgrwt>
</event>
<event>
12    1  0.1338445E-007  0.2724724E+03  0.7818608E-02  0.1099873E+00
         -1   -1    0    0    0  501 -0.00000000000E+00  0.00000000000E+00  0.11715287108E+03  0.11715287108E+03  0.00000000000E+00 0.  1.
          1   -1    0    0  501    0  0.00000000000E+00 -0.00000000000E+00 -0.21553900100E+04  0.21553900100E+04  0.00000000000E+00 0. -1.
         23    2    1    2    0    0  0.18930325203E+03  0.56141177426E+02 -0.12179453893E+04  0.12372075580E+04  0.91126380931E+02 0.  0.
    5000000    2    1    2    0    0 -0.18930325203E+03 -0.56141177426E+02 -0.82029174962E+03  0.10353353230E+04  0.60004426805E+03 0.  0.
         23    2    4    4    0    0 -0.88119320930E+02 -0.15068820501E+03 -0.84407299401E+03  0.86681006506E+03  0.91806970411E+02 0.  0.
         23    2    4    4    0    0 -0.10118393110E+03  0.94547027586E+02  0.23781244391E+02  0.16852525799E+03  0.93047765461E+02 0.  0.
          3    1    3    3  502    0  0.21398836804E+02 -0.10080793353E+02 -0.34435118656E+03  0.34516267512E+03  0.00000000000E+00 0. -1.
         -3    1    3    3    0  502  0.16790441523E+03  0.66221970779E+02 -0.87359420270E+03  0.89204488287E+03  0.00000000000E+00 0.  1.
         13    1    5    5    0    0 -0.69344548911E+02 -0.13956566978E+03 -0.54228768233E+03  0.56423680583E+03  0.00000000000E+00 0.  1.
        -13    1    5    5    0    0 -0.18774772019E+02 -0.11122535233E+02 -0.30178531168E+03  0.30257325923E+03  0.00000000000E+00 0. -1.
          1    1    6    6  503    0 -0.41301994023E+02  0.94630332176E+02 -0.21414540764E+01  0.10327313447E+03  0.00000000000E+00 0. -1.
         -1    1    6    6    0  503 -0.59881937076E+02 -0.83304590044E-01  0.25922698468E+02  0.65252123517E+02  0.00000000000E+00 0.  1.
<mgrwt>
<rscale>  0 0.27247238E+03</rscale>
<asrwt>0</asrwt>
<pdfrwt beam="1">  1        1 0.33159842E+00 0.27247238E+03</pdfrwt>
<pdfrwt beam="2">  1       -1 0.18023521E-01 0.27247238E+03</pdfrwt>
<totfact> 0.64278728E+01</totfact>
</mgrwt>
</event>
<event>
12    1  0.1338445E-007  0.4344641E+03  0.7818608E-02  0.1032459E+00
          1   -1    0    0  501    0  0.00000000000E+00  0.00000000000E+00  0.10363660288E+04  0.10363660288E+04  0.00000000000E+00 0. -1.
         -1   -1    0    0    0  501 -0.00000000000E+00 -0.00000000000E+00 -0.52334505037E+03  0.52334505037E+03  0.00000000000E+00 0.  1.
         23    2    1    2    0    0  0.23843111462E+03  0.74677785611E+02 -0.37469031731E+03  0.45951613261E+03  0.91302103795E+02 0.  0.
    5000000    2    1    2    0    0 -0.23843111462E+03 -0.74677785611E+02  0.88771129575E+03  0.11001949466E+04  0.59997617266E+03 0.  0.
         23    2    4    4    0    0 -0.67163447703E+02  0.24140527856E+03  0.47157339442E+03  0.54151587146E+03  0.89836159195E+02 0.  0.
         23    2    4    4    0    0 -0.17126766692E+03 -0.31608306417E+03  0.41613790133E+03  0.55867907511E+03  0.98541558990E+02 0.  0.
          3    1    3    3  502    0  0.11452061776E+03  0.28875648892E+02 -0.10017014364E+03  0.15486391661E+03  0.00000000000E+00 0. -1.
         -3    1    3    3    0  502  0.12391049686E+03  0.45802136719E+02 -0.27452017367E+03  0.30465221600E+03  0.00000000000E+00 0.  1.
         13    1    5    5    0    0  0.23411108435E+01  0.48799958043E+02  0.17086087780E+03  0.17770862745E+03  0.00000000000E+00 0. -1.
        -13    1    5    5    0    0 -0.69504558547E+02  0.19260532052E+03  0.30071251661E+03  0.36380724401E+03  0.00000000000E+00 0.  1.
          2    1    6    6  503    0 -0.14030203993E+02 -0.81472351432E+02  0.51287924259E+02  0.97288446625E+02  0.00000000000E+00 0.  1.
         -2    1    6    6    0  503 -0.15723746292E+03 -0.23461071274E+03  0.36484997708E+03  0.46139062848E+03  0.00000000000E+00 0. -1.
<mgrwt>
<rscale>  0 0.43446411E+03</rscale>
<asrwt>0</asrwt>
<pdfrwt beam="1">  1        1 0.15944093E+00 0.43446411E+03</pdfrwt>
<pdfrwt beam="2">  1       -1 0.80514623E-01 0.43446411E+03</pdfrwt>
<totfact> 0.23576604E+01</totfact>
</mgrwt>
</event>
<event>
12    1  0.1338445E-007  0.8361630E+03  0.7818608E-02  0.9509099E-01
         -2   -1    0    0    0  501 -0.00000000000E+00  0.00000000000E+00  0.30496917067E+04  0.30496917067E+04  0.00000000000E+00 0.  1.
          2   -1    0    0  501    0  0.00000000000E+00 -0.00000000000E+00 -0.26428363086E+03  0.26428363086E+03  0.00000000000E+00 0. -1.
         23    2    1    2    0    0  0.60326794956E+03  0.45212997456E+03  0.77724449354E+03  0.10866208774E+04  0.91006568550E+02 0.  0.
    5000000    2    1    2    0    0 -0.60326794956E+03 -0.45212997456E+03  0.20081635823E+04  0.22273544602E+04  0.60002765370E+03 0.  0.
         23    2    4    4    0    0 -0.25009644968E+03  0.83163881276E+02  0.35219257655E+03  0.44922257965E+03  0.91087045170E+02 0.  0.
         23    2    4    4    0    0 -0.35317149988E+03 -0.53529385584E+03  0.16559710058E+04  0.17781318806E+04  0.90793129116E+02 0.  0.
          4    1    3    3  502    0  0.11579067785E+03  0.53896472191E+02  0.10168422392E+03  0.16325437876E+03  0.00000000000E+00 0. -1.
         -4    1    3    3    0  502  0.48747727171E+03  0.39823350237E+03  0.67556026962E+03  0.92336649860E+03  0.00000000000E+00 0.  1.
         13    1    5    5    0    0 -0.68459622277E+02  0.46801820665E+02  0.56669593883E+02  0.10044188952E+03  0.00000000000E+00 0. -1.
        -13    1    5    5    0    0 -0.18163682740E+03  0.36362060611E+02  0.29552298266E+03  0.34878069013E+03  0.00000000000E+00 0.  1.
          2    1    6    6  503    0 -0.18877511466E+03 -0.36101968515E+03  0.10016723476E+04  0.10813504284E+04  0.00000000000E+00 0. -1.
         -2    1    6    6    0  503 -0.16439638522E+03 -0.17427417069E+03  0.65429865816E+03  0.69678145219E+03  0.00000000000E+00 0.  1.
<mgrwt>
<rscale>  0 0.83616297E+03</rscale>
<asrwt>0</asrwt>
<pdfrwt beam="1">  1        2 0.40659022E-01 0.83616297E+03</pdfrwt>
<pdfrwt beam="2">  1       -2 0.46918331E+00 0.83616297E+03</pdfrwt>
<totfact> 0.34367679E-01</totfact>
</mgrwt>
</event>
<event>
12    1  0.1338445E-007  0.9465141E+03  0.7818608E-02  0.9369234E-01
         -2   -1    0    0    0  501 -0.00000000000E+00  0.00000000000E+00  0.23947081268E+04  0.23947081268E+04  0.00000000000E+00 0.  1.
          2   -1    0    0  501    0  0.00000000000E+00 -0.00000000000E+00 -0.71067036762E+03  0.71067036762E+03  0.00000000000E+00 0. -1.
         23    2    1    2    0    0  0.93889272624E+03 -0.34161284898E+01 -0.15388488139E+03  0.95607187820E+03  0.94136381065E+02 0.  0.
    5000000    2    1    2    0    0 -0.93889272624E+03  0.34161284898E+01  0.18379226406E+04  0.21493066163E+04  0.60002339666E+03 0.  0.
         23    2    4    4    0    0 -0.40232824401E+03  0.71118159150E+01  0.13743084964E+04  0.14344438157E+04  0.83586022897E+02 0.  0.
         23    2    4    4    0    0 -0.53656448223E+03 -0.36956874253E+01  0.46361414423E+03  0.71486280060E+03  0.90419285859E+02 0.  0.
          1    1    3    3  502    0  0.33598592972E+03  0.35650525764E+02 -0.28878156928E+02  0.33910389691E+03  0.00000000000E+00 0. -1.
         -1    1    3    3    0  502  0.60290679653E+03 -0.39066654254E+02 -0.12500672446E+03  0.61696798129E+03  0.00000000000E+00 0.  1.
         11    1    5    5    0    0 -0.75838020703E+02  0.27633449938E+02  0.34899733604E+03  0.35820965020E+03  0.00000000000E+00 0.  1.
        -11    1    5    5    0    0 -0.32649022331E+03 -0.20521634023E+02  0.10253111604E+04  0.10762341655E+04  0.00000000000E+00 0. -1.
          1    1    6    6  503    0 -0.15982183254E+03 -0.39690408440E+02  0.12091140524E+03  0.20429859176E+03  0.00000000000E+00 0. -1.
         -1    1    6    6    0  503 -0.37674264970E+03  0.35994721015E+02  0.34270273898E+03  0.51056420884E+03  0.00000000000E+00 0.  1.
<mgrwt>
<rscale>  0 0.94651405E+03</rscale>
<asrwt>0</asrwt>
<pdfrwt beam="1">  1        2 0.10933390E+00 0.94651405E+03</pdfrwt>
<pdfrwt beam="2">  1       -2 0.36841663E+00 0.94651405E+03</pdfrwt>
<totfact> 0.48884549E-01</totfact>
</mgrwt>
</event>
<event>
12    1  0.1338445E-007  0.1237041E+04  0.7818608E-02  0.9081039E-01
         -2   -1    0    0    0  501 -0.00000000000E+00  0.00000000000E+00  0.33245657341E+03  0.33245657341E+03  0.00000000000E+00 0.  1.
          2   -1    0    0  501    0  0.00000000000E+00 -0.00000000000E+00 -0.49962036488E+04  0.49962036488E+04  0.00000000000E+00 0. -1.
         23    2    1    2    0    0 -0.28150596300E+03  0.11843723241E+04 -0.21387140831E+04  0.24620192135E+04  0.73873330639E+02 0.  0.
    5000000    2    1    2    0    0  0.28150596300E+03 -0.11843723241E+04 -0.25250329922E+04  0.28666410087E+04  0.59987969741E+03 0.  0.
         23    2    4    4    0    0  0.51883985470E+01 -0.59293952515E+03 -0.67764462901E+03  0.90517772647E+03  0.92413599173E+02 0.  0.
         23    2    4    4    0    0  0.27631756445E+03 -0.59143279897E+03 -0.18473883632E+04  0.19614632822E+04  0.91379925044E+02 0.  0.
          2    1    3    3  502    0 -0.90366366142E+02  0.47575002479E+03 -0.90844277083E+03  0.10294524924E+04  0.00000000000E+00 0. -1.
         -2    1    3    3    0  502 -0.19113959686E+03  0.70862229933E+03 -0.12302713123E+04  0.14325667211E+04  0.00000000000E+00 0.  1.
         11    1    5    5    0    0  0.47735324101E+02 -0.34651097322E+03 -0.40828691078E+03  0.53763065133E+03  0.00000000000E+00 0. -1.
        -11    1    5    5    0    0 -0.42546925554E+02 -0.24642855192E+03 -0.26935771822E+03  0.36754707514E+03  0.00000000000E+00 0.  1.
          3    1    6    6  503    0  0.67835016920E+02 -0.21824663875E+03 -0.55505929143E+03  0.60026994082E+03  0.00000000000E+00 0. -1.
         -3    1    6    6    0  503  0.20848254753E+03 -0.37318616022E+03 -0.12923290718E+04  0.13611933414E+04  0.00000000000E+00 0.  1.
<mgrwt>
<rscale>  0 0.12370405E+04</rscale>
<asrwt>0</asrwt>
<pdfrwt beam="1">  1        2 0.76864674E+00 0.12370405E+04</pdfrwt>
<pdfrwt beam="2">  1       -2 0.51147163E-01 0.12370405E+04</pdfrwt>
<totfact> 0.13188626E-01</totfact>
</mgrwt>
</event>
<event>
12    1  0.1338445E-007  0.4332359E+03  0.7818608E-02  0.1032843E+00
          1   -1    0    0  501    0  0.00000000000E+00  0.00000000000E+00  0.13120309771E+04  0.13120309771E+04  0.00000000000E+00 0. -1.
         -1   -1    0    0    0  501 -0.00000000000E+00 -0.00000000000E+00 -0.26925024810E+03  0.26925024810E+03  0.00000000000E+00 0.  1.
         23    2    1    2    0    0  0.36219941687E+03  0.21371057140E+03  0.24260142748E+03  0.49622455378E+03  0.10258035508E+03 0.  0.
    5000000    2    1    2    0    0 -0.36219941687E+03 -0.21371057140E+03  0.80017930153E+03  0.10850566714E+04  0.60016700986E+03 0.  0.
         23    2    4    4    0    0 -0.32889586795E+03 -0.22402728686E+03  0.87248559510E+03  0.96333563450E+03  0.91780792237E+02 0.  0.
         23    2    4    4    0    0 -0.33303548919E+02  0.10316715460E+02 -0.72306293568E+02  0.12172103694E+03  0.91499998667E+02 0.  0.
          2    1    3    3  502    0  0.17846553187E+03  0.11095715101E+03  0.17973047404E+03  0.27652211254E+03  0.00000000000E+00 0. -1.
         -2    1    3    3    0  502  0.18373388500E+03  0.10275342039E+03  0.62870953443E+02  0.21970244124E+03  0.00000000000E+00 0.  1.
         13    1    5    5    0    0 -0.32653103502E+03 -0.21706212249E+03  0.80460185894E+03  0.89505454206E+03  0.00000000000E+00 0.  1.
        -13    1    5    5    0    0 -0.23648329295E+01 -0.69651643685E+01  0.67883736161E+02  0.68281092439E+02  0.00000000000E+00 0. -1.
          2    1    6    6  503    0 -0.41626090373E+01  0.16118603569E+02  0.19258254753E+02  0.25456179429E+02  0.00000000000E+00 0. -1.
         -2    1    6    6    0  503 -0.29140939881E+02 -0.58018881085E+01 -0.91564548320E+02  0.96264857512E+02  0.00000000000E+00 0.  1.
<mgrwt>
<rscale>  0 0.43323592E+03</rscale>
<asrwt>0</asrwt>
<pdfrwt beam="1">  1        1 0.20185092E+00 0.43323592E+03</pdfrwt>
<pdfrwt beam="2">  1       -1 0.41423116E-01 0.43323592E+03</pdfrwt>
<totfact> 0.54266020E+01</totfact>
</mgrwt>
</event>
<event>
12    1  0.1338445E-007  0.1958414E+04  0.7818608E-02  0.8626314E-01
         -2   -1    0    0    0  501 -0.00000000000E+00  0.00000000000E+00  0.26853519297E+04  0.26853519297E+04  0.00000000000E+00 0.  1.
          2   -1    0    0  501    0  0.00000000000E+00 -0.00000000000E+00 -0.29223642450E+04  0.29223642450E+04  0.00000000000E+00 0. -1.
         23    2    1    2    0    0  0.10909279516E+04  0.15974258657E+04 -0.20995889062E+04  0.28561899992E+04  0.87490253050E+02 0.  0.
    5000000    2    1    2    0    0 -0.10909279516E+04 -0.15974258657E+04  0.18625765909E+04  0.27515261755E+04  0.59984293387E+03 0.  0.
         23    2    4    4    0    0 -0.10139370090E+04 -0.11889068123E+04  0.16584737215E+04  0.22803909354E+04  0.89889192924E+02 0.  0.
         23    2    4    4    0    0 -0.76990942553E+02 -0.40851905340E+03  0.20410286945E+03  0.47113524004E+03  0.86573730752E+02 0.  0.
          3    1    3    3  502    0  0.67739212656E+03  0.10414308238E+04 -0.13936450103E+04  0.18669988400E+04  0.00000000000E+00 0. -1.
         -3    1    3    3    0  502  0.41353582504E+03  0.55599504187E+03 -0.70594389593E+03  0.98919115917E+03  0.00000000000E+00 0.  1.
         13    1    5    5    0    0 -0.90387190184E+03 -0.10939408967E+04  0.14836766728E+04  0.20530434895E+04  0.00000000000E+00 0. -1.
        -13    1    5    5    0    0 -0.11006510720E+03 -0.94965915618E+02  0.17479704869E+03  0.22734744596E+03  0.00000000000E+00 0.  1.
          4    1    6    6  503    0 -0.75377643869E+02 -0.40862421400E+03  0.20961096880E+03  0.46539477404E+03  0.00000000000E+00 0. -1.
         -4    1    6    6    0  503 -0.16132986837E+01  0.10516059617E+00 -0.55080993501E+01  0.57404659955E+01  0.00000000000E+00 0.  1.
<mgrwt>
<rscale>  0 0.19584137E+04</rscale>
<asrwt>0</asrwt>
<pdfrwt beam="1">  1        2 0.44959450E+00 0.19584137E+04</pdfrwt>
<pdfrwt beam="2">  1       -2 0.41313107E+00 0.19584137E+04</pdfrwt>
<totfact> 0.10466088E-02</totfact>
</mgrwt>
</event>
<event>
12    1  0.1338445E-007  0.6808711E+03  0.7818608E-02  0.9750516E-01
          2   -1    0    0  501    0  0.00000000000E+00  0.00000000000E+00  0.18713613728E+04  0.18713613728E+04  0.00000000000E+00 0. -1.
         -2   -1    0    0    0  501 -0.00000000000E+00 -0.00000000000E+00 -0.34048749893E+03  0.34048749893E+03  0.00000000000E+00 0.  1.
         23    2    1    2    0    0  0.22418288637E+03  0.50364108658E+03  0.12155793122E+04  0.13380235911E+04  0.93604249481E+02 0.  0.
    5000000    2    1    2    0    0 -0.22418288637E+03 -0.50364108658E+03  0.31529456167E+03  0.87382528062E+03  0.60020633936E+03 0.  0.
         23    2    4    4    0    0 -0.15260096758E+03  0.97479851377E+02  0.61665954104E+02  0.21051873314E+03  0.87898068104E+02 0.  0.
         23    2    4    4    0    0 -0.71581918782E+02 -0.60112093795E+03  0.25362860757E+03  0.66330654748E+03  0.95800585629E+02 0.  0.
          2    1    3    3  502    0  0.15982529956E+03  0.24438816869E+03  0.62672175182E+03  0.69141149656E+03  0.00000000000E+00 0. -1.
         -2    1    3    3    0  502  0.64357586806E+02  0.25925291789E+03  0.58885756040E+03  0.64661209458E+03  0.00000000000E+00 0.  1.
         11    1    5    5    0    0 -0.34477466547E+02 -0.10266073631E+02  0.31499722405E+02  0.47815483673E+02  0.00000000000E+00 0.  1.
        -11    1    5    5    0    0 -0.11812350104E+03  0.10774592501E+03  0.30166231699E+02  0.16270324947E+03  0.00000000000E+00 0. -1.
          1    1    6    6  503    0 -0.29848705413E+01 -0.18453923249E+03  0.34953818750E+02  0.18784410351E+03  0.00000000000E+00 0. -1.
         -1    1    6    6    0  503 -0.68597048240E+02 -0.41658170546E+03  0.21867478882E+03  0.47546244396E+03  0.00000000000E+00 0.  1.
<mgrwt>
<rscale>  0 0.68087113E+03</rscale>
<asrwt>0</asrwt>
<pdfrwt beam="1">  1        2 0.28790174E+00 0.68087113E+03</pdfrwt>
<pdfrwt beam="2">  1       -2 0.52382693E-01 0.68087113E+03</pdfrwt>
<totfact> 0.28171266E+01</totfact>
</mgrwt>
</event>
<event>
12    1  0.1338445E-007  0.8064500E+03  0.7818608E-02  0.9550728E-01
          2   -1    0    0  501    0  0.00000000000E+00  0.00000000000E+00  0.25327720856E+04  0.25327720856E+04  0.00000000000E+00 0. -1.
         -2   -1    0    0    0  501 -0.00000000000E+00 -0.00000000000E+00 -0.31551559353E+03  0.31551559353E+03  0.00000000000E+00 0.  1.
         23    2    1    2    0    0 -0.50857882197E+03 -0.55198420832E+03  0.59205551863E+03  0.96025149474E+03  0.90632287922E+02 0.  0.
    5000000    2    1    2    0    0  0.50857882197E+03  0.55198420832E+03  0.16252009734E+04  0.18880361844E+04  0.60005286856E+03 0.  0.
         23    2    4    4    0    0 -0.46508024489E+02  0.37735652129E+02  0.60399654206E+03  0.61378058399E+03  0.91256817190E+02 0.  0.
         23    2    4    4    0    0  0.55508684646E+03  0.51424855619E+03  0.10212044313E+04  0.12742556004E+04  0.91081610560E+02 0.  0.
          1    1    3    3  502    0 -0.33364561001E+03 -0.30149892614E+03  0.33076711238E+03  0.55823639990E+03  0.00000000000E+00 0.  1.
         -1    1    3    3    0  502 -0.17493321196E+03 -0.25048528218E+03  0.26128840625E+03  0.40201509484E+03  0.00000000000E+00 0. -1.
         13    1    5    5    0    0  0.18044560630E+02  0.27269156657E+02  0.92274929581E+02  0.97897271168E+02  0.00000000000E+00 0. -1.
        -13    1    5    5    0    0 -0.64552585119E+02  0.10466495472E+02  0.51172161248E+03  0.51588331282E+03  0.00000000000E+00 0.  1.
          4    1    6    6  503    0  0.45856013329E+03  0.45682592750E+03  0.90492779940E+03  0.11125923090E+04  0.00000000000E+00 0. -1.
         -4    1    6    6    0  503  0.96526713175E+02  0.57422628696E+02  0.11627663195E+03  0.16166329138E+03  0.00000000000E+00 0.  1.
<mgrwt>
<rscale>  0 0.80644998E+03</rscale>
<asrwt>0</asrwt>
<pdfrwt beam="1">  1        2 0.38965723E+00 0.80644998E+03</pdfrwt>
<pdfrwt beam="2">  1       -2 0.48540862E-01 0.80644998E+03</pdfrwt>
<totfact> 0.13916904E+01</totfact>
</mgrwt>
</event>
<event>
12    1  0.1338445E-007  0.5409703E+03  0.7818608E-02  0.1003606E+00
          2   -1    0    0  501    0  0.00000000000E+00  0.00000000000E+00  0.72914887396E+03  0.72914887396E+03  0.00000000000E+00 0.  1.
         -2   -1    0    0    0  501 -0.00000000000E+00 -0.00000000000E+00 -0.44364387278E+03  0.44364387278E+03  0.00000000000E+00 0. -1.
         23    2    1    2    0    0 -0.24388661347E+03  0.32509040485E+03  0.99759319080E+02  0.42470404311E+03  0.72506213086E+02 0.  0.
    5000000    2    1    2    0    0  0.24388661347E+03 -0.32509040485E+03  0.18574568210E+03  0.74808870362E+03  0.59997566494E+03 0.  0.
         23    2    4    4    0    0  0.82667719374E+02 -0.45472400869E+03  0.25410249081E+02  0.47093608278E+03  0.86759653055E+02 0.  0.
         23    2    4    4    0    0  0.16121889410E+03  0.12963360384E+03  0.16033543302E+03  0.27715262084E+03  0.91157671656E+02 0.  0.
          1    1    3    3  502    0 -0.34418530944E+02  0.44336271441E+02  0.41039519678E+02  0.69531161453E+02  0.00000000000E+00 0. -1.
         -1    1    3    3    0  502 -0.20946808252E+03  0.28075413341E+03  0.58719799402E+02  0.35517288166E+03  0.00000000000E+00 0.  1.
         13    1    5    5    0    0  0.29545470723E+02 -0.34810117624E+03  0.10856102465E+01  0.34935446510E+03  0.00000000000E+00 0. -1.
        -13    1    5    5    0    0  0.53122248651E+02 -0.10662283245E+03  0.24324638835E+02  0.12158161768E+03  0.00000000000E+00 0.  1.
          2    1    6    6  503    0  0.40429427266E+02  0.27823203475E+02  0.93550480803E+02  0.10564261308E+03  0.00000000000E+00 0. -1.
         -2    1    6    6    0  503  0.12078946683E+03  0.10181040037E+03  0.66784952215E+02  0.17151000776E+03  0.00000000000E+00 0.  1.
<mgrwt>
<rscale>  0 0.54097027E+03</rscale>
<asrwt>0</asrwt>
<pdfrwt beam="1">  1        2 0.11217675E+00 0.54097027E+03</pdfrwt>
<pdfrwt beam="2">  1       -2 0.68252904E-01 0.54097027E+03</pdfrwt>
<totfact> 0.78642258E+01</totfact>
</mgrwt>
</event>
<event>
12    1  0.1338445E-007  0.8831632E+03  0.7818608E-02  0.9446876E-01
          2   -1    0    0  501    0  0.00000000000E+00  0.00000000000E+00  0.13592741827E+04  0.13592741827E+04  0.00000000000E+00 0. -1.
         -2   -1    0    0    0  501 -0.00000000000E+00 -0.00000000000E+00 -0.64898285932E+03  0.64898285932E+03  0.00000000000E+00 0.  1.
         23    2    1    2    0    0  0.19441500269E+03  0.81766460346E+03  0.32609430674E+03  0.90603006519E+03  0.90445481501E+02 0.  0.
    5000000    2    1    2    0    0 -0.19441500269E+03 -0.81766460346E+03  0.38419701668E+03  0.11022269769E+04  0.60076980941E+03 0.  0.
         23    2    4    4    0    0 -0.14673397537E+03 -0.84297711294E+02  0.30067225272E+03  0.35703982380E+03  0.91851339510E+02 0.  0.
         23    2    4    4    0    0 -0.47681027320E+02 -0.73336689216E+03  0.83524763962E+02  0.74518715306E+03  0.90702965835E+02 0.  0.
          4    1    3    3  502    0  0.92722003140E+01  0.50763770869E+02 -0.18857792325E+01  0.51638070208E+02  0.00000000000E+00 0.  1.
         -4    1    3    3    0  502  0.18514280238E+03  0.76690083259E+03  0.32798008598E+03  0.85439199498E+03  0.00000000000E+00 0. -1.
         13    1    5    5    0    0 -0.79408706127E+02  0.34070080591E+01  0.98096852741E+02  0.12625507051E+03  0.00000000000E+00 0.  1.
        -13    1    5    5    0    0 -0.67325269246E+02 -0.87704719353E+02  0.20257539998E+03  0.23078475329E+03  0.00000000000E+00 0. -1.
          1    1    6    6  503    0 -0.21990874593E+02 -0.56492155955E+03  0.99531033665E+02  0.57404389525E+03  0.00000000000E+00 0. -1.
         -1    1    6    6    0  503 -0.25690152727E+02 -0.16844533261E+03 -0.16006269703E+02  0.17114325781E+03  0.00000000000E+00 0.  1.
<mgrwt>
<rscale>  0 0.88316322E+03</rscale>
<asrwt>0</asrwt>
<pdfrwt beam="1">  1        2 0.20911910E+00 0.88316322E+03</pdfrwt>
<pdfrwt beam="2">  1       -2 0.99843517E-01 0.88316322E+03</pdfrwt>
<totfact> 0.12742334E+01</totfact>
</mgrwt>
</event>
<event>
12    1  0.1338445E-007  0.1027566E+04  0.7818608E-02  0.9278817E-01
          1   -1    0    0  501    0  0.00000000000E+00  0.00000000000E+00  0.28752761619E+04  0.28752761619E+04  0.00000000000E+00 0. -1.
         -1   -1    0    0    0  501 -0.00000000000E+00 -0.00000000000E+00 -0.65701069476E+03  0.65701069476E+03  0.00000000000E+00 0.  1.
         23    2    1    2    0    0  0.67188613386E+03 -0.67984819324E+03 -0.86685264289E+02  0.96586676477E+03  0.10844228655E+03 0.  0.
    5000000    2    1    2    0    0 -0.67188613386E+03  0.67984819324E+03  0.23049507314E+04  0.25664200919E+04  0.60007472122E+03 0.  0.
         23    2    4    4    0    0 -0.17328605643E+03 -0.64787635163E+02  0.25829236230E+03  0.33021556982E+03  0.90010461079E+02 0.  0.
         23    2    4    4    0    0 -0.49860007743E+03  0.74463582841E+03  0.20466583691E+04  0.22362045221E+04  0.93357541153E+02 0.  0.
          4    1    3    3  502    0  0.77682467907E+02 -0.12447360120E+03 -0.35272769404E+02  0.15090530633E+03  0.00000000000E+00 0. -1.
         -4    1    3    3    0  502  0.59420366595E+03 -0.55537459204E+03 -0.51412494885E+02  0.81496145844E+03  0.00000000000E+00 0.  1.
         11    1    5    5    0    0 -0.79502260513E+02 -0.61993721858E+02  0.18675449743E+03  0.21222882294E+03  0.00000000000E+00 0. -1.
        -11    1    5    5    0    0 -0.93783795916E+02 -0.27939133044E+01  0.71537864868E+02  0.11798674687E+03  0.00000000000E+00 0.  1.
          4    1    6    6  503    0 -0.23487243912E+03  0.27358119367E+03  0.78079595997E+03  0.86003143158E+03  0.00000000000E+00 0. -1.
         -4    1    6    6    0  503 -0.26372763830E+03  0.47105463473E+03  0.12658624092E+04  0.13761730905E+04  0.00000000000E+00 0.  1.
<mgrwt>
<rscale>  0 0.10275660E+04</rscale>
<asrwt>0</asrwt>
<pdfrwt beam="1">  1        1 0.44235017E+00 0.10275660E+04</pdfrwt>
<pdfrwt beam="2">  1       -1 0.10107857E+00 0.10275660E+04</pdfrwt>
<totfact> 0.69861551E-01</totfact>
</mgrwt>
</event>
<event>
12    1  0.1338445E-007  0.9657801E+03  0.7818608E-02  0.9346894E-01
         -2   -1    0    0    0  501 -0.00000000000E+00  0.00000000000E+00  0.54617874697E+03  0.54617874697E+03  0.00000000000E+00 0.  1.
          2   -1    0    0  501    0  0.00000000000E+00 -0.00000000000E+00 -0.18092635492E+04  0.18092635492E+04  0.00000000000E+00 0. -1.
         23    2    1    2    0    0  0.65382280206E+03 -0.61659768652E+03 -0.65276510412E+03  0.11144128664E+04  0.90204168783E+02 0.  0.
    5000000    2    1    2    0    0 -0.65382280206E+03  0.61659768652E+03 -0.61031969812E+03  0.12410294298E+04  0.59998912343E+03 0.  0.
         23    2    4    4    0    0 -0.64621959341E+03  0.67305843744E+03 -0.63202403604E+03  0.11304987153E+04  0.89249873962E+02 0.  0.
         23    2    4    4    0    0 -0.76032086457E+01 -0.56460750917E+02  0.21704337922E+02  0.11053071453E+03  0.92197263486E+02 0.  0.
          4    1    3    3  502    0  0.25823754365E+03 -0.29371888977E+03 -0.25143616929E+03  0.46494898901E+03  0.00000000000E+00 0. -1.
         -4    1    3    3    0  502  0.39558525841E+03 -0.32287879675E+03 -0.40132893483E+03  0.64946387736E+03  0.00000000000E+00 0.  1.
         11    1    5    5    0    0 -0.63616902815E+03  0.67383108045E+03 -0.62081592792E+03  0.11154244814E+04  0.00000000000E+00 0. -1.
        -11    1    5    5    0    0 -0.10050565268E+02 -0.77264301054E+00 -0.11208108122E+02  0.15074233881E+02  0.00000000000E+00 0.  1.
          3    1    6    6  503    0 -0.40785814249E+02 -0.30298380998E+02  0.39822215101E+02  0.64554499073E+02  0.00000000000E+00 0. -1.
         -3    1    6    6    0  503  0.33182605603E+02 -0.26162369919E+02 -0.18117877179E+02  0.45976215458E+02  0.00000000000E+00 0.  1.
<mgrwt>
<rscale>  0 0.96578009E+03</rscale>
<asrwt>0</asrwt>
<pdfrwt beam="1">  1        2 0.27834824E+00 0.96578009E+03</pdfrwt>
<pdfrwt beam="2">  1       -2 0.84027499E-01 0.96578009E+03</pdfrwt>
<totfact> 0.10581542E+01</totfact>
</mgrwt>
</event>
<event>
12    1  0.1338445E-007  0.9383531E+03  0.7818608E-02  0.9378869E-01
          2   -1    0    0  501    0  0.00000000000E+00  0.00000000000E+00  0.99960322191E+03  0.99960322191E+03  0.00000000000E+00 0. -1.
         -2   -1    0    0    0  501 -0.00000000000E+00 -0.00000000000E+00 -0.93909026894E+03  0.93909026894E+03  0.00000000000E+00 0.  1.
         23    2    1    2    0    0  0.35814917634E+03 -0.79622372565E+03  0.35235912156E+02  0.87861392597E+03  0.92075010717E+02 0.  0.
    5000000    2    1    2    0    0 -0.35814917634E+03  0.79622372565E+03  0.25277040814E+02  0.10600795649E+04  0.60073846328E+03 0.  0.
         23    2    4    4    0    0  0.12370313115E+03  0.18081601450E+03 -0.11050816821E+03  0.26165877103E+03  0.90864522546E+02 0.  0.
         23    2    4    4    0    0 -0.48185230748E+03  0.61540771115E+03  0.13578520903E+03  0.79842079384E+03  0.90165646932E+02 0.  0.
          4    1    3    3  502    0  0.18039068521E+03 -0.44059095348E+03  0.62106389318E+02  0.48012330832E+03  0.00000000000E+00 0. -1.
         -4    1    3    3    0  502  0.17775849112E+03 -0.35563277217E+03 -0.26870477163E+02  0.39849061765E+03  0.00000000000E+00 0.  1.
         13    1    5    5    0    0  0.10117561121E+03  0.12607334452E+03 -0.34453673015E+02  0.16528172339E+03  0.00000000000E+00 0. -1.
        -13    1    5    5    0    0  0.22527519931E+02  0.54742669981E+02 -0.76054495196E+02  0.96377047632E+02  0.00000000000E+00 0.  1.
          2    1    6    6  503    0 -0.27771238754E+03  0.37860230847E+03  0.12360981715E+03  0.48553399991E+03  0.00000000000E+00 0. -1.
         -2    1    6    6    0  503 -0.20413991994E+03  0.23680540268E+03  0.12175391873E+02  0.31288679393E+03  0.00000000000E+00 0.  1.
<mgrwt>
<rscale>  0 0.93835314E+03</rscale>
<asrwt>0</asrwt>
<pdfrwt beam="1">  1        2 0.15378511E+00 0.93835314E+03</pdfrwt>
<pdfrwt beam="2">  1       -2 0.14447543E+00 0.93835314E+03</pdfrwt>
<totfact> 0.83146727E+00</totfact>
</mgrwt>
</event>
<event>
12    1  0.1338445E-007  0.4342730E+03  0.7818608E-02  0.1032519E+00
         -2   -1    0    0    0  501 -0.00000000000E+00  0.00000000000E+00  0.23019725761E+03  0.23019725761E+03  0.00000000000E+00 0.  1.
          2   -1    0    0  501    0  0.00000000000E+00 -0.00000000000E+00 -0.14339985617E+04  0.14339985617E+04  0.00000000000E+00 0. -1.
         23    2    1    2    0    0 -0.19609988309E+03 -0.18365430595E+03 -0.89287350840E+03  0.93691048280E+03  0.91619225751E+02 0.  0.
    5000000    2    1    2    0    0  0.19609988309E+03  0.18365430595E+03 -0.31092779565E+03  0.72728533647E+03  0.60006982785E+03 0.  0.
         23    2    4    4    0    0  0.17510712034E+03  0.35734813248E+03 -0.33542376825E+03  0.52819775590E+03  0.90130869599E+02 0.  0.
         23    2    4    4    0    0  0.20992762750E+02 -0.17369382653E+03  0.24495972594E+02  0.19908758057E+03  0.91790906973E+02 0.  0.
          2    1    3    3  502    0 -0.55224083173E+02 -0.11346926791E+03 -0.41801180491E+03  0.43664498528E+03  0.00000000000E+00 0. -1.
         -2    1    3    3    0  502 -0.14087579992E+03 -0.70185038039E+02 -0.47486170349E+03  0.50026549752E+03  0.00000000000E+00 0.  1.
         11    1    5    5    0    0  0.64505682595E+02  0.60637339535E+02 -0.10037945651E+03  0.13384283814E+03  0.00000000000E+00 0. -1.
        -11    1    5    5    0    0  0.11060143775E+03  0.29671079294E+03 -0.23504431174E+03  0.39435491776E+03  0.00000000000E+00 0.  1.
          3    1    6    6  503    0 -0.98052196448E+01 -0.13721827210E+02 -0.23800085418E+02  0.29169760715E+02  0.00000000000E+00 0. -1.
         -3    1    6    6    0  503  0.30797982395E+02 -0.15997199932E+03  0.48296058012E+02  0.16991781986E+03  0.00000000000E+00 0.  1.
<mgrwt>
<rscale>  0 0.43427301E+03</rscale>
<asrwt>0</asrwt>
<pdfrwt beam="1">  1        2 0.22061516E+00 0.43427301E+03</pdfrwt>
<pdfrwt beam="2">  1       -2 0.35414962E-01 0.43427301E+03</pdfrwt>
<totfact> 0.10923856E+02</totfact>
</mgrwt>
</event>
<event>
12    1  0.1338445E-007  0.6592868E+03  0.7818608E-02  0.9789508E-01
          1   -1    0    0  501    0  0.00000000000E+00  0.00000000000E+00  0.27680590729E+04  0.27680590729E+04  0.00000000000E+00 0. -1.
         -1   -1    0    0    0  501 -0.00000000000E+00 -0.00000000000E+00 -0.21248359118E+03  0.21248359118E+03  0.00000000000E+00 0.  1.
         23    2    1    2    0    0 -0.20651107372E+03 -0.60833174212E+03  0.12179999177E+04  0.13800306448E+04  0.90809961084E+02 0.  0.
    5000000    2    1    2    0    0  0.20651107372E+03  0.60833174212E+03  0.13375755640E+04  0.16005120193E+04  0.59984664906E+03 0.  0.
         23    2    4    4    0    0  0.11261350696E+02  0.31445446973E+03  0.11398182602E+04  0.11859490550E+04  0.91000347723E+02 0.  0.
         23    2    4    4    0    0  0.19524972302E+03  0.29387727239E+03  0.19775730384E+03  0.41456296428E+03  0.90929613223E+02 0.  0.
          4    1    3    3  502    0 -0.10452008309E+03 -0.42991235167E+03  0.79790078011E+03  0.91235669165E+03  0.00000000000E+00 0. -1.
         -4    1    3    3    0  502 -0.10199099062E+03 -0.17841939045E+03  0.42009913755E+03  0.46767395312E+03  0.00000000000E+00 0.  1.
         13    1    5    5    0    0 -0.15764397248E+02  0.11437357115E+03  0.56579600795E+03  0.57745558497E+03  0.00000000000E+00 0.  1.
        -13    1    5    5    0    0  0.27025747943E+02  0.20008089858E+03  0.57402225224E+03  0.60849347005E+03  0.00000000000E+00 0. -1.
          4    1    6    6  503    0  0.16602314143E+03  0.26049787997E+03  0.20337325294E+03  0.36984254619E+03  0.00000000000E+00 0. -1.
         -4    1    6    6    0  503  0.29226581588E+02  0.33379392419E+02 -0.56159491002E+01  0.44720418087E+02  0.00000000000E+00 0.  1.
<mgrwt>
<rscale>  0 0.65928677E+03</rscale>
<asrwt>0</asrwt>
<pdfrwt beam="1">  1        1 0.42585521E+00 0.65928677E+03</pdfrwt>
<pdfrwt beam="2">  1       -1 0.32689785E-01 0.65928677E+03</pdfrwt>
<totfact> 0.82935734E+00</totfact>
</mgrwt>
</event>
<event>
12    1  0.1338445E-007  0.1474388E+04  0.7818608E-02  0.8901666E-01
         -2   -1    0    0    0  501 -0.00000000000E+00  0.00000000000E+00  0.11906929074E+04  0.11906929074E+04  0.00000000000E+00 0.  1.
          2   -1    0    0  501    0  0.00000000000E+00 -0.00000000000E+00 -0.19225892840E+04  0.19225892840E+04  0.00000000000E+00 0. -1.
         23    2    1    2    0    0  0.13763959141E+04  0.46077351555E+03 -0.39485710078E+03  0.15069630195E+04  0.90815567508E+02 0.  0.
    5000000    2    1    2    0    0 -0.13763959141E+04 -0.46077351555E+03 -0.33703927574E+03  0.16063191719E+04  0.59990654575E+03 0.  0.
         23    2    4    4    0    0 -0.49456392278E+03 -0.33661620154E+03  0.94926596377E+02  0.61230920944E+03  0.89485017790E+02 0.  0.
         23    2    4    4    0    0 -0.88183199127E+03 -0.12415731401E+03 -0.43196587212E+03  0.99400996242E+03  0.91752881458E+02 0.  0.
          4    1    3    3  502    0  0.11612518057E+04  0.38164646404E+03 -0.29834291234E+03  0.12582401492E+04  0.00000000000E+00 0. -1.
         -4    1    3    3    0  502  0.21514410833E+03  0.79127051512E+02 -0.96514188445E+02  0.24872287028E+03  0.00000000000E+00 0.  1.
         11    1    5    5    0    0 -0.11598369282E+03 -0.11558287311E+03 -0.11708646600E+00  0.16374257622E+03  0.00000000000E+00 0.  1.
        -11    1    5    5    0    0 -0.37858022996E+03 -0.22103332844E+03  0.95043682843E+02  0.44856663322E+03  0.00000000000E+00 0. -1.
          1    1    6    6  503    0 -0.65497470353E+03 -0.52146293606E+02 -0.30814716025E+03  0.72571741785E+03  0.00000000000E+00 0. -1.
         -1    1    6    6    0  503 -0.22685728775E+03 -0.72011020405E+02 -0.12381871187E+03  0.26829254457E+03  0.00000000000E+00 0.  1.
<mgrwt>
<rscale>  0 0.14743880E+04</rscale>
<asrwt>0</asrwt>
<pdfrwt beam="1">  1        2 0.29578296E+00 0.14743880E+04</pdfrwt>
<pdfrwt beam="2">  1       -2 0.18318353E+00 0.14743880E+04</pdfrwt>
<totfact> 0.11997505E+00</totfact>
</mgrwt>
</event>
<event>
12    1  0.1338445E-007  0.1311714E+04  0.7818608E-02  0.9020327E-01
         -1   -1    0    0    0  501 -0.00000000000E+00  0.00000000000E+00  0.98966274643E+03  0.98966274643E+03  0.00000000000E+00 0.  1.
          1   -1    0    0  501    0  0.00000000000E+00 -0.00000000000E+00 -0.27601275058E+04  0.27601275058E+04  0.00000000000E+00 0. -1.
         23    2    1    2    0    0 -0.32481802629E+03 -0.12660402032E+04 -0.18973871380E+04  0.23057807520E+04  0.90456499784E+02 0.  0.
    5000000    2    1    2    0    0  0.32481802629E+03  0.12660402032E+04  0.12692237865E+03  0.14440095003E+04  0.60057439213E+03 0.  0.
         23    2    4    4    0    0  0.23453224936E+03  0.71601082740E+03 -0.20876779223E+03  0.78718078578E+03  0.91611775856E+02 0.  0.
         23    2    4    4    0    0  0.90285776927E+02  0.55002937575E+03  0.33569017088E+03  0.65682871449E+03  0.89734239033E+02 0.  0.
          3    1    3    3  502    0 -0.44042844656E+02 -0.15922687882E+03 -0.29593581825E+03  0.33892621561E+03  0.00000000000E+00 0. -1.
         -3    1    3    3    0  502 -0.28077518163E+03 -0.11068133243E+04 -0.16014513198E+04  0.19668545363E+04  0.00000000000E+00 0.  1.
         13    1    5    5    0    0  0.16079985318E+03  0.34556856038E+03 -0.11228350958E+03  0.39734343990E+03  0.00000000000E+00 0. -1.
        -13    1    5    5    0    0  0.73732396177E+02  0.37044226702E+03 -0.96484282654E+02  0.38983734588E+03  0.00000000000E+00 0.  1.
          4    1    6    6  503    0  0.10088716136E+02  0.43565708331E+02  0.59417679485E+02  0.74365407086E+02  0.00000000000E+00 0. -1.
         -4    1    6    6    0  503  0.80197060791E+02  0.50646366742E+03  0.27627249140E+03  0.58246330741E+03  0.00000000000E+00 0.  1.
<mgrwt>
<rscale>  0 0.13117136E+04</rscale>
<asrwt>0</asrwt>
<pdfrwt beam="1">  1        1 0.42463500E+00 0.13117136E+04</pdfrwt>
<pdfrwt beam="2">  1       -1 0.15225581E+00 0.13117136E+04</pdfrwt>
<totfact> 0.29028297E-01</totfact>
</mgrwt>
</event>
<event>
12    1  0.1338445E-007  0.7686347E+03  0.7818608E-02  0.9606561E-01
         -2   -1    0    0    0  501 -0.00000000000E+00  0.00000000000E+00  0.53853536842E+03  0.53853536842E+03  0.00000000000E+00 0.  1.
          2   -1    0    0  501    0  0.00000000000E+00 -0.00000000000E+00 -0.22084029572E+04  0.22084029572E+04  0.00000000000E+00 0. -1.
         23    2    1    2    0    0  0.14132199112E+03  0.74416368693E+03  0.60159272268E+02  0.76534791168E+03  0.91579417754E+02 0.  0.
    5000000    2    1    2    0    0 -0.14132199112E+03 -0.74416368693E+03 -0.17300268610E+04  0.19815904139E+04  0.59996344099E+03 0.  0.
         23    2    4    4    0    0 -0.10125634349E+03 -0.56305546244E+03 -0.16659399721E+04  0.17637663493E+04  0.90727302728E+02 0.  0.
         23    2    4    4    0    0 -0.40065647628E+02 -0.18110822449E+03 -0.64086888913E+02  0.21782406459E+03  0.94523799563E+02 0.  0.
          3    1    3    3  502    0  0.89979240499E+02  0.48531166079E+03 -0.46785648938E+01  0.49360466042E+03  0.00000000000E+00 0. -1.
         -3    1    3    3    0  502  0.51342750621E+02  0.25885202615E+03  0.64837837162E+02  0.27174325127E+03  0.00000000000E+00 0.  1.
         13    1    5    5    0    0 -0.42913437972E+02 -0.15623156598E+03 -0.59529391607E+03  0.61694790046E+03  0.00000000000E+00 0.  1.
        -13    1    5    5    0    0 -0.58342905520E+02 -0.40682389645E+03 -0.10706460560E+04  0.11468184489E+04  0.00000000000E+00 0. -1.
          2    1    6    6  503    0  0.80094461768E+01 -0.14845789564E+03 -0.57223141702E+02  0.15930595077E+03  0.00000000000E+00 0. -1.
         -2    1    6    6    0  503 -0.48075093805E+02 -0.32650328857E+02 -0.68637472112E+01  0.58518113817E+02  0.00000000000E+00 0.  1.
<mgrwt>
<rscale>  0 0.76863472E+03</rscale>
<asrwt>0</asrwt>
<pdfrwt beam="1">  1        2 0.33975430E+00 0.76863472E+03</pdfrwt>
<pdfrwt beam="2">  1       -2 0.82851596E-01 0.76863472E+03</pdfrwt>
<totfact> 0.67712323E+00</totfact>
</mgrwt>
</event>
<event>
12    1  0.1338445E-007  0.8087073E+03  0.7818608E-02  0.9547499E-01
         -2   -1    0    0    0  501 -0.00000000000E+00  0.00000000000E+00  0.31301811855E+03  0.31301811855E+03  0.00000000000E+00 0.  1.
          2   -1    0    0  501    0  0.00000000000E+00 -0.00000000000E+00 -0.23854312573E+04  0.23854312573E+04  0.00000000000E+00 0. -1.
         23    2    1    2    0    0 -0.84704608362E+02  0.74304453259E+03 -0.10967485327E+04  0.13305650309E+04  0.90862034752E+02 0.  0.
    5000000    2    1    2    0    0  0.84704608362E+02 -0.74304453259E+03 -0.97566460602E+03  0.13678843449E+04  0.59991341839E+03 0.  0.
         23    2    4    4    0    0 -0.28955410116E+02  0.16215241250E+02 -0.37929156218E+03  0.39131562785E+03  0.90357521195E+02 0.  0.
         23    2    4    4    0    0  0.11366001848E+03 -0.75925977384E+03 -0.59637304384E+03  0.97656871708E+03  0.92906661651E+02 0.  0.
          3    1    3    3  502    0 -0.59599696569E+02  0.18156462935E+03 -0.29240615193E+03  0.34931246205E+03  0.00000000000E+00 0. -1.
         -3    1    3    3    0  502 -0.25104911793E+02  0.56147990324E+03 -0.80434238077E+03  0.98125256883E+03  0.00000000000E+00 0.  1.
         11    1    5    5    0    0 -0.15641894845E+02 -0.37378155068E+02 -0.18086341832E+03  0.18534662510E+03  0.00000000000E+00 0.  1.
        -11    1    5    5    0    0 -0.13313515272E+02  0.53593396318E+02 -0.19842814386E+03  0.20596900275E+03  0.00000000000E+00 0. -1.
          1    1    6    6  503    0  0.74916140832E+02 -0.59863697274E+03 -0.42136582533E+03  0.73588573301E+03  0.00000000000E+00 0. -1.
         -1    1    6    6    0  503  0.38743877647E+02 -0.16062280110E+03 -0.17500721852E+03  0.24068298407E+03  0.00000000000E+00 0.  1.
<mgrwt>
<rscale>  0 0.80870727E+03</rscale>
<asrwt>0</asrwt>
<pdfrwt beam="1">  1        2 0.36698944E+00 0.80870727E+03</pdfrwt>
<pdfrwt beam="2">  1       -2 0.48156632E-01 0.80870727E+03</pdfrwt>
<totfact> 0.17129154E+01</totfact>
</mgrwt>
</event>
<event>
12    1  0.1338445E-007  0.1155464E+04  0.7818608E-02  0.9152757E-01
          1   -1    0    0  501    0  0.00000000000E+00  0.00000000000E+00  0.19030430996E+04  0.19030430996E+04  0.00000000000E+00 0. -1.
         -1   -1    0    0    0  501 -0.00000000000E+00 -0.00000000000E+00 -0.77571584786E+03  0.77571584786E+03  0.00000000000E+00 0.  1.
         23    2    1    2    0    0  0.50039079862E+03  0.96883073464E+03  0.89258616390E+03  0.14122111747E+04  0.92770675347E+02 0.  0.
    5000000    2    1    2    0    0 -0.50039079862E+03 -0.96883073464E+03  0.23474108786E+03  0.12665477728E+04  0.60001328211E+03 0.  0.
         23    2    4    4    0    0 -0.41961940111E+02 -0.64709119082E+03  0.24271992203E+03  0.69912194929E+03  0.96802509111E+02 0.  0.
         23    2    4    4    0    0 -0.45842885850E+03 -0.32173954382E+03 -0.79788341678E+01  0.56742582351E+03  0.90747181886E+02 0.  0.
          3    1    3    3  502    0  0.29799927010E+02  0.10949984584E+03  0.11301577452E+03  0.16015872496E+03  0.00000000000E+00 0.  1.
         -3    1    3    3    0  502  0.47059087161E+03  0.85933088880E+03  0.77957038938E+03  0.12520524497E+04  0.00000000000E+00 0. -1.
         11    1    5    5    0    0 -0.71291383190E+02 -0.50733776200E+03  0.17825387128E+03  0.54244677960E+03  0.00000000000E+00 0.  1.
        -11    1    5    5    0    0  0.29329443079E+02 -0.13975342882E+03  0.64466050752E+02  0.15667516969E+03  0.00000000000E+00 0. -1.
          1    1    6    6  503    0 -0.36675505372E+03 -0.28211584631E+03 -0.34805169919E+02  0.46401510753E+03  0.00000000000E+00 0. -1.
         -1    1    6    6    0  503 -0.91673804785E+02 -0.39623697517E+02  0.26826335751E+02  0.10341071597E+03  0.00000000000E+00 0.  1.
<mgrwt>
<rscale>  0 0.11554643E+04</rscale>
<asrwt>0</asrwt>
<pdfrwt beam="1">  1        1 0.29277586E+00 0.11554643E+04</pdfrwt>
<pdfrwt beam="2">  1       -1 0.11934090E+00 0.11554643E+04</pdfrwt>
<totfact> 0.21527897E+00</totfact>
</mgrwt>
</event>
<event>
12    1  0.1338445E-007  0.1746876E+04  0.7818608E-02  0.8735072E-01
          2   -1    0    0  501    0  0.00000000000E+00  0.00000000000E+00  0.25685603005E+04  0.25685603005E+04  0.00000000000E+00 0. -1.
         -2   -1    0    0    0  501 -0.00000000000E+00 -0.00000000000E+00 -0.23510454946E+04  0.23510454946E+04  0.00000000000E+00 0.  1.
         23    2    1    2    0    0  0.15451311871E+03 -0.16952311800E+04  0.18288856147E+04  0.25001054861E+04  0.89564461344E+02 0.  0.
    5000000    2    1    2    0    0 -0.15451311871E+03  0.16952311800E+04 -0.16113708088E+04  0.24195003091E+04  0.59981897691E+03 0.  0.
         23    2    4    4    0    0 -0.35097641577E+03  0.12007289193E+04 -0.10007281430E+04  0.16045879505E+04  0.91166290821E+02 0.  0.
         23    2    4    4    0    0  0.19646329706E+03  0.49450226068E+03 -0.61064266574E+03  0.81491235862E+03  0.89818562088E+02 0.  0.
          3    1    3    3  502    0 -0.85634039488E+01 -0.23140930229E+03  0.23659458266E+03  0.33105980368E+03  0.00000000000E+00 0. -1.
         -3    1    3    3    0  502  0.16307652266E+03 -0.14638218777E+04  0.15922910320E+04  0.21690456824E+04  0.00000000000E+00 0.  1.
         13    1    5    5    0    0 -0.33178581722E+03  0.10249163791E+04 -0.86823203045E+03  0.13836048104E+04  0.00000000000E+00 0.  1.
        -13    1    5    5    0    0 -0.19190598555E+02  0.17581254014E+03 -0.13249611256E+03  0.22098314005E+03  0.00000000000E+00 0. -1.
          1    1    6    6  503    0  0.19605765110E+03  0.45229829922E+03 -0.52951583365E+03  0.72346345596E+03  0.00000000000E+00 0. -1.
         -1    1    6    6    0  503  0.40564596527E+00  0.42203961468E+02 -0.81126832091E+02  0.91448902658E+02  0.00000000000E+00 0.  1.
<mgrwt>
<rscale>  0 0.17468762E+04</rscale>
<asrwt>0</asrwt>
<pdfrwt beam="1">  1        2 0.39516312E+00 0.17468762E+04</pdfrwt>
<pdfrwt beam="2">  1       -2 0.36169931E+00 0.17468762E+04</pdfrwt>
<totfact> 0.37875407E-02</totfact>
</mgrwt>
</event>
<event>
12    1  0.1338445E-007  0.1231784E+04  0.7818608E-02  0.9085482E-01
         -1   -1    0    0    0  501 -0.00000000000E+00  0.00000000000E+00  0.66125370718E+03  0.66125370718E+03  0.00000000000E+00 0.  1.
          1   -1    0    0  501    0  0.00000000000E+00 -0.00000000000E+00 -0.23106637538E+04  0.23106637538E+04  0.00000000000E+00 0. -1.
         23    2    1    2    0    0  0.85355537323E+03 -0.78434844583E+03 -0.69195810994E+03  0.13531066295E+04  0.91281241867E+02 0.  0.
    5000000    2    1    2    0    0 -0.85355537323E+03  0.78434844583E+03 -0.95745193666E+03  0.16188108315E+04  0.60006252804E+03 0.  0.
         23    2    4    4    0    0 -0.27422722521E+03  0.63567999835E+03 -0.46641004109E+03  0.83961957626E+03  0.90183563176E+02 0.  0.
         23    2    4    4    0    0 -0.57932814803E+03  0.14866844748E+03 -0.49104189557E+03  0.77919125525E+03  0.91068428533E+02 0.  0.
          1    1    3    3  502    0  0.70831743365E+02 -0.98422874624E+02 -0.57328336469E+02  0.13412955036E+03  0.00000000000E+00 0. -1.
         -1    1    3    3    0  502  0.78272362987E+03 -0.68592557121E+03 -0.63462977347E+03  0.12189770791E+04  0.00000000000E+00 0.  1.
         13    1    5    5    0    0 -0.26148576453E+03  0.52870836354E+03 -0.38160364394E+03  0.70251596408E+03  0.00000000000E+00 0. -1.
        -13    1    5    5    0    0 -0.12741460679E+02  0.10697163481E+03 -0.84806397152E+02  0.13710361218E+03  0.00000000000E+00 0.  1.
          1    1    6    6  503    0 -0.21285987249E+03  0.96946696135E+02 -0.16856796284E+03  0.28831084840E+03  0.00000000000E+00 0. -1.
         -1    1    6    6    0  503 -0.36646827553E+03  0.51721751340E+02 -0.32247393273E+03  0.49088040684E+03  0.00000000000E+00 0.  1.
<mgrwt>
<rscale>  0 0.12317840E+04</rscale>
<asrwt>0</asrwt>
<pdfrwt beam="1">  1        1 0.35548674E+00 0.12317840E+04</pdfrwt>
<pdfrwt beam="2">  1       -1 0.10173134E+00 0.12317840E+04</pdfrwt>
<totfact> 0.16506629E+00</totfact>
</mgrwt>
</event>
<event>
12    1  0.1338445E-007  0.1488386E+04  0.7818608E-02  0.8892213E-01
         -2   -1    0    0    0  501 -0.00000000000E+00  0.00000000000E+00  0.74288665540E+03  0.74288665540E+03  0.00000000000E+00 0. -1.
          2   -1    0    0  501    0  0.00000000000E+00 -0.00000000000E+00 -0.30846641037E+04  0.30846641037E+04  0.00000000000E+00 0.  1.
         23    2    1    2    0    0  0.72204808500E+03 -0.12566926839E+04 -0.99716575824E+03  0.17616047854E+04  0.91005120554E+02 0.  0.
    5000000    2    1    2    0    0 -0.72204808500E+03  0.12566926839E+04 -0.13446116901E+04  0.20659459737E+04  0.59960172649E+03 0.  0.
         23    2    4    4    0    0 -0.32087475816E+03  0.97850071572E+03 -0.11089417628E+04  0.15161976712E+04  0.93162674217E+02 0.  0.
         23    2    4    4    0    0 -0.40117332683E+03  0.27819196813E+03 -0.23566992732E+03  0.54974830249E+03  0.91389672017E+02 0.  0.
          1    1    3    3  502    0  0.29558816022E+03 -0.42721031971E+03 -0.35235990469E+03  0.62772487616E+03  0.00000000000E+00 0. -1.
         -1    1    3    3    0  502  0.42645992478E+03 -0.82948236415E+03 -0.64480585355E+03  0.11338799093E+04  0.00000000000E+00 0.  1.
         11    1    5    5    0    0 -0.20828951381E+03  0.53109573947E+03 -0.56437211747E+03  0.80247311046E+03  0.00000000000E+00 0. -1.
        -11    1    5    5    0    0 -0.11258524435E+03  0.44740497625E+03 -0.54456964530E+03  0.71372456074E+03  0.00000000000E+00 0.  1.
          4    1    6    6  503    0 -0.36794347209E+03  0.22900122238E+03 -0.22855499313E+03  0.48996055289E+03  0.00000000000E+00 0. -1.
         -4    1    6    6    0  503 -0.33229854748E+02  0.49190745748E+02 -0.71149341948E+01  0.59787749602E+02  0.00000000000E+00 0.  1.
<mgrwt>
<rscale>  0 0.14883861E+04</rscale>
<asrwt>0</asrwt>
<pdfrwt beam="1">  1        2 0.47456370E+00 0.14883861E+04</pdfrwt>
<pdfrwt beam="2">  1       -2 0.11429026E+00 0.14883861E+04</pdfrwt>
<totfact> 0.88056458E-01</totfact>
</mgrwt>
</event>
<event>
12    1  0.1338445E-007  0.5290422E+03  0.7818608E-02  0.1006465E+00
          2   -1    0    0  501    0  0.00000000000E+00  0.00000000000E+00  0.99899164124E+03  0.99899164124E+03  0.00000000000E+00 0.  1.
         -2   -1    0    0    0  501 -0.00000000000E+00 -0.00000000000E+00 -0.90277035803E+03  0.90277035803E+03  0.00000000000E+00 0. -1.
         23    2    1    2    0    0 -0.41683864247E+03  0.19624340156E+03  0.76127286588E+03  0.89452517702E+03  0.91504040879E+02 0.  0.
    5000000    2    1    2    0    0  0.41683864247E+03 -0.19624340156E+03 -0.66505158267E+03  0.10072368222E+04  0.59997206766E+03 0.  0.
         23    2    4    4    0    0 -0.32319859300E+02  0.28088378017E+02  0.63042281913E+02  0.11805183343E+03  0.90157505419E+02 0.  0.
         23    2    4    4    0    0  0.44915850177E+03 -0.22433177957E+03 -0.72809386458E+03  0.88918498882E+03  0.91984572892E+02 0.  0.
          1    1    3    3  502    0 -0.74614436696E+02  0.67881756529E+02  0.21173748241E+03  0.23453786153E+03  0.00000000000E+00 0. -1.
         -1    1    3    3    0  502 -0.34222420578E+03  0.12836164503E+03  0.54953538347E+03  0.65998731550E+03  0.00000000000E+00 0.  1.
         13    1    5    5    0    0 -0.22568423880E+02 -0.25596708486E+02  0.52288205211E+02  0.62438623030E+02  0.00000000000E+00 0.  1.
        -13    1    5    5    0    0 -0.97514354198E+01  0.53685086503E+02  0.10754076702E+02  0.55613210402E+02  0.00000000000E+00 0. -1.
          3    1    6    6  503    0  0.34178416800E+03 -0.18519627256E+03 -0.49334328042E+03  0.62809367868E+03  0.00000000000E+00 0. -1.
         -3    1    6    6    0  503  0.10737433378E+03 -0.39135507017E+02 -0.23475058417E+03  0.26109131014E+03  0.00000000000E+00 0.  1.
<mgrwt>
<rscale>  0 0.52904217E+03</rscale>
<asrwt>0</asrwt>
<pdfrwt beam="1">  1        2 0.15369102E+00 0.52904217E+03</pdfrwt>
<pdfrwt beam="2">  1       -2 0.13888775E+00 0.52904217E+03</pdfrwt>
<totfact> 0.97178991E+00</totfact>
</mgrwt>
</event>
<event>
12    1  0.1338445E-007  0.6916238E+03  0.7818608E-02  0.9731665E-01
         -1   -1    0    0    0  501 -0.00000000000E+00  0.00000000000E+00  0.19197550180E+04  0.19197550180E+04  0.00000000000E+00 0.  1.
          1   -1    0    0  501    0  0.00000000000E+00 -0.00000000000E+00 -0.27957567959E+03  0.27957567959E+03  0.00000000000E+00 0. -1.
         23    2    1    2    0    0 -0.32863316670E+03  0.46202879291E+03  0.10066609992E+04  0.11587541139E+04  0.88737621558E+02 0.  0.
    5000000    2    1    2    0    0  0.32863316670E+03 -0.46202879291E+03  0.63351833915E+03  0.10405765836E+04  0.59998648035E+03 0.  0.
         23    2    4    4    0    0  0.37223195219E+03 -0.36479794993E+02  0.26008617225E+03  0.46522125200E+03  0.94332362670E+02 0.  0.
         23    2    4    4    0    0 -0.43598785486E+02 -0.42554899792E+03  0.37343216690E+03  0.57535533162E+03  0.92678857462E+02 0.  0.
          4    1    3    3  502    0 -0.23057240839E+03  0.37988674113E+03  0.81599003506E+03  0.92914870118E+03  0.00000000000E+00 0. -1.
         -4    1    3    3    0  502 -0.98060758306E+02  0.82142051777E+02  0.19067096416E+03  0.22960541275E+03  0.00000000000E+00 0.  1.
         11    1    5    5    0    0  0.26426989115E+02  0.17826751436E+02  0.42267434396E+02  0.52940672747E+02  0.00000000000E+00 0. -1.
        -11    1    5    5    0    0  0.34580496307E+03 -0.54306546429E+02  0.21781873785E+03  0.41228057925E+03  0.00000000000E+00 0.  1.
          3    1    6    6  503    0 -0.60541901124E+01 -0.93781233326E+01  0.37734534240E+02  0.39350952840E+02  0.00000000000E+00 0. -1.
         -3    1    6    6    0  503 -0.37544595374E+02 -0.41617087458E+03  0.33569763266E+03  0.53600437878E+03  0.00000000000E+00 0.  1.
<mgrwt>
<rscale>  0 0.69162382E+03</rscale>
<asrwt>0</asrwt>
<pdfrwt beam="1">  1        1 0.43011644E-01 0.69162382E+03</pdfrwt>
<pdfrwt beam="2">  1       -1 0.29534692E+00 0.69162382E+03</pdfrwt>
<totfact> 0.35944306E+00</totfact>
</mgrwt>
</event>
<event>
12    1  0.1338445E-007  0.1112128E+04  0.7818608E-02  0.9193451E-01
         -2   -1    0    0    0  501 -0.00000000000E+00  0.00000000000E+00  0.11319400040E+04  0.11319400040E+04  0.00000000000E+00 0.  1.
          2   -1    0    0  501    0  0.00000000000E+00 -0.00000000000E+00 -0.16719764059E+04  0.16719764059E+04  0.00000000000E+00 0. -1.
         23    2    1    2    0    0  0.10379121839E+04 -0.39598184367E+03 -0.96241317755E+03  0.14725433684E+04  0.89897305406E+02 0.  0.
    5000000    2    1    2    0    0 -0.10379121839E+04  0.39598184367E+03  0.42237677574E+03  0.13313730415E+04  0.60007392274E+03 0.  0.
         23    2    4    4    0    0 -0.35986956013E+03  0.10602957891E+03  0.44292476352E+03  0.58810008450E+03  0.94503922367E+02 0.  0.
         23    2    4    4    0    0 -0.67804262381E+03  0.28995226476E+03 -0.20547987778E+02  0.74327295695E+03  0.90655133321E+02 0.  0.
          2    1    3    3  502    0  0.59024707396E+03 -0.23635304412E+03 -0.49317677514E+03  0.80465999113E+03  0.00000000000E+00 0.  1.
         -2    1    3    3    0  502  0.44766510997E+03 -0.15962879955E+03 -0.46923640242E+03  0.66788337731E+03  0.00000000000E+00 0. -1.
         13    1    5    5    0    0 -0.27089059403E+03  0.88554627903E+02  0.26871412568E+03  0.39170258794E+03  0.00000000000E+00 0.  1.
        -13    1    5    5    0    0 -0.88978966094E+02  0.17474951005E+02  0.17421063783E+03  0.19639749656E+03  0.00000000000E+00 0. -1.
          1    1    6    6  503    0 -0.84319528073E+02  0.32754371404E+02 -0.32516010824E+02  0.96124516230E+02  0.00000000000E+00 0. -1.
         -1    1    6    6    0  503 -0.59372309573E+03  0.25719789336E+03  0.11968023046E+02  0.64714844072E+03  0.00000000000E+00 0.  1.
<mgrwt>
<rscale>  0 0.11121280E+04</rscale>
<asrwt>0</asrwt>
<pdfrwt beam="1">  1        2 0.25722714E+00 0.11121280E+04</pdfrwt>
<pdfrwt beam="2">  1       -2 0.17414462E+00 0.11121280E+04</pdfrwt>
<totfact> 0.19853774E+00</totfact>
</mgrwt>
</event>
<event>
12    1  0.1338445E-007  0.7367583E+03  0.7818608E-02  0.9656357E-01
         -1   -1    0    0    0  501 -0.00000000000E+00  0.00000000000E+00  0.44785962076E+03  0.44785962076E+03  0.00000000000E+00 0.  1.
          1   -1    0    0  501    0  0.00000000000E+00 -0.00000000000E+00 -0.12743562248E+04  0.12743562248E+04  0.00000000000E+00 0. -1.
         23    2    1    2    0    0  0.41651519642E+03  0.47571706881E+03 -0.31934266510E+03  0.71371222149E+03  0.87256856146E+02 0.  0.
    5000000    2    1    2    0    0 -0.41651519642E+03 -0.47571706881E+03 -0.50715393896E+03  0.10085036241E+04  0.60006899901E+03 0.  0.
         23    2    4    4    0    0 -0.40064691028E+03 -0.57364492287E+03 -0.31366628187E+03  0.77251241434E+03  0.93821371134E+02 0.  0.
         23    2    4    4    0    0 -0.15868286145E+02  0.97927854052E+02 -0.19348765709E+03  0.23599120974E+03  0.91720829284E+02 0.  0.
          3    1    3    3  502    0  0.39908340197E+02  0.23227400782E+02 -0.53041294276E+01  0.46479259389E+02  0.00000000000E+00 0. -1.
         -3    1    3    3    0  502  0.37660685622E+03  0.45248966803E+03 -0.31403853567E+03  0.66723296210E+03  0.00000000000E+00 0.  1.
         13    1    5    5    0    0 -0.59517332573E+02 -0.14396013635E+03 -0.48460448872E+02  0.16314180592E+03  0.00000000000E+00 0.  1.
        -13    1    5    5    0    0 -0.34112957770E+03 -0.42968478652E+03 -0.26520583300E+03  0.60937060842E+03  0.00000000000E+00 0. -1.
          3    1    6    6  503    0 -0.45346399141E+02  0.94148693790E+02 -0.16119446755E+03  0.19210395318E+03  0.00000000000E+00 0. -1.
         -3    1    6    6    0  503  0.29478112996E+02  0.37791602617E+01 -0.32293189540E+02  0.43887256564E+02  0.00000000000E+00 0.  1.
<mgrwt>
<rscale>  0 0.73675830E+03</rscale>
<asrwt>0</asrwt>
<pdfrwt beam="1">  1        1 0.19605480E+00 0.73675830E+03</pdfrwt>
<pdfrwt beam="2">  1       -1 0.68901480E-01 0.73675830E+03</pdfrwt>
<totfact> 0.20787064E+01</totfact>
</mgrwt>
</event>
<event>
12    1  0.1338445E-007  0.9660636E+03  0.7818608E-02  0.9346569E-01
          2   -1    0    0  501    0  0.00000000000E+00  0.00000000000E+00  0.22138141907E+04  0.22138141907E+04  0.00000000000E+00 0. -1.
         -2   -1    0    0    0  501 -0.00000000000E+00 -0.00000000000E+00 -0.46428953455E+03  0.46428953455E+03  0.00000000000E+00 0.  1.
         23    2    1    2    0    0 -0.50879975353E+03  0.72190139497E+03  0.44806552910E+03  0.99469796970E+03  0.92965150990E+02 0.  0.
    5000000    2    1    2    0    0  0.50879975353E+03 -0.72190139497E+03  0.13014591270E+04  0.16834057555E+04  0.60003355336E+03 0.  0.
         23    2    4    4    0    0  0.62645138134E+03 -0.60432495018E+03  0.10618349754E+04  0.13761249089E+04  0.92608160644E+02 0.  0.
         23    2    4    4    0    0 -0.11765162781E+03 -0.11757644479E+03  0.23962415163E+03  0.30728084659E+03  0.96621212687E+02 0.  0.
          4    1    3    3  502    0 -0.28586723072E+03  0.32570562103E+03  0.21149786709E+03  0.48221942408E+03  0.00000000000E+00 0. -1.
         -4    1    3    3    0  502 -0.22293252280E+03  0.39619577394E+03  0.23656766201E+03  0.51247854562E+03  0.00000000000E+00 0.  1.
         13    1    5    5    0    0  0.16051438624E+03 -0.18657478916E+03  0.24667929929E+03  0.34846190156E+03  0.00000000000E+00 0.  1.
        -13    1    5    5    0    0  0.46593699510E+03 -0.41775016101E+03  0.81515567610E+03  0.10276630074E+04  0.00000000000E+00 0. -1.
          1    1    6    6  503    0 -0.11437628935E+03 -0.92899360123E+02  0.24085908399E+03  0.28235673362E+03  0.00000000000E+00 0. -1.
         -1    1    6    6    0  503 -0.32753384581E+01 -0.24677084672E+02 -0.12349323566E+01  0.24924112980E+02  0.00000000000E+00 0.  1.
<mgrwt>
<rscale>  0 0.96606359E+03</rscale>
<asrwt>0</asrwt>
<pdfrwt beam="1">  1        2 0.34058679E+00 0.96606359E+03</pdfrwt>
<pdfrwt beam="2">  1       -2 0.71429160E-01 0.96606359E+03</pdfrwt>
<totfact> 0.91110953E+00</totfact>
</mgrwt>
</event>
<event>
12    1  0.1338445E-007  0.1219220E+04  0.7818608E-02  0.9096198E-01
         -1   -1    0    0    0  501 -0.00000000000E+00  0.00000000000E+00  0.15387607806E+04  0.15387607806E+04  0.00000000000E+00 0.  1.
          1   -1    0    0  501    0  0.00000000000E+00 -0.00000000000E+00 -0.13255935137E+04  0.13255935137E+04  0.00000000000E+00 0. -1.
         23    2    1    2    0    0 -0.79959882281E+03 -0.91553221548E+03 -0.51757390898E+03  0.13243949182E+04  0.92637104707E+02 0.  0.
    5000000    2    1    2    0    0  0.79959882281E+03  0.91553221548E+03  0.73074117582E+03  0.15399593761E+04  0.59994557996E+03 0.  0.
         23    2    4    4    0    0  0.49877085400E+03  0.62955625812E+03  0.76576286922E+03  0.11134193667E+04  0.90534343867E+02 0.  0.
         23    2    4    4    0    0  0.30082796882E+03  0.28597595736E+03 -0.35021693392E+02  0.42654000934E+03  0.91815824095E+02 0.  0.
          3    1    3    3  502    0 -0.51614005606E+03 -0.57082180101E+03 -0.28090184034E+03  0.81923374557E+03  0.00000000000E+00 0. -1.
         -3    1    3    3    0  502 -0.28345876675E+03 -0.34471041447E+03 -0.23667206864E+03  0.50516117266E+03  0.00000000000E+00 0.  1.
         11    1    5    5    0    0  0.31437874379E+03  0.34861835521E+03  0.49147987085E+03  0.67964786146E+03  0.00000000000E+00 0. -1.
        -11    1    5    5    0    0  0.18439211021E+03  0.28093790290E+03  0.27428299837E+03  0.43377150527E+03  0.00000000000E+00 0.  1.
          4    1    6    6  503    0  0.11582779194E+03  0.83193179462E+02 -0.51327123755E+02  0.15156403310E+03  0.00000000000E+00 0. -1.
         -4    1    6    6    0  503  0.18500017687E+03  0.20278277790E+03  0.16305430363E+02  0.27497597625E+03  0.00000000000E+00 0.  1.
<mgrwt>
<rscale>  0 0.12192200E+04</rscale>
<asrwt>0</asrwt>
<pdfrwt beam="1">  1        1 0.20393746E+00 0.12192200E+04</pdfrwt>
<pdfrwt beam="2">  1       -1 0.23673243E+00 0.12192200E+04</pdfrwt>
<totfact> 0.72270063E-01</totfact>
</mgrwt>
</event>
<event>
12    1  0.1338445E-007  0.1022505E+04  0.7818608E-02  0.9284200E-01
         -2   -1    0    0    0  501 -0.00000000000E+00  0.00000000000E+00  0.12887041836E+04  0.12887041836E+04  0.00000000000E+00 0.  1.
          2   -1    0    0  501    0  0.00000000000E+00 -0.00000000000E+00 -0.84902531115E+03  0.84902531115E+03  0.00000000000E+00 0. -1.
         23    2    1    2    0    0  0.87393948430E+03  0.34729667782E+03  0.38617351566E+03  0.10209051547E+04  0.93445952085E+02 0.  0.
    5000000    2    1    2    0    0 -0.87393948430E+03 -0.34729667782E+03  0.53505356818E+02  0.11168243401E+04  0.60004048102E+03 0.  0.
         23    2    4    4    0    0 -0.62763424181E+02  0.12597363958E+03 -0.28446891917E+02  0.17010741198E+03  0.91206911290E+02 0.  0.
         23    2    4    4    0    0 -0.81117606012E+03 -0.47327031739E+03  0.81952248735E+02  0.94671692815E+03  0.86979176485E+02 0.  0.
          3    1    3    3  502    0  0.93499276950E+02  0.61290932607E+02  0.68244693896E+02  0.13098103471E+03  0.00000000000E+00 0. -1.
         -3    1    3    3    0  502  0.78044020735E+03  0.28600574521E+03  0.31792882177E+03  0.88992411994E+03  0.00000000000E+00 0.  1.
         11    1    5    5    0    0 -0.75959936003E+02  0.12421240043E+03 -0.81394134196E+01  0.14582483447E+03  0.00000000000E+00 0.  1.
        -11    1    5    5    0    0  0.13196511821E+02  0.17612391516E+01 -0.20307478497E+02  0.24282577510E+02  0.00000000000E+00 0. -1.
          1    1    6    6  503    0 -0.60213513248E+03 -0.30627875639E+03  0.63377413270E+02  0.67852051619E+03  0.00000000000E+00 0. -1.
         -1    1    6    6    0  503 -0.20904092763E+03 -0.16699156101E+03  0.18574835464E+02  0.26819641196E+03  0.00000000000E+00 0.  1.
<mgrwt>
<rscale>  0 0.10225054E+04</rscale>
<asrwt>0</asrwt>
<pdfrwt beam="1">  1        2 0.13061928E+00 0.10225054E+04</pdfrwt>
<pdfrwt beam="2">  1       -2 0.19826218E+00 0.10225054E+04</pdfrwt>
<totfact> 0.42985498E+00</totfact>
</mgrwt>
</event>
<event>
12    1  0.1338445E-007  0.2446097E+04  0.7818608E-02  0.8422444E-01
          1   -1    0    0  501    0  0.00000000000E+00  0.00000000000E+00  0.25195412334E+04  0.25195412334E+04  0.00000000000E+00 0. -1.
         -1   -1    0    0    0  501 -0.00000000000E+00 -0.00000000000E+00 -0.31693327589E+04  0.31693327589E+04  0.00000000000E+00 0.  1.
         23    2    1    2    0    0 -0.24226130789E+04  0.17657734705E+03  0.10672046716E+04  0.26543295854E+04  0.79410623560E+02 0.  0.
    5000000    2    1    2    0    0  0.24226130789E+04 -0.17657734705E+03 -0.17169961970E+04  0.30345444068E+04  0.60012509253E+03 0.  0.
         23    2    4    4    0    0  0.19832192150E+04 -0.29452845893E+03 -0.11931427573E+04  0.23348991489E+04  0.90878648870E+02 0.  0.
         23    2    4    4    0    0  0.43939386399E+03  0.11795111187E+03 -0.52385343979E+03  0.69964525791E+03  0.90009044194E+02 0.  0.
          4    1    3    3  502    0 -0.20573018650E+04  0.17035157488E+03  0.88491719886E+03  0.22460162670E+04  0.00000000000E+00 0. -1.
         -4    1    3    3    0  502 -0.36531121394E+03  0.62257721707E+01  0.18228747272E+03  0.40831331839E+03  0.00000000000E+00 0.  1.
         13    1    5    5    0    0  0.74421384336E+03 -0.13723536589E+03 -0.49137361889E+03  0.90229475430E+03  0.00000000000E+00 0.  1.
        -13    1    5    5    0    0  0.12390053716E+04 -0.15729309303E+03 -0.70176913837E+03  0.14326043946E+04  0.00000000000E+00 0. -1.
          1    1    6    6  503    0  0.68704715450E+02  0.34189676218E+02 -0.47434357540E+02  0.90218014610E+02  0.00000000000E+00 0. -1.
         -1    1    6    6    0  503  0.37068914854E+03  0.83761435655E+02 -0.47641908225E+03  0.60942724330E+03  0.00000000000E+00 0.  1.
<mgrwt>
<rscale>  0 0.24460972E+04</rscale>
<asrwt>0</asrwt>
<pdfrwt beam="1">  1        1 0.38762173E+00 0.24460972E+04</pdfrwt>
<pdfrwt beam="2">  1       -1 0.48758965E+00 0.24460972E+04</pdfrwt>
<totfact> 0.19701316E-03</totfact>
</mgrwt>
</event>
<event>
12    1  0.1338445E-007  0.1441984E+04  0.7818608E-02  0.8923977E-01
          2   -1    0    0  501    0  0.00000000000E+00  0.00000000000E+00  0.84457640387E+03  0.84457640387E+03  0.00000000000E+00 0. -1.
         -2   -1    0    0    0  501 -0.00000000000E+00 -0.00000000000E+00 -0.25925838254E+04  0.25925838254E+04  0.00000000000E+00 0.  1.
         23    2    1    2    0    0 -0.10839117945E+04  0.86260828410E+03 -0.49036314042E+03  0.14723248612E+04  0.91250518662E+02 0.  0.
    5000000    2    1    2    0    0  0.10839117945E+04 -0.86260828410E+03 -0.12576442811E+04  0.19648353681E+04  0.59995921181E+03 0.  0.
         23    2    4    4    0    0  0.52634496317E+03 -0.76060372938E+03 -0.69137395407E+03  0.11584213573E+04  0.91569882038E+02 0.  0.
         23    2    4    4    0    0  0.55756683136E+03 -0.10200455473E+03 -0.56627032703E+03  0.80641401080E+03  0.91409916954E+02 0.  0.
          1    1    3    3  502    0 -0.63001090773E+03  0.44527380427E+03 -0.26051814937E+03  0.81428017953E+03  0.00000000000E+00 0. -1.
         -1    1    3    3    0  502 -0.45390088680E+03  0.41733447984E+03 -0.22984499106E+03  0.65804468162E+03  0.00000000000E+00 0.  1.
         11    1    5    5    0    0  0.47830008313E+03 -0.63937190406E+03 -0.57950355389E+03  0.98660618800E+03  0.00000000000E+00 0. -1.
        -11    1    5    5    0    0  0.48044880041E+02 -0.12123182531E+03 -0.11187040018E+03  0.17181516931E+03  0.00000000000E+00 0.  1.
          2    1    6    6  503    0  0.88978595862E+02 -0.21683261918E+02 -0.49061237492E+02  0.10389590653E+03  0.00000000000E+00 0. -1.
         -2    1    6    6    0  503  0.46858823550E+03 -0.80321292808E+02 -0.51720908954E+03  0.70251810427E+03  0.00000000000E+00 0.  1.
<mgrwt>
<rscale>  0 0.14419838E+04</rscale>
<asrwt>0</asrwt>
<pdfrwt beam="1">  1        2 0.12993483E+00 0.14419838E+04</pdfrwt>
<pdfrwt beam="2">  1       -2 0.39885905E+00 0.14419838E+04</pdfrwt>
<totfact> 0.23189086E-01</totfact>
</mgrwt>
</event>
<event>
12    1  0.1338445E-007  0.1128699E+04  0.7818608E-02  0.9177662E-01
         -2   -1    0    0    0  501 -0.00000000000E+00  0.00000000000E+00  0.12813242181E+04  0.12813242181E+04  0.00000000000E+00 0.  1.
          2   -1    0    0  501    0  0.00000000000E+00 -0.00000000000E+00 -0.35598754452E+04  0.35598754452E+04  0.00000000000E+00 0. -1.
         23    2    1    2    0    0  0.70063255487E+03  0.78950414801E+03 -0.31651369069E+04  0.33378147302E+04  0.93342147589E+02 0.  0.
    5000000    2    1    2    0    0 -0.70063255487E+03 -0.78950414801E+03  0.88658567988E+03  0.15033849331E+04  0.59994109099E+03 0.  0.
         23    2    4    4    0    0  0.70232034784E+02 -0.17523050897E+03  0.24943504102E+03  0.32615134686E+03  0.92296215467E+02 0.  0.
         23    2    4    4    0    0 -0.77086458965E+03 -0.61427363905E+03  0.63715063886E+03  0.11772335862E+04  0.91398363102E+02 0.  0.
          3    1    3    3  502    0  0.48914643786E+03  0.61179821788E+03 -0.23158763787E+04  0.24447586176E+04  0.00000000000E+00 0. -1.
         -3    1    3    3    0  502  0.21148611701E+03  0.17770593014E+03 -0.84926052826E+03  0.89305611255E+03  0.00000000000E+00 0.  1.
         11    1    5    5    0    0  0.35361444407E+02 -0.17122110799E+03  0.20225258687E+03  0.26734473712E+03  0.00000000000E+00 0. -1.
        -11    1    5    5    0    0  0.34870590377E+02 -0.40094009749E+01  0.47182454148E+02  0.58806609737E+02  0.00000000000E+00 0.  1.
          4    1    6    6  503    0 -0.18065510635E+03 -0.18124070301E+03  0.19828383827E+03  0.32372973356E+03  0.00000000000E+00 0. -1.
         -4    1    6    6    0  503 -0.59020948331E+03 -0.43303293604E+03  0.43886680059E+03  0.85350385268E+03  0.00000000000E+00 0.  1.
<mgrwt>
<rscale>  0 0.11286993E+04</rscale>
<asrwt>0</asrwt>
<pdfrwt beam="1">  1        2 0.54767313E+00 0.11286993E+04</pdfrwt>
<pdfrwt beam="2">  1       -2 0.19712681E+00 0.11286993E+04</pdfrwt>
<totfact> 0.10320083E-01</totfact>
</mgrwt>
</event>
<event>
12    1  0.1338445E-007  0.7397956E+03  0.7818608E-02  0.9651497E-01
         -1   -1    0    0    0  501 -0.00000000000E+00  0.00000000000E+00  0.48396253276E+03  0.48396253276E+03  0.00000000000E+00 0.  1.
          1   -1    0    0  501    0  0.00000000000E+00 -0.00000000000E+00 -0.23065215988E+04  0.23065215988E+04  0.00000000000E+00 0. -1.
         23    2    1    2    0    0  0.60513674398E+03  0.18579507972E+03 -0.18083679626E+04  0.19181831466E+04  0.92312542189E+02 0.  0.
    5000000    2    1    2    0    0 -0.60513674398E+03 -0.18579507972E+03 -0.14191103499E+02  0.87230098495E+03  0.59999777530E+03 0.  0.
         23    2    4    4    0    0 -0.65262346421E+03 -0.29243327492E+03 -0.43977305526E+02  0.72227562727E+03  0.91178243137E+02 0.  0.
         23    2    4    4    0    0  0.47486720239E+02  0.10663819520E+03  0.29786202027E+02  0.15002535768E+03  0.89407476428E+02 0.  0.
          3    1    3    3  502    0  0.28601279384E+03  0.10505315465E+03 -0.74072405886E+03  0.80094420212E+03  0.00000000000E+00 0.  1.
         -3    1    3    3    0  502  0.31912395014E+03  0.80741925075E+02 -0.10676439037E+04  0.11172389445E+04  0.00000000000E+00 0. -1.
         13    1    5    5    0    0 -0.37660156908E+03 -0.21379431169E+03 -0.43855297899E+02  0.43527007328E+03  0.00000000000E+00 0. -1.
        -13    1    5    5    0    0 -0.27602189514E+03 -0.78638963234E+02 -0.12200762714E+00  0.28700555399E+03  0.00000000000E+00 0.  1.
          2    1    6    6  503    0  0.38090037664E+02  0.30114684037E+02 -0.25793201468E+02  0.54982128058E+02  0.00000000000E+00 0. -1.
         -2    1    6    6    0  503  0.93966825754E+01  0.76523511164E+02  0.55579403494E+02  0.95043229622E+02  0.00000000000E+00 0.  1.
<mgrwt>
<rscale>  0 0.73979555E+03</rscale>
<asrwt>0</asrwt>
<pdfrwt beam="1">  1        1 0.35484948E+00 0.73979555E+03</pdfrwt>
<pdfrwt beam="2">  1       -1 0.74455775E-01 0.73979555E+03</pdfrwt>
<totfact> 0.35422425E+00</totfact>
</mgrwt>
</event>
<event>
12    1  0.1338445E-007  0.6783568E+03  0.7818608E-02  0.9754978E-01
          2   -1    0    0  501    0  0.00000000000E+00  0.00000000000E+00  0.20417158311E+04  0.20417158311E+04  0.00000000000E+00 0. -1.
         -2   -1    0    0    0  501 -0.00000000000E+00 -0.00000000000E+00 -0.26995395031E+03  0.26995395031E+03  0.00000000000E+00 0.  1.
         23    2    1    2    0    0 -0.21766636344E+03 -0.56473545954E+03  0.55832736497E+03  0.82876156125E+03  0.93869557899E+02 0.  0.
    5000000    2    1    2    0    0  0.21766636344E+03  0.56473545954E+03  0.12134345158E+04  0.14829082202E+04  0.60024051863E+03 0.  0.
         23    2    4    4    0    0  0.16771714451E+03  0.15216290888E+02  0.69003698989E+03  0.71600494584E+03  0.90285430607E+02 0.  0.
         23    2    4    4    0    0  0.49949218923E+02  0.54951916865E+03  0.52339752594E+03  0.76690327433E+03  0.98637826564E+02 0.  0.
          4    1    3    3  502    0 -0.18305289691E+03 -0.53588183769E+03  0.50314405906E+03  0.75751676629E+03  0.00000000000E+00 0. -1.
         -4    1    3    3    0  502 -0.34613466529E+02 -0.28853621848E+02  0.55183305902E+02  0.71244794962E+02  0.00000000000E+00 0.  1.
         11    1    5    5    0    0  0.40139319623E+02  0.38110818936E+02  0.13243036178E+03  0.14353187876E+03  0.00000000000E+00 0.  1.
        -11    1    5    5    0    0  0.12757782489E+03 -0.22894528048E+02  0.55760662811E+03  0.57247306708E+03  0.00000000000E+00 0. -1.
          3    1    6    6  503    0 -0.60432984066E+01  0.41029605096E+03  0.39050966635E+03  0.56646021078E+03  0.00000000000E+00 0. -1.
         -3    1    6    6    0  503  0.55992517330E+02  0.13922311769E+03  0.13288785960E+03  0.20044306355E+03  0.00000000000E+00 0.  1.
<mgrwt>
<rscale>  0 0.67835676E+03</rscale>
<asrwt>0</asrwt>
<pdfrwt beam="1">  1        2 0.31411012E+00 0.67835676E+03</pdfrwt>
<pdfrwt beam="2">  1       -2 0.41531378E-01 0.67835676E+03</pdfrwt>
<totfact> 0.36266492E+01</totfact>
</mgrwt>
</event>
<event>
12    1  0.1338445E-007  0.3750380E+03  0.7818608E-02  0.1052783E+00
         -1   -1    0    0    0  501 -0.00000000000E+00  0.00000000000E+00  0.48027912559E+03  0.48027912559E+03  0.00000000000E+00 0.  1.
          1   -1    0    0  501    0  0.00000000000E+00 -0.00000000000E+00 -0.64913555104E+03  0.64913555104E+03  0.00000000000E+00 0. -1.
         23    2    1    2    0    0  0.23436008831E+03  0.22452988458E+03 -0.27968332202E+03  0.43819443444E+03  0.91941729876E+02 0.  0.
    5000000    2    1    2    0    0 -0.23436008831E+03 -0.22452988458E+03  0.11082689657E+03  0.69122024219E+03  0.60013706947E+03 0.  0.
         23    2    4    4    0    0 -0.71658433464E+02  0.24265209247E+02  0.30297578970E+03  0.32814062248E+03  0.10078793335E+03 0.  0.
         23    2    4    4    0    0 -0.16270165485E+03 -0.24879509383E+03 -0.19214889313E+03  0.36307961971E+03  0.80838022717E+02 0.  0.
          1    1    3    3  502    0  0.27534296858E+02  0.61299808205E+00 -0.52506132960E+01  0.28037157668E+02  0.00000000000E+00 0. -1.
         -1    1    3    3    0  502  0.20682579146E+03  0.22391688650E+03 -0.27443270872E+03  0.41015727677E+03  0.00000000000E+00 0.  1.
         13    1    5    5    0    0 -0.46560243616E+01 -0.28840929793E+02  0.15069717625E+03  0.15350282318E+03  0.00000000000E+00 0. -1.
        -13    1    5    5    0    0 -0.67002409103E+02  0.53106139040E+02  0.15227861346E+03  0.17463779930E+03  0.00000000000E+00 0.  1.
          1    1    6    6  503    0 -0.78929422091E+02 -0.17248115636E+03 -0.15125463704E+03  0.24260578764E+03  0.00000000000E+00 0. -1.
         -1    1    6    6    0  503 -0.83772232758E+02 -0.76313937468E+02 -0.40894256092E+02  0.12047383207E+03  0.00000000000E+00 0.  1.
<mgrwt>
<rscale>  0 0.37503800E+03</rscale>
<asrwt>0</asrwt>
<pdfrwt beam="1">  1        1 0.99867008E-01 0.37503800E+03</pdfrwt>
<pdfrwt beam="2">  1       -1 0.73889096E-01 0.37503800E+03</pdfrwt>
<totfact> 0.60088945E+01</totfact>
</mgrwt>
</event>
<event>
12    1  0.1338445E-007  0.1104601E+04  0.7818608E-02  0.9200719E-01
          2   -1    0    0  501    0  0.00000000000E+00  0.00000000000E+00  0.25965723750E+04  0.25965723750E+04  0.00000000000E+00 0. -1.
         -2   -1    0    0    0  501 -0.00000000000E+00 -0.00000000000E+00 -0.51272661219E+03  0.51272661219E+03  0.00000000000E+00 0.  1.
         23    2    1    2    0    0  0.46499113860E+03  0.95412757808E+03  0.75427923438E+03  0.13054036166E+04  0.92548606001E+02 0.  0.
    5000000    2    1    2    0    0 -0.46499113860E+03 -0.95412757808E+03  0.13295665285E+04  0.18038953707E+04  0.59976258676E+03 0.  0.
         23    2    4    4    0    0 -0.52609076816E+03 -0.76419722001E+03  0.12719891174E+04  0.15772721514E+04  0.95195784147E+02 0.  0.
         23    2    4    4    0    0  0.61099629562E+02 -0.18993035807E+03  0.57577411090E+02  0.22662321931E+03  0.90753620386E+02 0.  0.
          2    1    3    3  502    0  0.84145022288E+02  0.22019717171E+03  0.20809388470E+03  0.31443639111E+03  0.00000000000E+00 0. -1.
         -2    1    3    3    0  502  0.38084611631E+03  0.73393040637E+03  0.54618534969E+03  0.99096722545E+03  0.00000000000E+00 0.  1.
         13    1    5    5    0    0 -0.16945270167E+03 -0.22397451014E+03  0.45818139888E+03  0.53740952129E+03  0.00000000000E+00 0.  1.
        -13    1    5    5    0    0 -0.35663806649E+03 -0.54022270987E+03  0.81380771850E+03  0.10398626301E+04  0.00000000000E+00 0. -1.
          1    1    6    6  503    0  0.28066276362E+02 -0.18240904906E+03  0.55324479143E+02  0.19266960072E+03  0.00000000000E+00 0. -1.
         -1    1    6    6    0  503  0.33033353200E+02 -0.75213090022E+01  0.22529319475E+01  0.33953618586E+02  0.00000000000E+00 0.  1.
<mgrwt>
<rscale>  0 0.11046007E+04</rscale>
<asrwt>0</asrwt>
<pdfrwt beam="1">  1        2 0.39947266E+00 0.11046007E+04</pdfrwt>
<pdfrwt beam="2">  1       -2 0.78881019E-01 0.11046007E+04</pdfrwt>
<totfact> 0.43566157E+00</totfact>
</mgrwt>
</event>
<event>
12    1  0.1338445E-007  0.9386978E+03  0.7818608E-02  0.9378460E-01
         -2   -1    0    0    0  501 -0.00000000000E+00  0.00000000000E+00  0.41899830907E+03  0.41899830907E+03  0.00000000000E+00 0. -1.
          2   -1    0    0  501    0  0.00000000000E+00 -0.00000000000E+00 -0.25899557321E+04  0.25899557321E+04  0.00000000000E+00 0.  1.
         23    2    1    2    0    0 -0.74008814594E+03 -0.56819341869E+03 -0.71781429477E+03  0.11807917510E+04  0.91856260959E+02 0.  0.
    5000000    2    1    2    0    0  0.74008814594E+03  0.56819341869E+03 -0.14531431282E+04  0.18281622901E+04  0.59998181900E+03 0.  0.
         23    2    4    4    0    0  0.17284629969E+03  0.13636863663E+03 -0.87189083154E+03  0.90393696127E+03  0.91848567978E+02 0.  0.
         23    2    4    4    0    0  0.56724184626E+03  0.43182478206E+03 -0.58125229669E+03  0.92422532887E+03  0.90012618927E+02 0.  0.
          1    1    3    3  502    0 -0.67189596047E+03 -0.52178018684E+03 -0.61900808122E+03  0.10520787754E+04  0.00000000000E+00 0. -1.
         -1    1    3    3    0  502 -0.68192185475E+02 -0.46413231858E+02 -0.98806213546E+02  0.12871297560E+03  0.00000000000E+00 0.  1.
         11    1    5    5    0    0  0.14004603520E+03  0.82422045309E+02 -0.47430916371E+03  0.50137358158E+03  0.00000000000E+00 0. -1.
        -11    1    5    5    0    0  0.32800264490E+02  0.53946591320E+02 -0.39758166784E+03  0.40256337969E+03  0.00000000000E+00 0.  1.
          1    1    6    6  503    0  0.60992456539E+02  0.86160838134E+02 -0.85103521476E+02  0.13559638325E+03  0.00000000000E+00 0. -1.
         -1    1    6    6    0  503  0.50624938972E+03  0.34566394393E+03 -0.49614877521E+03  0.78862894562E+03  0.00000000000E+00 0.  1.
<mgrwt>
<rscale>  0 0.93869777E+03</rscale>
<asrwt>0</asrwt>
<pdfrwt beam="1">  1        2 0.39845474E+00 0.93869777E+03</pdfrwt>
<pdfrwt beam="2">  1       -2 0.64461277E-01 0.93869777E+03</pdfrwt>
<totfact> 0.70044744E+00</totfact>
</mgrwt>
</event>
<event>
12    1  0.1338445E-007  0.6612565E+03  0.7818608E-02  0.9785884E-01
         -1   -1    0    0    0  501 -0.00000000000E+00  0.00000000000E+00  0.11468934087E+04  0.11468934087E+04  0.00000000000E+00 0.  1.
          1   -1    0    0  501    0  0.00000000000E+00 -0.00000000000E+00 -0.12837804510E+04  0.12837804510E+04  0.00000000000E+00 0. -1.
         23    2    1    2    0    0  0.41202792566E+03 -0.49275444204E+03 -0.10038592433E+04  0.11961261620E+04  0.10203167895E+03 0.  0.
    5000000    2    1    2    0    0 -0.41202792566E+03  0.49275444204E+03  0.86697220102E+03  0.12345476977E+04  0.59991105074E+03 0.  0.
         23    2    4    4    0    0 -0.35935445932E+03  0.46178381077E+03  0.93381106244E+03  0.11056356732E+04  0.89706333024E+02 0.  0.
         23    2    4    4    0    0 -0.52673466334E+02  0.30970631263E+02 -0.66838861425E+02  0.12891202446E+03  0.91745313763E+02 0.  0.
          3    1    3    3  502    0  0.28746595015E+03 -0.26606414635E+03 -0.60880465072E+03  0.72392672641E+03  0.00000000000E+00 0. -1.
         -3    1    3    3    0  502  0.12456197551E+03 -0.22669029569E+03 -0.39505459254E+03  0.47219943561E+03  0.00000000000E+00 0.  1.
         13    1    5    5    0    0 -0.14452123552E+03  0.25704371772E+03  0.48341659055E+03  0.56625918125E+03  0.00000000000E+00 0. -1.
        -13    1    5    5    0    0 -0.21483322380E+03  0.20474009305E+03  0.45039447189E+03  0.53937649195E+03  0.00000000000E+00 0.  1.
          3    1    6    6  503    0 -0.57529473052E+02  0.92783639713E+01  0.21111788601E+00  0.58273260406E+02  0.00000000000E+00 0. -1.
         -3    1    6    6    0  503  0.48560067179E+01  0.21692267292E+02 -0.67049979311E+02  0.70638764055E+02  0.00000000000E+00 0.  1.
<mgrwt>
<rscale>  0 0.66125647E+03</rscale>
<asrwt>0</asrwt>
<pdfrwt beam="1">  1        1 0.19750468E+00 0.66125647E+03</pdfrwt>
<pdfrwt beam="2">  1       -1 0.17644514E+00 0.66125647E+03</pdfrwt>
<totfact> 0.21808247E+00</totfact>
</mgrwt>
</event>
<event>
12    1  0.1338445E-007  0.9202162E+03  0.7818608E-02  0.9400657E-01
         -2   -1    0    0    0  501 -0.00000000000E+00  0.00000000000E+00  0.77389504609E+03  0.77389504609E+03  0.00000000000E+00 0. -1.
          2   -1    0    0  501    0  0.00000000000E+00 -0.00000000000E+00 -0.11273855897E+04  0.11273855897E+04  0.00000000000E+00 0.  1.
         23    2    1    2    0    0  0.74572842262E+03 -0.35102581500E+03 -0.22695817968E+02  0.82945558395E+03  0.90285450104E+02 0.  0.
    5000000    2    1    2    0    0 -0.74572842262E+03  0.35102581500E+03 -0.33079472560E+03  0.10718250518E+04  0.60004482173E+03 0.  0.
         23    2    4    4    0    0 -0.70315862882E+02  0.31147856450E+03 -0.15625283764E+03  0.36720497575E+03  0.91985478361E+02 0.  0.
         23    2    4    4    0    0 -0.67541255974E+03  0.39547250498E+02 -0.17454188796E+03  0.70462007605E+03  0.90986098124E+02 0.  0.
          3    1    3    3  502    0  0.70545337731E+03 -0.31087384863E+03 -0.90292949221E+01  0.77096598205E+03  0.00000000000E+00 0. -1.
         -3    1    3    3    0  502  0.40275045309E+02 -0.40151966370E+02 -0.13666523046E+02  0.58489601899E+02  0.00000000000E+00 0.  1.
         11    1    5    5    0    0  0.22306135692E+02  0.54018876584E+02 -0.32950471066E+02  0.67091998482E+02  0.00000000000E+00 0. -1.
        -11    1    5    5    0    0 -0.92621998574E+02  0.25745968791E+03 -0.12330236657E+03  0.30011297727E+03  0.00000000000E+00 0.  1.
          2    1    6    6  503    0 -0.52436366052E+03 -0.34643799077E+00 -0.11111509268E+03  0.53600739949E+03  0.00000000000E+00 0. -1.
         -2    1    6    6    0  503 -0.15104889922E+03  0.39893688489E+02 -0.63426795286E+02  0.16861267656E+03  0.00000000000E+00 0.  1.
<mgrwt>
<rscale>  0 0.92021617E+03</rscale>
<asrwt>0</asrwt>
<pdfrwt beam="1">  1        2 0.17344394E+00 0.92021617E+03</pdfrwt>
<pdfrwt beam="2">  1       -2 0.11906078E+00 0.92021617E+03</pdfrwt>
<totfact> 0.11348648E+01</totfact>
</mgrwt>
</event>
<event>
12    1  0.2208126E-007  0.9144093E+03  0.7818608E-02  0.9407746E-01
         -1   -1    0    0    0  501 -0.00000000000E+00  0.00000000000E+00  0.66715810770E+03  0.66715810770E+03  0.00000000000E+00 0.  1.
          1   -1    0    0  501    0  0.00000000000E+00 -0.00000000000E+00 -0.12844652679E+04  0.12844652679E+04  0.00000000000E+00 0. -1.
         23    2    1    2    0    0  0.82275590773E+03 -0.61729626520E+02 -0.24341960046E+03  0.86505762496E+03  0.91289441385E+02 0.  0.
    5000000    2    1    2    0    0 -0.82275590773E+03  0.61729626520E+02 -0.37388755977E+03  0.10865657507E+04  0.60007948864E+03 0.  0.
         23    2    4    4    0    0 -0.40064056918E+03  0.30565388844E+03 -0.27407490046E+03  0.58094590078E+03  0.91890823156E+02 0.  0.
         23    2    4    4    0    0 -0.42211533855E+03 -0.24392426192E+03 -0.99812659315E+02  0.50561984990E+03  0.89490005336E+02 0.  0.
          3    1    3    3  502    0  0.36633299101E+03 -0.66004861818E+02 -0.84149674055E+02  0.38162503813E+03  0.00000000000E+00 0. -1.
         -3    1    3    3    0  502  0.45642291673E+03  0.42752352980E+01 -0.15926992641E+03  0.48343258683E+03  0.00000000000E+00 0.  1.
         11    1    5    5    0    0 -0.69440971893E+02  0.10038230194E+03 -0.76659563241E+02  0.14413654553E+03  0.00000000000E+00 0.  1.
        -11    1    5    5    0    0 -0.33119959729E+03  0.20527158650E+03 -0.19741533722E+03  0.43680935525E+03  0.00000000000E+00 0. -1.
          1    1    6    6  503    0 -0.29033814564E+03 -0.15163953833E+03 -0.25899479884E+02  0.32857506214E+03  0.00000000000E+00 0. -1.
         -1    1    6    6    0  503 -0.13177719291E+03 -0.92284723584E+02 -0.73913179432E+02  0.17704478776E+03  0.00000000000E+00 0.  1.
<mgrwt>
<rscale>  0 0.91440929E+03</rscale>
<asrwt>0</asrwt>
<pdfrwt beam="1">  1        1 0.19761004E+00 0.91440929E+03</pdfrwt>
<pdfrwt beam="2">  1       -1 0.10263971E+00 0.91440929E+03</pdfrwt>
<totfact> 0.84455284E+00</totfact>
</mgrwt>
</event>
<event>
12    1  0.1338445E-007  0.5017526E+03  0.7818608E-02  0.1013322E+00
         -2   -1    0    0    0  501 -0.00000000000E+00  0.00000000000E+00  0.21859540535E+03  0.21859540535E+03  0.00000000000E+00 0.  1.
          2   -1    0    0  501    0  0.00000000000E+00 -0.00000000000E+00 -0.13428479884E+04  0.13428479884E+04  0.00000000000E+00 0. -1.
         23    2    1    2    0    0 -0.33753446543E+03 -0.11380633586E+03 -0.25841006367E+03  0.44941568639E+03  0.91199236486E+02 0.  0.
    5000000    2    1    2    0    0  0.33753446543E+03  0.11380633586E+03 -0.86584251935E+03  0.11120277073E+04  0.60003412912E+03 0.  0.
         23    2    4    4    0    0  0.34155439140E+03 -0.14894192309E+03 -0.66929338153E+03  0.77139171727E+03  0.90820989709E+02 0.  0.
         23    2    4    4    0    0 -0.40199259764E+01  0.26274825894E+03 -0.19654913782E+03  0.34063599005E+03  0.91370163404E+02 0.  0.
          3    1    3    3  502    0 -0.59290065224E+02 -0.49203396156E+02 -0.26486829122E+02  0.81472928906E+02  0.00000000000E+00 0. -1.
         -3    1    3    3    0  502 -0.27824440020E+03 -0.64602939700E+02 -0.23192323455E+03  0.36794275748E+03  0.00000000000E+00 0.  1.
         13    1    5    5    0    0  0.58120472863E+02 -0.11249546021E+02 -0.17931735378E+03  0.18883658284E+03  0.00000000000E+00 0.  1.
        -13    1    5    5    0    0  0.28343391854E+03 -0.13769237707E+03 -0.48997602775E+03  0.58255513443E+03  0.00000000000E+00 0. -1.
          3    1    6    6  503    0  0.19114140229E+02  0.16251727560E+03 -0.71130751083E+02  0.17842869437E+03  0.00000000000E+00 0. -1.
         -3    1    6    6    0  503 -0.23134066206E+02  0.10023098334E+03 -0.12541838674E+03  0.16220729568E+03  0.00000000000E+00 0.  1.
<mgrwt>
<rscale>  0 0.50175261E+03</rscale>
<asrwt>0</asrwt>
<pdfrwt beam="1">  1        2 0.20659200E+00 0.50175261E+03</pdfrwt>
<pdfrwt beam="2">  1       -2 0.33630062E-01 0.50175261E+03</pdfrwt>
<totfact> 0.13415062E+02</totfact>
</mgrwt>
</event>
<event>
12    1  0.1338445E-007  0.4393412E+03  0.7818608E-02  0.1030949E+00
          1   -1    0    0  501    0  0.00000000000E+00  0.00000000000E+00  0.10673412519E+04  0.10673412519E+04  0.00000000000E+00 0. -1.
         -1   -1    0    0    0  501 -0.00000000000E+00 -0.00000000000E+00 -0.22750413286E+03  0.22750413286E+03  0.00000000000E+00 0.  1.
         23    2    1    2    0    0 -0.23668341965E+03 -0.23006463971E+02  0.50906395666E+03  0.56962091964E+03  0.93667185287E+02 0.  0.
    5000000    2    1    2    0    0  0.23668341965E+03  0.23006463971E+02  0.33077316242E+03  0.72522446516E+03  0.59999275109E+03 0.  0.
         23    2    4    4    0    0 -0.17069490114E+03  0.10333750110E+03  0.13097950492E+03  0.25553872395E+03  0.91263466522E+02 0.  0.
         23    2    4    4    0    0  0.40737832079E+03 -0.80331037129E+02  0.19979365750E+03  0.46968574120E+03  0.90978118986E+02 0.  0.
          1    1    3    3  502    0 -0.18464154396E+03 -0.42474361008E+02  0.45136827269E+03  0.48952005954E+03  0.00000000000E+00 0. -1.
         -1    1    3    3    0  502 -0.52041875690E+02  0.19467897037E+02  0.57695683973E+02  0.80100860104E+02  0.00000000000E+00 0.  1.
         11    1    5    5    0    0 -0.91662285195E+01  0.34024582163E+02 -0.17517975994E+01  0.35281166810E+02  0.00000000000E+00 0. -1.
        -11    1    5    5    0    0 -0.16152867262E+03  0.69312918937E+02  0.13273130252E+03  0.22025755714E+03  0.00000000000E+00 0.  1.
          3    1    6    6  503    0  0.25218827546E+03 -0.10335268278E+02  0.94500678864E+02  0.26951089468E+03  0.00000000000E+00 0. -1.
         -3    1    6    6    0  503  0.15519004534E+03 -0.69995768851E+02  0.10529297864E+03  0.20017484652E+03  0.00000000000E+00 0.  1.
<mgrwt>
<rscale>  0 0.43934124E+03</rscale>
<asrwt>0</asrwt>
<pdfrwt beam="1">  1        1 0.16420634E+00 0.43934124E+03</pdfrwt>
<pdfrwt beam="2">  1       -1 0.35000636E-01 0.43934124E+03</pdfrwt>
<totfact> 0.10961218E+02</totfact>
</mgrwt>
</event>
<event>
12    1  0.1338445E-007  0.5516957E+03  0.7818608E-02  0.1001102E+00
         -2   -1    0    0    0  501 -0.00000000000E+00  0.00000000000E+00  0.58041553755E+03  0.58041553755E+03  0.00000000000E+00 0.  1.
          2   -1    0    0  501    0  0.00000000000E+00 -0.00000000000E+00 -0.66844107879E+03  0.66844107879E+03  0.00000000000E+00 0. -1.
         23    2    1    2    0    0  0.12332723250E+03  0.45476083894E+03 -0.74557221650E+02  0.48577169113E+03  0.91642401205E+02 0.  0.
    5000000    2    1    2    0    0 -0.12332723250E+03 -0.45476083894E+03 -0.13468319584E+02  0.76308492521E+03  0.60008347798E+03 0.  0.
         23    2    4    4    0    0  0.13293149545E+03 -0.28770504570E+03 -0.20654194670E+03  0.39025304697E+03  0.95879555273E+02 0.  0.
         23    2    4    4    0    0 -0.25625872795E+03 -0.16705579324E+03  0.19307362712E+03  0.37283187824E+03  0.90277407113E+02 0.  0.
          4    1    3    3  502    0 -0.26162008553E+01  0.10346288148E+03 -0.40099226805E+02  0.11099261390E+03  0.00000000000E+00 0.  1.
         -4    1    3    3    0  502  0.12594343336E+03  0.35129795746E+03 -0.34457994845E+02  0.37477907723E+03  0.00000000000E+00 0. -1.
         13    1    5    5    0    0  0.61662692043E+02 -0.92101878067E+02 -0.12396886252E+03  0.16629288141E+03  0.00000000000E+00 0.  1.
        -13    1    5    5    0    0  0.71268803408E+02 -0.19560316763E+03 -0.82573084185E+02  0.22396016556E+03  0.00000000000E+00 0. -1.
          4    1    6    6  503    0 -0.18768029007E+03 -0.13918212050E+03  0.18565428814E+03  0.29843436239E+03  0.00000000000E+00 0. -1.
         -4    1    6    6    0  503 -0.68578437881E+02 -0.27873672735E+02  0.74193389815E+01  0.74397515851E+02  0.00000000000E+00 0.  1.
<mgrwt>
<rscale>  0 0.55169565E+03</rscale>
<asrwt>0</asrwt>
<pdfrwt beam="1">  1        2 0.10283709E+00 0.55169565E+03</pdfrwt>
<pdfrwt beam="2">  1       -2 0.89294698E-01 0.55169565E+03</pdfrwt>
<totfact> 0.48148120E+01</totfact>
</mgrwt>
</event>
<event>
12    1  0.1338445E-007  0.6858069E+03  0.7818608E-02  0.9741817E-01
          1   -1    0    0  501    0  0.00000000000E+00  0.00000000000E+00  0.24921323492E+04  0.24921323492E+04  0.00000000000E+00 0. -1.
         -1   -1    0    0    0  501 -0.00000000000E+00 -0.00000000000E+00 -0.21468396874E+03  0.21468396874E+03  0.00000000000E+00 0.  1.
         23    2    1    2    0    0  0.23713302840E+03  0.50500206879E+03  0.13816757250E+04  0.14928212500E+04  0.90710048007E+02 0.  0.
    5000000    2    1    2    0    0 -0.23713302840E+03 -0.50500206879E+03  0.89577265543E+03  0.12139950679E+04  0.60009683552E+03 0.  0.
         23    2    4    4    0    0 -0.42412740491E+03 -0.29255880791E+03  0.56861413701E+03  0.77191620262E+03  0.84011162252E+02 0.  0.
         23    2    4    4    0    0  0.18699437652E+03 -0.21244326088E+03  0.32715851843E+03  0.44207886527E+03  0.91115262157E+02 0.  0.
          4    1    3    3  502    0  0.27891682587E+02  0.60192303207E+02  0.25676552506E+03  0.26519727408E+03  0.00000000000E+00 0. -1.
         -4    1    3    3    0  502  0.20924134581E+03  0.44480976559E+03  0.11249102000E+04  0.12276239760E+04  0.00000000000E+00 0.  1.
         11    1    5    5    0    0 -0.29077152754E+03 -0.22017071773E+03  0.45047392462E+03  0.57961192443E+03  0.00000000000E+00 0. -1.
        -11    1    5    5    0    0 -0.13335587737E+03 -0.72388090187E+02  0.11814021238E+03  0.19230427820E+03  0.00000000000E+00 0.  1.
          2    1    6    6  503    0  0.47780072787E+02 -0.12254333815E+03  0.13981314400E+03  0.19195707936E+03  0.00000000000E+00 0. -1.
         -2    1    6    6    0  503  0.13921430373E+03 -0.89899922735E+02  0.18734537443E+03  0.25012178592E+03  0.00000000000E+00 0.  1.
<mgrwt>
<rscale>  0 0.68580689E+03</rscale>
<asrwt>0</asrwt>
<pdfrwt beam="1">  1        1 0.38340496E+00 0.68580689E+03</pdfrwt>
<pdfrwt beam="2">  1       -1 0.33028305E-01 0.68580689E+03</pdfrwt>
<totfact> 0.12549936E+01</totfact>
</mgrwt>
</event>
<event>
12    1  0.1338445E-007  0.7557109E+03  0.7818608E-02  0.9626433E-01
          2   -1    0    0  501    0  0.00000000000E+00  0.00000000000E+00  0.10366728642E+04  0.10366728642E+04  0.00000000000E+00 0. -1.
         -2   -1    0    0    0  501 -0.00000000000E+00 -0.00000000000E+00 -0.12971563580E+04  0.12971563580E+04  0.00000000000E+00 0.  1.
         23    2    1    2    0    0 -0.47378360989E+03 -0.57105659433E+03 -0.91114853833E+03  0.11789208434E+04  0.95321315644E+02 0.  0.
    5000000    2    1    2    0    0  0.47378360989E+03  0.57105659433E+03  0.65066504463E+03  0.11549083788E+04  0.59989317395E+03 0.  0.
         23    2    4    4    0    0  0.39476395189E+03  0.34840689790E+03  0.93302277773E+02  0.54228299537E+03  0.90219664244E+02 0.  0.
         23    2    4    4    0    0  0.79019658002E+02  0.22264969643E+03  0.55736276686E+03  0.61262538341E+03  0.94019215317E+02 0.  0.
          3    1    3    3  502    0 -0.21430880312E+03 -0.20694271637E+03 -0.31271575674E+03  0.43190820260E+03  0.00000000000E+00 0. -1.
         -3    1    3    3    0  502 -0.25947480677E+03 -0.36411387796E+03 -0.59843278159E+03  0.74701264082E+03  0.00000000000E+00 0.  1.
         11    1    5    5    0    0  0.11318994383E+03  0.13757489176E+03  0.64020597623E+02  0.18930782115E+03  0.00000000000E+00 0. -1.
        -11    1    5    5    0    0  0.28157400806E+03  0.21083200614E+03  0.29281680151E+02  0.35297517422E+03  0.00000000000E+00 0.  1.
          3    1    6    6  503    0  0.51572970347E+02  0.15945272097E+03  0.27553111275E+03  0.32249393109E+03  0.00000000000E+00 0. -1.
         -3    1    6    6    0  503  0.27446687655E+02  0.63196975462E+02  0.28183165410E+03  0.29013145232E+03  0.00000000000E+00 0.  1.
<mgrwt>
<rscale>  0 0.75571088E+03</rscale>
<asrwt>0</asrwt>
<pdfrwt beam="1">  1        2 0.15948813E+00 0.75571088E+03</pdfrwt>
<pdfrwt beam="2">  1       -2 0.19956252E+00 0.75571088E+03</pdfrwt>
<totfact> 0.32711706E+00</totfact>
</mgrwt>
</event>
<event>
12    1  0.1868864E-007  0.9965751E+03  0.7818608E-02  0.9312309E-01
          1   -1    0    0  501    0  0.00000000000E+00  0.00000000000E+00  0.13331145887E+04  0.13331145887E+04  0.00000000000E+00 0. -1.
         -1   -1    0    0    0  501 -0.00000000000E+00 -0.00000000000E+00 -0.75790984272E+03  0.75790984272E+03  0.00000000000E+00 0.  1.
         23    2    1    2    0    0  0.34064212752E+02 -0.91177534319E+03  0.22648047984E+03  0.94472157831E+03  0.93331697458E+02 0.  0.
    5000000    2    1    2    0    0 -0.34064212752E+02  0.91177534319E+03  0.34872426611E+03  0.11463028531E+04  0.59992247011E+03 0.  0.
         23    2    4    4    0    0 -0.19081037766E+03  0.86781035668E+03  0.35013276417E+03  0.95936764071E+03  0.91048899519E+02 0.  0.
         23    2    4    4    0    0  0.15674616491E+03  0.43964986505E+02 -0.14084980678E+01  0.18693521236E+03  0.91872245537E+02 0.  0.
          1    1    3    3  502    0  0.55145870110E+02 -0.44873177254E+03  0.84458478292E+02  0.45992880452E+03  0.00000000000E+00 0. -1.
         -1    1    3    3    0  502 -0.21081657358E+02 -0.46304357065E+03  0.14202200154E+03  0.48479277379E+03  0.00000000000E+00 0.  1.
         13    1    5    5    0    0 -0.46574350851E+02  0.35064533197E+03  0.10370560187E+03  0.36861385059E+03  0.00000000000E+00 0.  1.
        -13    1    5    5    0    0 -0.14423602681E+03  0.51716502471E+03  0.24642716231E+03  0.59075379012E+03  0.00000000000E+00 0. -1.
          4    1    6    6  503    0  0.11778598183E+03  0.72759361792E+02  0.59391533355E+00  0.13844787820E+03  0.00000000000E+00 0. -1.
         -4    1    6    6    0  503  0.38960183083E+02 -0.28794375287E+02 -0.20024134013E+01  0.48487334155E+02  0.00000000000E+00 0.  1.
<mgrwt>
<rscale>  0 0.99657513E+03</rscale>
<asrwt>0</asrwt>
<pdfrwt beam="1">  1        1 0.20509455E+00 0.99657513E+03</pdfrwt>
<pdfrwt beam="2">  1       -1 0.11660151E+00 0.99657513E+03</pdfrwt>
<totfact> 0.57135466E+00</totfact>
</mgrwt>
</event>
<event>
12    1  0.1338445E-007  0.5905318E+03  0.7818608E-02  0.9925247E-01
         -2   -1    0    0    0  501 -0.00000000000E+00  0.00000000000E+00  0.29632501003E+03  0.29632501003E+03  0.00000000000E+00 0.  1.
          2   -1    0    0  501    0  0.00000000000E+00 -0.00000000000E+00 -0.16690553431E+04  0.16690553431E+04  0.00000000000E+00 0. -1.
         23    2    1    2    0    0  0.31306642589E+03 -0.33063452000E+03 -0.10417367792E+04  0.11412475514E+04  0.99502179252E+02 0.  0.
    5000000    2    1    2    0    0 -0.31306642589E+03  0.33063452000E+03 -0.33099355391E+03  0.82413280174E+03  0.60192056730E+03 0.  0.
         23    2    4    4    0    0 -0.46428502364E+03  0.31036720825E+03 -0.30802667511E+03  0.64428750100E+03  0.91310263542E+02 0.  0.
         23    2    4    4    0    0  0.15121859776E+03  0.20267311743E+02 -0.22966878804E+02  0.17984530074E+03  0.92406852800E+02 0.  0.
          1    1    3    3  502    0  0.24361940922E+02 -0.48830795123E+02 -0.20784606023E+03  0.21489051973E+03  0.00000000000E+00 0. -1.
         -1    1    3    3    0  502  0.28870448496E+03 -0.28180372487E+03 -0.83389071898E+03  0.92635703171E+03  0.00000000000E+00 0.  1.
         11    1    5    5    0    0 -0.21311997012E+03  0.89734909750E+02 -0.13687562123E+03  0.26871436765E+03  0.00000000000E+00 0.  1.
        -11    1    5    5    0    0 -0.25116505352E+03  0.22063229850E+03 -0.17115105388E+03  0.37557313335E+03  0.00000000000E+00 0. -1.
          1    1    6    6  503    0  0.75383035681E+02  0.29822965193E+02 -0.53939833964E+02  0.97373081545E+02  0.00000000000E+00 0. -1.
         -1    1    6    6    0  503  0.75835562075E+02 -0.95556534499E+01  0.30972955160E+02  0.82472219198E+02  0.00000000000E+00 0.  1.
<mgrwt>
<rscale>  0 0.59053182E+03</rscale>
<asrwt>0</asrwt>
<pdfrwt beam="1">  1        2 0.25677774E+00 0.59053182E+03</pdfrwt>
<pdfrwt beam="2">  1       -2 0.45588463E-01 0.59053182E+03</pdfrwt>
<totfact> 0.48658204E+01</totfact>
</mgrwt>
</event>
<event>
12    1  0.1338445E-007  0.4202593E+03  0.7818608E-02  0.1036982E+00
          1   -1    0    0  501    0  0.00000000000E+00  0.00000000000E+00  0.10056301693E+04  0.10056301693E+04  0.00000000000E+00 0. -1.
         -1   -1    0    0    0  501 -0.00000000000E+00 -0.00000000000E+00 -0.51262357709E+03  0.51262357709E+03  0.00000000000E+00 0.  1.
         23    2    1    2    0    0 -0.32796002278E+03  0.11003493049E+03 -0.29869794121E+03  0.46637900687E+03  0.92862562384E+02 0.  0.
    5000000    2    1    2    0    0  0.32796002278E+03 -0.11003493049E+03  0.79170453346E+03  0.10518747396E+04  0.59998244723E+03 0.  0.
         23    2    4    4    0    0  0.45035085916E+02 -0.17222970669E+03 -0.32101239159E+01  0.20127742605E+03  0.93867281364E+02 0.  0.
         23    2    4    4    0    0  0.28292493686E+03  0.62194776199E+02  0.79491465738E+03  0.85059731353E+03  0.87816668010E+02 0.  0.
          4    1    3    3  502    0 -0.24855174132E+03  0.63434643372E+02 -0.16848384693E+03  0.30690182269E+03  0.00000000000E+00 0. -1.
         -4    1    3    3    0  502 -0.79408281456E+02  0.46600287120E+02 -0.13021409428E+03  0.15947718418E+03  0.00000000000E+00 0.  1.
         11    1    5    5    0    0  0.43709093239E+02 -0.42142619971E+02  0.28953525012E+02  0.67266573129E+02  0.00000000000E+00 0. -1.
        -11    1    5    5    0    0  0.13259926766E+01 -0.13008708672E+03 -0.32163648928E+02  0.13401085292E+03  0.00000000000E+00 0.  1.
          4    1    6    6  503    0  0.13703821162E+03  0.72187879742E+02  0.36537302821E+03  0.39684759186E+03  0.00000000000E+00 0. -1.
         -4    1    6    6    0  503  0.14588672524E+03 -0.99931035428E+01  0.42954162917E+03  0.45374972166E+03  0.00000000000E+00 0.  1.
<mgrwt>
<rscale>  0 0.42025932E+03</rscale>
<asrwt>0</asrwt>
<pdfrwt beam="1">  1        1 0.15471233E+00 0.42025932E+03</pdfrwt>
<pdfrwt beam="2">  1       -1 0.78865166E-01 0.42025932E+03</pdfrwt>
<totfact> 0.26052188E+01</totfact>
</mgrwt>
</event>
<event>
12    1  0.1338445E-007  0.1172216E+04  0.7818608E-02  0.9137529E-01
          2   -1    0    0  501    0  0.00000000000E+00  0.00000000000E+00  0.24961504980E+04  0.24961504980E+04  0.00000000000E+00 0. -1.
         -2   -1    0    0    0  501 -0.00000000000E+00 -0.00000000000E+00 -0.55656311090E+03  0.55656311090E+03  0.00000000000E+00 0.  1.
         23    2    1    2    0    0 -0.59737055459E+03 -0.91819702740E+03  0.10416431531E+04  0.15143884757E+04  0.91731326493E+02 0.  0.
    5000000    2    1    2    0    0  0.59737055459E+03  0.91819702740E+03  0.89794423401E+03  0.15383251332E+04  0.60016914908E+03 0.  0.
         23    2    4    4    0    0  0.96914399333E+01 -0.55703624593E+02  0.65959513960E+02  0.12608925384E+03  0.91383940887E+02 0.  0.
         23    2    4    4    0    0  0.58767911465E+03  0.97390065200E+03  0.83198472005E+03  0.14122358794E+04  0.91446065305E+02 0.  0.
          4    1    3    3  502    0 -0.33964124341E+03 -0.58495239090E+03  0.68081384653E+03  0.95970462512E+03  0.00000000000E+00 0. -1.
         -4    1    3    3    0  502 -0.25772931117E+03 -0.33324463650E+03  0.36082930656E+03  0.55468385056E+03  0.00000000000E+00 0.  1.
         11    1    5    5    0    0 -0.38622332578E+02 -0.41550535067E+02  0.40276469654E+02  0.69572448181E+02  0.00000000000E+00 0. -1.
        -11    1    5    5    0    0  0.48313772511E+02 -0.14153089527E+02  0.25683044306E+02  0.56516805662E+02  0.00000000000E+00 0.  1.
          2    1    6    6  503    0  0.23474348113E+03  0.45716520029E+03  0.41094026134E+03  0.65800943814E+03  0.00000000000E+00 0. -1.
         -2    1    6    6    0  503  0.35293563352E+03  0.51673545170E+03  0.42104445870E+03  0.75422644124E+03  0.00000000000E+00 0.  1.
<mgrwt>
<rscale>  0 0.11722161E+04</rscale>
<asrwt>0</asrwt>
<pdfrwt beam="1">  1        2 0.38402315E+00 0.11722161E+04</pdfrwt>
<pdfrwt beam="2">  1       -2 0.85625095E-01 0.11722161E+04</pdfrwt>
<totfact> 0.40984749E+00</totfact>
</mgrwt>
</event>
<event>
12    1  0.1338445E-007  0.8865812E+03  0.7818608E-02  0.9442513E-01
         -1   -1    0    0    0  501 -0.00000000000E+00  0.00000000000E+00  0.10272082696E+04  0.10272082696E+04  0.00000000000E+00 0.  1.
          1   -1    0    0  501    0  0.00000000000E+00 -0.00000000000E+00 -0.90698986690E+03  0.90698986690E+03  0.00000000000E+00 0. -1.
         23    2    1    2    0    0 -0.48130145460E+03  0.72492709984E+03  0.50973011950E+02  0.87594367711E+03  0.86652681699E+02 0.  0.
    5000000    2    1    2    0    0  0.48130145460E+03 -0.72492709984E+03  0.69245390713E+02  0.10582544594E+04  0.59827851903E+03 0.  0.
         23    2    4    4    0    0  0.36257318797E+03 -0.36168950424E+03  0.30186945101E+03  0.60168286657E+03  0.92835835503E+02 0.  0.
         23    2    4    4    0    0  0.11872826663E+03 -0.36323759560E+03 -0.23262406030E+03  0.45657159279E+03  0.91135688708E+02 0.  0.
          3    1    3    3  502    0 -0.27648851871E+03  0.37083554325E+03 -0.81439887169E+01  0.46263508910E+03  0.00000000000E+00 0. -1.
         -3    1    3    3    0  502 -0.20481293589E+03  0.35409155659E+03  0.59117000667E+02  0.41330858801E+03  0.00000000000E+00 0.  1.
         11    1    5    5    0    0  0.18649327666E+03 -0.21186276432E+03  0.21457934682E+03  0.35455587603E+03  0.00000000000E+00 0.  1.
        -11    1    5    5    0    0  0.17607991131E+03 -0.14982673992E+03  0.87290104190E+02  0.24712699054E+03  0.00000000000E+00 0. -1.
          2    1    6    6  503    0  0.11245592915E+03 -0.24376046792E+03 -0.12699578105E+03  0.29697378693E+03  0.00000000000E+00 0.  1.
         -2    1    6    6    0  503  0.62723374831E+01 -0.11947712768E+03 -0.10562827925E+03  0.15959780585E+03  0.00000000000E+00 0. -1.
<mgrwt>
<rscale>  0 0.88658116E+03</rscale>
<asrwt>0</asrwt>
<pdfrwt beam="1">  1        1 0.13953690E+00 0.88658116E+03</pdfrwt>
<pdfrwt beam="2">  1       -1 0.15803204E+00 0.88658116E+03</pdfrwt>
<totfact> 0.55192836E+00</totfact>
</mgrwt>
</event>
<event>
12    1  0.1338445E-007  0.4907329E+03  0.7818608E-02  0.1016226E+00
         -1   -1    0    0    0  501 -0.00000000000E+00  0.00000000000E+00  0.15395662403E+03  0.15395662403E+03  0.00000000000E+00 0.  1.
          1   -1    0    0  501    0  0.00000000000E+00 -0.00000000000E+00 -0.23098780188E+04  0.23098780188E+04  0.00000000000E+00 0. -1.
         23    2    1    2    0    0  0.37691020146E+02  0.36304167288E+03 -0.30926941174E+03  0.48815603788E+03  0.97102415176E+02 0.  0.
    5000000    2    1    2    0    0 -0.37691020146E+02 -0.36304167288E+03 -0.18466519830E+04  0.19756786050E+04  0.59996877787E+03 0.  0.
         23    2    4    4    0    0  0.15513173096E+03  0.34498676342E+02 -0.99952347532E+03  0.10160675101E+04  0.89944398146E+02 0.  0.
         23    2    4    4    0    0 -0.19282275111E+03 -0.39754034922E+03 -0.84712850772E+03  0.95961109486E+03  0.89486324017E+02 0.  0.
          3    1    3    3  502    0  0.34640730107E+01  0.10101248897E+03 -0.34154952151E+02  0.10668684777E+03  0.00000000000E+00 0. -1.
         -3    1    3    3    0  502  0.34226947135E+02  0.26202918391E+03 -0.27511445959E+03  0.38146919011E+03  0.00000000000E+00 0.  1.
         11    1    5    5    0    0  0.15678145224E+02  0.20579916303E+02 -0.38046470094E+03  0.38134331756E+03  0.00000000000E+00 0.  1.
        -11    1    5    5    0    0  0.13945358574E+03  0.13918760039E+02 -0.61905877438E+03  0.63472419254E+03  0.00000000000E+00 0. -1.
          2    1    6    6  503    0 -0.14047555456E+03 -0.35782921629E+03 -0.70384497721E+03  0.80198059914E+03  0.00000000000E+00 0. -1.
         -2    1    6    6    0  503 -0.52347196547E+02 -0.39711132935E+02 -0.14328353051E+03  0.15763049572E+03  0.00000000000E+00 0.  1.
<mgrwt>
<rscale>  0 0.49073288E+03</rscale>
<asrwt>0</asrwt>
<pdfrwt beam="1">  1        1 0.35536584E+00 0.49073288E+03</pdfrwt>
<pdfrwt beam="2">  1       -1 0.23685635E-01 0.49073288E+03</pdfrwt>
<totfact> 0.30622105E+01</totfact>
</mgrwt>
</event>
<event>
12    1  0.1338445E-007  0.1727700E+04  0.7818608E-02  0.8745722E-01
          2   -1    0    0  501    0  0.00000000000E+00  0.00000000000E+00  0.10325212157E+04  0.10325212157E+04  0.00000000000E+00 0. -1.
         -2   -1    0    0    0  501 -0.00000000000E+00 -0.00000000000E+00 -0.31094214692E+04  0.31094214692E+04  0.00000000000E+00 0.  1.
         23    2    1    2    0    0 -0.15128668705E+04 -0.81552655327E+03 -0.13263726423E+04  0.21728786788E+04  0.91036474044E+02 0.  0.
    5000000    2    1    2    0    0  0.15128668705E+04  0.81552655327E+03 -0.75052761119E+03  0.19690640060E+04  0.60005969496E+03 0.  0.
         23    2    4    4    0    0  0.25026997152E+03  0.17265840141E+03  0.76165998719E+02  0.32613571302E+03  0.90095847411E+02 0.  0.
         23    2    4    4    0    0  0.12625968990E+04  0.64286815186E+03 -0.82669360990E+03  0.16429282930E+04  0.91436651042E+02 0.  0.
          3    1    3    3  502    0 -0.63088742148E+03 -0.33093339890E+03 -0.49438063212E+03  0.86714938880E+03  0.00000000000E+00 0. -1.
         -3    1    3    3    0  502 -0.88197944906E+03 -0.48459315437E+03 -0.83199201018E+03  0.13057292900E+04  0.00000000000E+00 0.  1.
         13    1    5    5    0    0  0.17151613243E+03  0.64502763858E+02  0.47701911588E+02  0.18935116212E+03  0.00000000000E+00 0.  1.
        -13    1    5    5    0    0  0.78753839091E+02  0.10815563755E+03  0.28464087131E+02  0.13678455089E+03  0.00000000000E+00 0. -1.
          1    1    6    6  503    0  0.23530099601E+03  0.15959003693E+03 -0.15531370254E+03  0.32397204325E+03  0.00000000000E+00 0. -1.
         -1    1    6    6    0  503  0.10272959030E+04  0.48327811493E+03 -0.67137990736E+03  0.13189562497E+04  0.00000000000E+00 0.  1.
<mgrwt>
<rscale>  0 0.17276998E+04</rscale>
<asrwt>0</asrwt>
<pdfrwt beam="1">  1        2 0.15884942E+00 0.17276998E+04</pdfrwt>
<pdfrwt beam="2">  1       -2 0.47837253E+00 0.17276998E+04</pdfrwt>
<totfact> 0.50031467E-02</totfact>
</mgrwt>
</event>
<event>
12    1  0.1338445E-007  0.8640190E+03  0.7818608E-02  0.9471712E-01
         -2   -1    0    0    0  501 -0.00000000000E+00  0.00000000000E+00  0.17968444961E+04  0.17968444961E+04  0.00000000000E+00 0. -1.
          2   -1    0    0  501    0  0.00000000000E+00 -0.00000000000E+00 -0.52543556312E+03  0.52543556312E+03  0.00000000000E+00 0.  1.
         23    2    1    2    0    0  0.84585791401E+03 -0.78946451867E+02  0.31956801689E+03  0.91249771211E+03  0.93915942291E+02 0.  0.
    5000000    2    1    2    0    0 -0.84585791401E+03  0.78946451867E+02  0.95184091605E+03  0.14097823471E+04  0.59981412431E+03 0.  0.
         23    2    4    4    0    0 -0.32613444383E+03 -0.60726255003E+02  0.41249629326E+02  0.34807609303E+03  0.96974641636E+02 0.  0.
         23    2    4    4    0    0 -0.51972347019E+03  0.13967270687E+03  0.91059128672E+03  0.10617062541E+04  0.91775421230E+02 0.  0.
          2    1    3    3  502    0  0.17649221065E+03 -0.52504423321E+02  0.54017414853E+02  0.19189605518E+03  0.00000000000E+00 0. -1.
         -2    1    3    3    0  502  0.66936570336E+03 -0.26442028547E+02  0.26555060204E+03  0.72060165692E+03  0.00000000000E+00 0.  1.
         13    1    5    5    0    0 -0.24959862668E+03 -0.45836191158E+02  0.72731964245E+02  0.26398933592E+03  0.00000000000E+00 0.  1.
        -13    1    5    5    0    0 -0.76535817149E+02 -0.14890063845E+02 -0.31482334918E+02  0.84086757102E+02  0.00000000000E+00 0. -1.
          1    1    6    6  503    0 -0.24822895628E+03  0.10119303122E+03  0.51159387801E+03  0.57756899183E+03  0.00000000000E+00 0. -1.
         -1    1    6    6    0  503 -0.27149451391E+03  0.38479675652E+02  0.39899740871E+03  0.48413726223E+03  0.00000000000E+00 0.  1.
<mgrwt>
<rscale>  0 0.86401900E+03</rscale>
<asrwt>0</asrwt>
<pdfrwt beam="1">  1        2 0.80836241E-01 0.86401900E+03</pdfrwt>
<pdfrwt beam="2">  1       -2 0.27643761E+00 0.86401900E+03</pdfrwt>
<totfact> 0.26228335E+00</totfact>
</mgrwt>
</event>
<event>
12    1  0.1338445E-007  0.4873123E+03  0.7818608E-02  0.1017145E+00
         -1   -1    0    0    0  501 -0.00000000000E+00  0.00000000000E+00  0.34320742849E+03  0.34320742849E+03  0.00000000000E+00 0.  1.
          1   -1    0    0  501    0  0.00000000000E+00 -0.00000000000E+00 -0.10664182563E+04  0.10664182563E+04  0.00000000000E+00 0. -1.
         23    2    1    2    0    0 -0.19674738744E+03 -0.38569753831E+03 -0.12957820409E+03  0.46109799430E+03  0.91371351339E+02 0.  0.
    5000000    2    1    2    0    0  0.19674738744E+03  0.38569753831E+03 -0.59363262369E+03  0.94852769047E+03  0.59986078564E+03 0.  0.
         23    2    4    4    0    0 -0.17855269587E+02  0.30476193467E+03 -0.62293481466E+03  0.69988196125E+03  0.92673237206E+02 0.  0.
         23    2    4    4    0    0  0.21460265703E+03  0.80935603642E+02  0.29302190969E+02  0.24864572922E+03  0.91439640856E+02 0.  0.
          3    1    3    3  502    0 -0.83316130418E+02 -0.19243113430E+03 -0.10826205024E+03  0.23599150527E+03  0.00000000000E+00 0. -1.
         -3    1    3    3    0  502 -0.11343125703E+03 -0.19326640400E+03 -0.21316153854E+02  0.22510648903E+03  0.00000000000E+00 0.  1.
         11    1    5    5    0    0 -0.27801747567E+02  0.11518825745E+03 -0.15652559962E+03  0.19631998155E+03  0.00000000000E+00 0.  1.
        -11    1    5    5    0    0  0.99464779807E+01  0.18957367722E+03 -0.46640921505E+03  0.50356197970E+03  0.00000000000E+00 0. -1.
          2    1    6    6  503    0  0.39427571162E+02 -0.25950783158E+00  0.38822693936E+02  0.55333554707E+02  0.00000000000E+00 0. -1.
         -2    1    6    6    0  503  0.17517508587E+03  0.81195111474E+02 -0.95205029676E+01  0.19331217451E+03  0.00000000000E+00 0.  1.
<mgrwt>
<rscale>  0 0.48731234E+03</rscale>
<asrwt>0</asrwt>
<pdfrwt beam="1">  1        1 0.16406435E+00 0.48731234E+03</pdfrwt>
<pdfrwt beam="2">  1       -1 0.52801143E-01 0.48731234E+03</pdfrwt>
<totfact> 0.51442416E+01</totfact>
</mgrwt>
</event>
<event>
12    1  0.1338445E-007  0.7514281E+03  0.7818608E-02  0.9633113E-01
          3   -1    0    0  501    0  0.00000000000E+00  0.00000000000E+00  0.49445833741E+03  0.49445833741E+03  0.00000000000E+00 0. -1.
         -3   -1    0    0    0  501 -0.00000000000E+00 -0.00000000000E+00 -0.13589878912E+04  0.13589878912E+04  0.00000000000E+00 0.  1.
         23    2    1    2    0    0 -0.67246979258E+03  0.16849525716E+03 -0.22102883648E+03  0.73330894009E+03  0.91005392406E+02 0.  0.
    5000000    2    1    2    0    0  0.67246979258E+03 -0.16849525716E+03 -0.64350071735E+03  0.11201372886E+04  0.60000674862E+03 0.  0.
         23    2    4    4    0    0  0.65203120741E+03 -0.46986611162E+02 -0.69532205328E+03  0.95843190222E+03  0.88127840946E+02 0.  0.
         23    2    4    4    0    0  0.20438585168E+02 -0.12150864600E+03  0.51821335927E+02  0.16170538635E+03  0.91000518136E+02 0.  0.
          3    1    3    3  502    0 -0.14601752343E+03  0.30281345908E+02 -0.97330036171E+01  0.14944165556E+03  0.00000000000E+00 0. -1.
         -3    1    3    3    0  502 -0.52645226915E+03  0.13821391125E+03 -0.21129583287E+03  0.58386728453E+03  0.00000000000E+00 0.  1.
         11    1    5    5    0    0  0.47216222358E+03  0.11784958356E+01 -0.47134741010E+03  0.66716334974E+03  0.00000000000E+00 0. -1.
        -11    1    5    5    0    0  0.17986898383E+03 -0.48165106998E+02 -0.22397464317E+03  0.29126855247E+03  0.00000000000E+00 0.  1.
          3    1    6    6  503    0  0.55016845514E+02 -0.79060072075E+02  0.19979139858E+02  0.98369275266E+02  0.00000000000E+00 0. -1.
         -3    1    6    6    0  503 -0.34578260346E+02 -0.42448573923E+02  0.31842196069E+02  0.63336111083E+02  0.00000000000E+00 0.  1.
<mgrwt>
<rscale>  0 0.75142808E+03</rscale>
<asrwt>0</asrwt>
<pdfrwt beam="1">  1        3 0.76070515E-01 0.75142808E+03</pdfrwt>
<pdfrwt beam="2">  1       -3 0.20907506E+00 0.75142808E+03</pdfrwt>
<totfact> 0.54520477E-01</totfact>
</mgrwt>
</event>
<event>
12    1  0.1338445E-007  0.3284673E+03  0.7818608E-02  0.1071817E+00
          2   -1    0    0  501    0  0.00000000000E+00  0.00000000000E+00  0.49182514456E+03  0.49182514456E+03  0.00000000000E+00 0. -1.
         -2   -1    0    0    0  501 -0.00000000000E+00 -0.00000000000E+00 -0.33843047027E+03  0.33843047027E+03  0.00000000000E+00 0.  1.
         23    2    1    2    0    0  0.16624756130E+03  0.22054773861E+02  0.57763504096E+02  0.20007332878E+03  0.92563760693E+02 0.  0.
    5000000    2    1    2    0    0 -0.16624756130E+03 -0.22054773861E+02  0.95631170201E+02  0.63018228606E+03  0.59988309549E+03 0.  0.
         23    2    4    4    0    0  0.12399823150E+03 -0.71421737366E+02 -0.15693703193E+03  0.23166432330E+03  0.92533781484E+02 0.  0.
         23    2    4    4    0    0 -0.29024579281E+03  0.49366963505E+02  0.25256820213E+03  0.39851796275E+03  0.91357279863E+02 0.  0.
          2    1    3    3  502    0  0.50594298085E+02  0.50679627613E+02  0.30586428812E+02  0.77870002448E+02  0.00000000000E+00 0. -1.
         -2    1    3    3    0  502  0.11565326322E+03 -0.28624853752E+02  0.27177075284E+02  0.12220332633E+03  0.00000000000E+00 0.  1.
         13    1    5    5    0    0  0.82328485289E+02 -0.91073992897E+02 -0.12745782510E+03  0.17696877931E+03  0.00000000000E+00 0. -1.
        -13    1    5    5    0    0  0.41669746216E+02  0.19652255531E+02 -0.29479206833E+02  0.54695543992E+02  0.00000000000E+00 0.  1.
          3    1    6    6  503    0 -0.17881821721E+03  0.97713025304E+01  0.98779903650E+02  0.20452115423E+03  0.00000000000E+00 0. -1.
         -3    1    6    6    0  503 -0.11142757559E+03  0.39595660975E+02  0.15378829848E+03  0.19399680853E+03  0.00000000000E+00 0.  1.
<mgrwt>
<rscale>  0 0.32846726E+03</rscale>
<asrwt>0</asrwt>
<pdfrwt beam="1">  1        2 0.75665408E-01 0.32846726E+03</pdfrwt>
<pdfrwt beam="2">  1       -2 0.52066226E-01 0.32846726E+03</pdfrwt>
<totfact> 0.22543440E+02</totfact>
</mgrwt>
</event>
<event>
12    1  0.1338445E-007  0.6938605E+03  0.7818608E-02  0.9727789E-01
         -1   -1    0    0    0  501 -0.00000000000E+00  0.00000000000E+00  0.14354722630E+04  0.14354722630E+04  0.00000000000E+00 0.  1.
          1   -1    0    0  501    0  0.00000000000E+00 -0.00000000000E+00 -0.59040580119E+03  0.59040580119E+03  0.00000000000E+00 0. -1.
         23    2    1    2    0    0  0.56438455543E+03  0.87254479864E+02 -0.26917306551E+03  0.63761733384E+03  0.89210170713E+02 0.  0.
    5000000    2    1    2    0    0 -0.56438455543E+03 -0.87254479864E+02  0.11142395273E+04  0.13882607303E+04  0.59966228870E+03 0.  0.
         23    2    4    4    0    0 -0.50264252557E+03  0.17777223629E+03  0.71583411157E+03  0.89704044757E+03  0.89502026684E+02 0.  0.
         23    2    4    4    0    0 -0.61742029854E+02 -0.26502671615E+03  0.39840541572E+03  0.49122028274E+03  0.92299796204E+02 0.  0.
          1    1    3    3  502    0  0.20590428760E+02  0.50977556284E+01 -0.32678172662E+02  0.38959156016E+02  0.00000000000E+00 0. -1.
         -1    1    3    3    0  502  0.54379412667E+03  0.82156724236E+02 -0.23649489285E+03  0.59865817783E+03  0.00000000000E+00 0.  1.
         13    1    5    5    0    0 -0.40102095878E+02  0.43090231010E+02  0.77895993137E+02  0.97635709908E+02  0.00000000000E+00 0. -1.
        -13    1    5    5    0    0 -0.46254042970E+03  0.13468200528E+03  0.63793811843E+03  0.79940473766E+03  0.00000000000E+00 0.  1.
          3    1    6    6  503    0 -0.16403663273E+02 -0.16838246477E+03  0.30767887277E+03  0.35112394302E+03  0.00000000000E+00 0. -1.
         -3    1    6    6    0  503 -0.45338366580E+02 -0.96644251382E+02  0.90726542953E+02  0.14009633973E+03  0.00000000000E+00 0.  1.
<mgrwt>
<rscale>  0 0.69386055E+03</rscale>
<asrwt>0</asrwt>
<pdfrwt beam="1">  1        1 0.90831662E-01 0.69386055E+03</pdfrwt>
<pdfrwt beam="2">  1       -1 0.22084189E+00 0.69386055E+03</pdfrwt>
<totfact> 0.39915827E+00</totfact>
</mgrwt>
</event>
<event>
12    1  0.1338445E-007  0.1265768E+04  0.7818608E-02  0.9057161E-01
         -2   -1    0    0    0  501 -0.00000000000E+00  0.00000000000E+00  0.65930983733E+03  0.65930983733E+03  0.00000000000E+00 0.  1.
          2   -1    0    0  501    0  0.00000000000E+00 -0.00000000000E+00 -0.28101942232E+04  0.28101942232E+04  0.00000000000E+00 0. -1.
         23    2    1    2    0    0 -0.10927843889E+04  0.48914391923E+03 -0.40098943806E+03  0.12659527434E+04  0.91675104336E+02 0.  0.
    5000000    2    1    2    0    0  0.10927843889E+04 -0.48914391923E+03 -0.17498949478E+04  0.22035513171E+04  0.60005548460E+03 0.  0.
         23    2    4    4    0    0  0.11331038744E+04 -0.39785516832E+03 -0.15743808463E+04  0.19825214487E+04  0.97483948709E+02 0.  0.
         23    2    4    4    0    0 -0.40319485506E+02 -0.91288750911E+02 -0.17551410142E+03  0.22102986837E+03  0.89942792702E+02 0.  0.
          2    1    3    3  502    0 -0.63527623806E+03  0.28526717007E+03 -0.18537072337E+03  0.72063552650E+03  0.00000000000E+00 0.  1.
         -2    1    3    3    0  502 -0.45750815081E+03  0.20387674916E+03 -0.21561871469E+03  0.54531721689E+03  0.00000000000E+00 0. -1.
         13    1    5    5    0    0  0.88208741693E+03 -0.29534921801E+03 -0.11532258551E+04  0.14816339780E+04  0.00000000000E+00 0. -1.
        -13    1    5    5    0    0  0.25101645745E+03 -0.10250595031E+03 -0.42115499120E+03  0.50088747077E+03  0.00000000000E+00 0.  1.
          2    1    6    6  503    0 -0.41928449009E+02 -0.32151671864E+00 -0.71057823649E+02  0.82506439209E+02  0.00000000000E+00 0. -1.
         -2    1    6    6    0  503  0.16089635022E+01 -0.90967234192E+02 -0.10445627777E+03  0.13852342916E+03  0.00000000000E+00 0.  1.
<mgrwt>
<rscale>  0 0.12657677E+04</rscale>
<asrwt>0</asrwt>
<pdfrwt beam="1">  1        2 0.43233757E+00 0.12657677E+04</pdfrwt>
<pdfrwt beam="2">  1       -2 0.10143228E+00 0.12657677E+04</pdfrwt>
<totfact> 0.17828084E+00</totfact>
</mgrwt>
</event>
<event>
12    1  0.1338445E-007  0.8027960E+03  0.7818608E-02  0.9555979E-01
         -1   -1    0    0    0  501 -0.00000000000E+00  0.00000000000E+00  0.53203326274E+03  0.53203326274E+03  0.00000000000E+00 0.  1.
          1   -1    0    0  501    0  0.00000000000E+00 -0.00000000000E+00 -0.18639035488E+04  0.18639035488E+04  0.00000000000E+00 0. -1.
         23    2    1    2    0    0  0.48205770864E+02 -0.71132401075E+03  0.60016275265E+02  0.72096905544E+03  0.88818809921E+02 0.  0.
    5000000    2    1    2    0    0 -0.48205770864E+02  0.71132401075E+03 -0.13918865613E+04  0.16749677561E+04  0.59988593895E+03 0.  0.
         23    2    4    4    0    0 -0.26473019472E+03  0.54454171225E+03 -0.72703306389E+03  0.95034884964E+03  0.89320253308E+02 0.  0.
         23    2    4    4    0    0  0.21652442385E+03  0.16678229850E+03 -0.66485349738E+03  0.72461890641E+03  0.91341257528E+02 0.  0.
          2    1    3    3  502    0  0.45412319263E+02 -0.23681766694E+03  0.50474285723E+02  0.24635855909E+03  0.00000000000E+00 0. -1.
         -2    1    3    3    0  502  0.27934516011E+01 -0.47450634381E+03  0.95419895416E+01  0.47461049636E+03  0.00000000000E+00 0.  1.
         13    1    5    5    0    0 -0.54879959475E+02  0.48172846515E+02 -0.92566480200E+02  0.11790244421E+03  0.00000000000E+00 0. -1.
        -13    1    5    5    0    0 -0.20985023524E+03  0.49636886573E+03 -0.63446658369E+03  0.83244640544E+03  0.00000000000E+00 0.  1.
          1    1    6    6  503    0  0.12023091969E+03  0.12376936198E+03 -0.49980578281E+03  0.52875339200E+03  0.00000000000E+00 0. -1.
         -1    1    6    6    0  503  0.96293504160E+02  0.43012936517E+02 -0.16504771457E+03  0.19586551441E+03  0.00000000000E+00 0.  1.
<mgrwt>
<rscale>  0 0.80279601E+03</rscale>
<asrwt>0</asrwt>
<pdfrwt beam="1">  1        1 0.28675439E+00 0.80279601E+03</pdfrwt>
<pdfrwt beam="2">  1       -1 0.81851272E-01 0.80279601E+03</pdfrwt>
<totfact> 0.56831246E+00</totfact>
</mgrwt>
</event>
<event>
12    1  0.1338445E-007  0.4856067E+03  0.7818608E-02  0.1017606E+00
          1   -1    0    0  501    0  0.00000000000E+00  0.00000000000E+00  0.27089072366E+04  0.27089072366E+04  0.00000000000E+00 0. -1.
         -1   -1    0    0    0  501 -0.00000000000E+00 -0.00000000000E+00 -0.13519156265E+03  0.13519156265E+03  0.00000000000E+00 0.  1.
         23    2    1    2    0    0  0.15025725313E+03  0.38220740220E+03  0.55073473184E+03  0.69433323212E+03  0.10064865603E+03 0.  0.
    5000000    2    1    2    0    0 -0.15025725313E+03 -0.38220740220E+03  0.20229809421E+04  0.21497655671E+04  0.60031688388E+03 0.  0.
         23    2    4    4    0    0  0.27820143115E+01  0.56653217038E+02  0.46248995830E+02  0.11704344073E+03  0.91339316823E+02 0.  0.
         23    2    4    4    0    0 -0.15303926744E+03 -0.43886061924E+03  0.19767319463E+04  0.20327221264E+04  0.92034750150E+02 0.  0.
          1    1    3    3  502    0  0.45916076651E+02  0.19164151815E+03  0.33169679850E+03  0.38582058487E+03  0.00000000000E+00 0. -1.
         -1    1    3    3    0  502  0.10434117648E+03  0.19056588405E+03  0.21903793333E+03  0.30851264725E+03  0.00000000000E+00 0.  1.
         13    1    5    5    0    0  0.14907763424E+01 -0.13269403914E+02  0.45168152451E+02  0.47100546602E+02  0.00000000000E+00 0. -1.
        -13    1    5    5    0    0  0.12912379691E+01  0.69922620952E+02  0.10808433789E+01  0.69942894126E+02  0.00000000000E+00 0.  1.
          4    1    6    6  503    0 -0.16536539618E+03 -0.41523424758E+03  0.18785279654E+04  0.19309667298E+04  0.00000000000E+00 0.  1.
         -4    1    6    6    0  503  0.12326128739E+02 -0.23626371654E+02  0.98203980875E+02  0.10175539665E+03  0.00000000000E+00 0. -1.
<mgrwt>
<rscale>  0 0.48560672E+03</rscale>
<asrwt>0</asrwt>
<pdfrwt beam="1">  1        1 0.41675492E+00 0.48560672E+03</pdfrwt>
<pdfrwt beam="2">  1       -1 0.20798704E-01 0.48560672E+03</pdfrwt>
<totfact> 0.20455277E+01</totfact>
</mgrwt>
</event>
<event>
12    1  0.1338445E-007  0.7263232E+03  0.7818608E-02  0.9673246E-01
         -2   -1    0    0    0  501 -0.00000000000E+00  0.00000000000E+00  0.45976197726E+03  0.45976197726E+03  0.00000000000E+00 0.  1.
          2   -1    0    0  501    0  0.00000000000E+00 -0.00000000000E+00 -0.15278617171E+04  0.15278617171E+04  0.00000000000E+00 0. -1.
         23    2    1    2    0    0  0.30545768147E+03  0.53308145965E+03 -0.52290068133E+01  0.62117906445E+03  0.91410337522E+02 0.  0.
    5000000    2    1    2    0    0 -0.30545768147E+03 -0.53308145965E+03 -0.10628707330E+04  0.13664446299E+04  0.59999707804E+03 0.  0.
         23    2    4    4    0    0  0.33998589398E+02  0.96527545288E+02 -0.15077055832E+03  0.20351931672E+03  0.90635974866E+02 0.  0.
         23    2    4    4    0    0 -0.33945627087E+03 -0.62960900494E+03 -0.91210017467E+03  0.11629253132E+04  0.93970721016E+02 0.  0.
          3    1    3    3  502    0  0.24615358317E+03  0.46502827941E+03 -0.31693148945E+02  0.52711226779E+03  0.00000000000E+00 0. -1.
         -3    1    3    3    0  502  0.59304098299E+02  0.68053180235E+02  0.26464142131E+02  0.94066796660E+02  0.00000000000E+00 0.  1.
         11    1    5    5    0    0  0.47699977975E+02  0.81640614467E+02 -0.63412975919E+02  0.11384938886E+03  0.00000000000E+00 0. -1.
        -11    1    5    5    0    0 -0.13701388577E+02  0.14886930821E+02 -0.87357582402E+02  0.89669927854E+02  0.00000000000E+00 0.  1.
          3    1    6    6  503    0 -0.29503931281E+03 -0.46307313457E+03 -0.69325933460E+03  0.88436046331E+03  0.00000000000E+00 0. -1.
         -3    1    6    6    0  503 -0.44416958053E+02 -0.16653587037E+03 -0.21884084008E+03  0.27856484984E+03  0.00000000000E+00 0.  1.
<mgrwt>
<rscale>  0 0.72632316E+03</rscale>
<asrwt>0</asrwt>
<pdfrwt beam="1">  1        2 0.23505565E+00 0.72632316E+03</pdfrwt>
<pdfrwt beam="2">  1       -2 0.70732613E-01 0.72632316E+03</pdfrwt>
<totfact> 0.22850837E+01</totfact>
</mgrwt>
</event>
<event>
12    1  0.1338445E-007  0.6197205E+03  0.7818608E-02  0.9865316E-01
          2   -1    0    0  501    0  0.00000000000E+00  0.00000000000E+00  0.15245217005E+04  0.15245217005E+04  0.00000000000E+00 0. -1.
         -2   -1    0    0    0  501 -0.00000000000E+00 -0.00000000000E+00 -0.32048417788E+03  0.32048417788E+03  0.00000000000E+00 0.  1.
         23    2    1    2    0    0  0.20490006527E+02 -0.48113593071E+03  0.10134154194E+03  0.50045180959E+03  0.90941087601E+02 0.  0.
    5000000    2    1    2    0    0 -0.20490006527E+02  0.48113593071E+03  0.11026959807E+04  0.13445540688E+04  0.59997966124E+03 0.  0.
         23    2    4    4    0    0 -0.53741154574E+02  0.59638211180E+03  0.77170973276E+03  0.98108923109E+03  0.91871827922E+02 0.  0.
         23    2    4    4    0    0  0.33251148047E+02 -0.11524618109E+03  0.33098624798E+03  0.36346483774E+03  0.90374060562E+02 0.  0.
          3    1    3    3  502    0  0.23355835209E+02 -0.11309310574E+03 -0.10035773703E+02  0.11591489274E+03  0.00000000000E+00 0. -1.
         -3    1    3    3    0  502 -0.28658286817E+01 -0.36804282497E+03  0.11137731564E+03  0.38453691685E+03  0.00000000000E+00 0.  1.
         13    1    5    5    0    0 -0.74696161776E+02  0.31882103987E+03  0.41695529560E+03  0.53016798336E+03  0.00000000000E+00 0. -1.
        -13    1    5    5    0    0  0.20955007202E+02  0.27756107192E+03  0.35475443716E+03  0.45092124773E+03  0.00000000000E+00 0.  1.
          3    1    6    6  503    0  0.36331740447E+02 -0.15507558557E+01  0.85379582714E+02  0.92801257276E+02  0.00000000000E+00 0. -1.
         -3    1    6    6    0  503 -0.30805924004E+01 -0.11369542523E+03  0.24560666526E+03  0.27066358047E+03  0.00000000000E+00 0.  1.
<mgrwt>
<rscale>  0 0.61972047E+03</rscale>
<asrwt>0</asrwt>
<pdfrwt beam="1">  1        2 0.23454180E+00 0.61972047E+03</pdfrwt>
<pdfrwt beam="2">  1       -2 0.49305259E-01 0.61972047E+03</pdfrwt>
<totfact> 0.49685552E+01</totfact>
</mgrwt>
</event>
<event>
12    1  0.1338445E-007  0.3805293E+03  0.7818608E-02  0.1050738E+00
          2   -1    0    0  501    0  0.00000000000E+00  0.00000000000E+00  0.24816122794E+04  0.24816122794E+04  0.00000000000E+00 0. -1.
         -2   -1    0    0    0  501 -0.00000000000E+00 -0.00000000000E+00 -0.24130687566E+03  0.24130687566E+03  0.00000000000E+00 0.  1.
         23    2    1    2    0    0 -0.36261454812E+03  0.48965874125E+02  0.19090239908E+04  0.19460511574E+04  0.94103891777E+02 0.  0.
    5000000    2    1    2    0    0  0.36261454812E+03 -0.48965874125E+02  0.33128141296E+03  0.77686799769E+03  0.59990794620E+03 0.  0.
         23    2    4    4    0    0  0.22127364013E+03 -0.74064879181E+02  0.48621322668E+03  0.54678235902E+03  0.90111132492E+02 0.  0.
         23    2    4    4    0    0  0.14134090799E+03  0.25099005056E+02 -0.15493181371E+03  0.23008563866E+03  0.91259639997E+02 0.  0.
          1    1    3    3  502    0 -0.16076598536E+03 -0.25039394806E+02  0.84685759651E+03  0.86234590630E+03  0.00000000000E+00 0. -1.
         -1    1    3    3    0  502 -0.20184856277E+03  0.74005268931E+02  0.10621663943E+04  0.10837052511E+04  0.00000000000E+00 0.  1.
         11    1    5    5    0    0  0.13126350026E+03 -0.32948281358E+02  0.37095727506E+03  0.39487339194E+03  0.00000000000E+00 0. -1.
        -11    1    5    5    0    0  0.90010139873E+02 -0.41116597823E+02  0.11525595162E+03  0.15190896708E+03  0.00000000000E+00 0.  1.
          1    1    6    6  503    0  0.16540648184E+00 -0.47711322123E+01 -0.53475056710E+02  0.53687733720E+02  0.00000000000E+00 0. -1.
         -1    1    6    6    0  503  0.14117550151E+03  0.29870137269E+02 -0.10145675700E+03  0.17639790494E+03  0.00000000000E+00 0.  1.
<mgrwt>
<rscale>  0 0.38052934E+03</rscale>
<asrwt>0</asrwt>
<pdfrwt beam="1">  1        2 0.38178649E+00 0.38052934E+03</pdfrwt>
<pdfrwt beam="2">  1       -2 0.37124136E-01 0.38052934E+03</pdfrwt>
<totfact> 0.27483621E+01</totfact>
</mgrwt>
</event>
<event>
12    1  0.1338445E-007  0.1360423E+04  0.7818608E-02  0.8982975E-01
          2   -1    0    0  501    0  0.00000000000E+00  0.00000000000E+00  0.22987727317E+04  0.22987727317E+04  0.00000000000E+00 0. -1.
         -2   -1    0    0    0  501 -0.00000000000E+00 -0.00000000000E+00 -0.88376853487E+03  0.88376853487E+03  0.00000000000E+00 0.  1.
         23    2    1    2    0    0  0.80662517987E+03  0.10710112432E+04  0.41876774897E+03  0.14076712128E+04  0.91992128489E+02 0.  0.
    5000000    2    1    2    0    0 -0.80662517987E+03 -0.10710112432E+04  0.99623644791E+03  0.17748700539E+04  0.59997281937E+03 0.  0.
         23    2    4    4    0    0 -0.30311759795E+03 -0.21249013443E+03  0.27493204621E+02  0.38292123743E+03  0.94023732952E+02 0.  0.
         23    2    4    4    0    0 -0.50350758193E+03 -0.85852110881E+03  0.96874324329E+03  0.13919488164E+04  0.92085052038E+02 0.  0.
          4    1    3    3  502    0  0.69279286126E+03  0.86211183685E+03  0.34948618129E+03  0.11598876492E+04  0.00000000000E+00 0.  1.
         -4    1    3    3    0  502  0.11383231861E+03  0.20889940639E+03  0.69281567675E+02  0.24778356356E+03  0.00000000000E+00 0. -1.
         13    1    5    5    0    0 -0.16276203307E+03 -0.16867364390E+03  0.73591503475E+01  0.23451318652E+03  0.00000000000E+00 0. -1.
        -13    1    5    5    0    0 -0.14035556488E+03 -0.43816490528E+02  0.20134054273E+02  0.14840805091E+03  0.00000000000E+00 0.  1.
          4    1    6    6  503    0 -0.34999693277E+03 -0.57614957528E+03  0.59641189743E+03  0.90008518343E+03  0.00000000000E+00 0. -1.
         -4    1    6    6    0  503 -0.15351064916E+03 -0.28237153353E+03  0.37233134585E+03  0.49186363299E+03  0.00000000000E+00 0.  1.
<mgrwt>
<rscale>  0 0.13604229E+04</rscale>
<asrwt>0</asrwt>
<pdfrwt beam="1">  1        2 0.35365734E+00 0.13604229E+04</pdfrwt>
<pdfrwt beam="2">  1       -2 0.13596439E+00 0.13604229E+04</pdfrwt>
<totfact> 0.16881525E+00</totfact>
</mgrwt>
</event>
<event>
12    1  0.1338445E-007  0.4319092E+03  0.7818608E-02  0.1033259E+00
          2   -1    0    0  501    0  0.00000000000E+00  0.00000000000E+00  0.22758069515E+04  0.22758069515E+04  0.00000000000E+00 0. -1.
         -2   -1    0    0    0  501 -0.00000000000E+00 -0.00000000000E+00 -0.13005780371E+03  0.13005780371E+03  0.00000000000E+00 0.  1.
         23    2    1    2    0    0 -0.26019928953E+03  0.22345304134E+03  0.43498999702E+03  0.56135572468E+03  0.90934152960E+02 0.  0.
    5000000    2    1    2    0    0  0.26019928953E+03 -0.22345304134E+03  0.17107591508E+04  0.18445090305E+04  0.59823219555E+03 0.  0.
         23    2    4    4    0    0 -0.54237577802E+02  0.45900944580E+02  0.43824629599E+02  0.12432689725E+03  0.92130166948E+02 0.  0.
         23    2    4    4    0    0  0.31443686733E+03 -0.26935398592E+03  0.16669345212E+04  0.17201821333E+04  0.94518572205E+02 0.  0.
          4    1    3    3  502    0 -0.67185779656E+02  0.56350431663E+02  0.54807056846E+02  0.10340751238E+03  0.00000000000E+00 0. -1.
         -4    1    3    3    0  502 -0.19301350987E+03  0.16710260967E+03  0.38018294017E+03  0.45794821230E+03  0.00000000000E+00 0.  1.
         13    1    5    5    0    0 -0.27117910969E+02  0.65980856694E+02  0.53561501401E+02  0.89205879726E+02  0.00000000000E+00 0.  1.
        -13    1    5    5    0    0 -0.27119666832E+02 -0.20079912114E+02 -0.97368718018E+01  0.35121017526E+02  0.00000000000E+00 0. -1.
          1    1    6    6  503    0  0.62821101272E+02 -0.35061142392E+02  0.44594953566E+03  0.45171535598E+03  0.00000000000E+00 0. -1.
         -1    1    6    6    0  503  0.25161576606E+03 -0.23429284352E+03  0.12209849855E+04  0.12684667773E+04  0.00000000000E+00 0.  1.
<mgrwt>
<rscale>  0 0.43190921E+03</rscale>
<asrwt>0</asrwt>
<pdfrwt beam="1">  1        2 0.35012412E+00 0.43190921E+03</pdfrwt>
<pdfrwt beam="2">  1       -2 0.20008895E-01 0.43190921E+03</pdfrwt>
<totfact> 0.10787372E+02</totfact>
</mgrwt>
</event>
<event>
12    1  0.1338445E-007  0.8614794E+03  0.7818608E-02  0.9475058E-01
          1   -1    0    0  501    0  0.00000000000E+00  0.00000000000E+00  0.21263872924E+04  0.21263872924E+04  0.00000000000E+00 0. -1.
         -1   -1    0    0    0  501 -0.00000000000E+00 -0.00000000000E+00 -0.95040578326E+03  0.95040578326E+03  0.00000000000E+00 0.  1.
         23    2    1    2    0    0 -0.28695391273E+03  0.76627128996E+03 -0.60959171661E+03  0.10231341112E+04  0.75412934297E+02 0.  0.
    5000000    2    1    2    0    0  0.28695391273E+03 -0.76627128996E+03  0.17855732258E+04  0.20536589645E+04  0.59977425759E+03 0.  0.
         23    2    4    4    0    0  0.27666660463E+03 -0.80285913659E+03  0.12845620642E+04  0.15427667332E+04  0.94351961873E+02 0.  0.
         23    2    4    4    0    0  0.10287308100E+02  0.36587846634E+02  0.50101116154E+03  0.51089223137E+03  0.92488857972E+02 0.  0.
          1    1    3    3  502    0 -0.18475185980E+02  0.11457673569E+03 -0.70693309088E+02  0.13589225441E+03  0.00000000000E+00 0. -1.
         -1    1    3    3    0  502 -0.26847872675E+03  0.65169455426E+03 -0.53889840752E+03  0.88724185677E+03  0.00000000000E+00 0.  1.
         13    1    5    5    0    0  0.14284123273E+03 -0.35541990007E+03  0.50216314471E+03  0.63158114842E+03  0.00000000000E+00 0. -1.
        -13    1    5    5    0    0  0.13382537190E+03 -0.44743923653E+03  0.78239891954E+03  0.91118558474E+03  0.00000000000E+00 0.  1.
          3    1    6    6  503    0 -0.12440805869E+02  0.57913298324E+01  0.70081781109E+01  0.15408689507E+02  0.00000000000E+00 0. -1.
         -3    1    6    6    0  503  0.22728113969E+02  0.30796516802E+02  0.49400298343E+03  0.49548354186E+03  0.00000000000E+00 0.  1.
<mgrwt>
<rscale>  0 0.86147937E+03</rscale>
<asrwt>0</asrwt>
<pdfrwt beam="1">  1        1 0.32713650E+00 0.86147937E+03</pdfrwt>
<pdfrwt beam="2">  1       -1 0.14621628E+00 0.86147937E+03</pdfrwt>
<totfact> 0.94772146E-01</totfact>
</mgrwt>
</event>
<event>
12    1  0.1338445E-007  0.1330522E+04  0.7818608E-02  0.9005705E-01
          2   -1    0    0  501    0  0.00000000000E+00  0.00000000000E+00  0.29287622845E+04  0.29287622845E+04  0.00000000000E+00 0. -1.
         -2   -1    0    0    0  501 -0.00000000000E+00 -0.00000000000E+00 -0.64634987013E+03  0.64634987013E+03  0.00000000000E+00 0.  1.
         23    2    1    2    0    0  0.20310747031E+03  0.12877046450E+04  0.93732272904E+03  0.16081803959E+04  0.90743540611E+02 0.  0.
    5000000    2    1    2    0    0 -0.20310747031E+03 -0.12877046450E+04  0.13450896854E+04  0.19669317588E+04  0.60009864574E+03 0.  0.
         23    2    4    4    0    0 -0.65588969875E+02 -0.11166221343E+04  0.81871345568E+03  0.13891892911E+04  0.91696566915E+02 0.  0.
         23    2    4    4    0    0 -0.13751850044E+03 -0.17108251073E+03  0.52637622970E+03  0.57774246761E+03  0.92378895033E+02 0.  0.
          1    1    3    3  502    0  0.17800567101E+03  0.86189969149E+03  0.62006341315E+03  0.10765852188E+04  0.00000000000E+00 0. -1.
         -1    1    3    3    0  502  0.25101799296E+02  0.42580495352E+03  0.31725931589E+03  0.53159517708E+03  0.00000000000E+00 0.  1.
         11    1    5    5    0    0  0.22920840465E+02 -0.28358473661E+03  0.20116621754E+03  0.34844442146E+03  0.00000000000E+00 0. -1.
        -11    1    5    5    0    0 -0.88509810341E+02 -0.83303739768E+03  0.61754723814E+03  0.10407448697E+04  0.00000000000E+00 0.  1.
          1    1    6    6  503    0 -0.99941774097E+02 -0.16667239212E+03  0.38335152031E+03  0.42979813009E+03  0.00000000000E+00 0. -1.
         -1    1    6    6    0  503 -0.37576726339E+02 -0.44101186097E+01  0.14302470939E+03  0.14794433752E+03  0.00000000000E+00 0.  1.
<mgrwt>
<rscale>  0 0.13305220E+04</rscale>
<asrwt>0</asrwt>
<pdfrwt beam="1">  1        2 0.45057880E+00 0.13305220E+04</pdfrwt>
<pdfrwt beam="2">  1       -2 0.99438443E-01 0.13305220E+04</pdfrwt>
<totfact> 0.15721708E+00</totfact>
</mgrwt>
</event>
<event>
12    1  0.1338445E-007  0.4758588E+03  0.7818608E-02  0.1020280E+00
          2   -1    0    0  501    0  0.00000000000E+00  0.00000000000E+00  0.10377003240E+04  0.10377003240E+04  0.00000000000E+00 0.  1.
         -2   -1    0    0    0  501 -0.00000000000E+00 -0.00000000000E+00 -0.28637918093E+03  0.28637918093E+03  0.00000000000E+00 0. -1.
         23    2    1    2    0    0 -0.41969490801E+02 -0.29293463913E+03  0.54019543424E+03  0.62257896955E+03  0.90671523622E+02 0.  0.
    5000000    2    1    2    0    0  0.41969490801E+02  0.29293463913E+03  0.21112570881E+03  0.70150053535E+03  0.59996399493E+03 0.  0.
         23    2    4    4    0    0  0.28169962689E+03  0.27010979555E+02  0.12096560264E+03  0.32117568685E+03  0.91852446867E+02 0.  0.
         23    2    4    4    0    0 -0.23973013609E+03  0.26592365958E+03  0.90160106172E+02  0.38032484850E+03  0.91280966110E+02 0.  0.
          3    1    3    3  502    0 -0.22001262350E+02 -0.20916639491E+03  0.45589211527E+03  0.50206798053E+03  0.00000000000E+00 0. -1.
         -3    1    3    3    0  502 -0.19968228451E+02 -0.83768244218E+02  0.84303318974E+02  0.12051098903E+03  0.00000000000E+00 0.  1.
         13    1    5    5    0    0  0.25273739995E+03  0.53115810772E+02  0.10968826058E+03  0.28058687994E+03  0.00000000000E+00 0.  1.
        -13    1    5    5    0    0  0.28962226937E+02 -0.26104831217E+02  0.11277342062E+02  0.40588806905E+02  0.00000000000E+00 0. -1.
          3    1    6    6  503    0 -0.15409484037E+03  0.17004100411E+03  0.11822308582E+02  0.22978017731E+03  0.00000000000E+00 0. -1.
         -3    1    6    6    0  503 -0.85635295720E+02  0.95882655466E+02  0.78337797590E+02  0.15054467119E+03  0.00000000000E+00 0.  1.
<mgrwt>
<rscale>  0 0.47585883E+03</rscale>
<asrwt>0</asrwt>
<pdfrwt beam="1">  1        2 0.15964620E+00 0.47585883E+03</pdfrwt>
<pdfrwt beam="2">  1       -2 0.44058336E-01 0.47585883E+03</pdfrwt>
<totfact> 0.12083410E+02</totfact>
</mgrwt>
</event>
<event>
12    1  0.1338445E-007  0.2296503E+04  0.7818608E-02  0.8479301E-01
          2   -1    0    0  501    0  0.00000000000E+00  0.00000000000E+00  0.28228441127E+04  0.28228441127E+04  0.00000000000E+00 0. -1.
         -2   -1    0    0    0  501 -0.00000000000E+00 -0.00000000000E+00 -0.23313904692E+04  0.23313904692E+04  0.00000000000E+00 0.  1.
         23    2    1    2    0    0  0.22773039357E+04  0.27484189042E+03 -0.82849122863E+03  0.24405964122E+04  0.91988320232E+02 0.  0.
    5000000    2    1    2    0    0 -0.22773039357E+04 -0.27484189042E+03  0.13199448721E+04  0.27136381697E+04  0.59993863886E+03 0.  0.
         23    2    4    4    0    0 -0.12179564473E+04 -0.11194821807E+03  0.10243143844E+04  0.15978953437E+04  0.89995889832E+02 0.  0.
         23    2    4    4    0    0 -0.10593474884E+04 -0.16289367235E+03  0.29563048773E+03  0.11157428261E+04  0.93451692980E+02 0.  0.
          3    1    3    3  502    0  0.20160382758E+04  0.25096824702E+03 -0.70317105081E+03  0.21498476497E+04  0.00000000000E+00 0. -1.
         -3    1    3    3    0  502  0.26126565998E+03  0.23873643392E+02 -0.12532017782E+03  0.29074876251E+03  0.00000000000E+00 0.  1.
         11    1    5    5    0    0 -0.50520912003E+03 -0.90682351999E+02  0.43580322248E+03  0.67333794832E+03  0.00000000000E+00 0. -1.
        -11    1    5    5    0    0 -0.71274732729E+03 -0.21265866071E+02  0.58851116192E+03  0.92455739536E+03  0.00000000000E+00 0.  1.
          4    1    6    6  503    0 -0.98930257473E+03 -0.14088145877E+03  0.25288944755E+03  0.10307862254E+04  0.00000000000E+00 0.  1.
         -4    1    6    6    0  503 -0.70044913687E+02 -0.22012213580E+02  0.42741040175E+02  0.84956600658E+02  0.00000000000E+00 0. -1.
<mgrwt>
<rscale>  0 0.22965033E+04</rscale>
<asrwt>0</asrwt>
<pdfrwt beam="1">  1        2 0.43428371E+00 0.22965033E+04</pdfrwt>
<pdfrwt beam="2">  1       -2 0.35867545E+00 0.22965033E+04</pdfrwt>
<totfact> 0.26274025E-02</totfact>
</mgrwt>
</event>
<event>
12    1  0.1338445E-007  0.3044658E+03  0.7818608E-02  0.1083029E+00
         -1   -1    0    0    0  501 -0.00000000000E+00  0.00000000000E+00  0.25630022434E+03  0.25630022434E+03  0.00000000000E+00 0.  1.
          1   -1    0    0  501    0  0.00000000000E+00 -0.00000000000E+00 -0.84944182093E+03  0.84944182093E+03  0.00000000000E+00 0. -1.
         23    2    1    2    0    0 -0.24623589715E+03 -0.27508776292E+02 -0.27753071190E+03  0.38393681893E+03  0.94843740264E+02 0.  0.
    5000000    2    1    2    0    0  0.24623589715E+03  0.27508776292E+02 -0.31561088469E+03  0.72180522634E+03  0.60000308700E+03 0.  0.
         23    2    4    4    0    0  0.17798658979E+03  0.12965771625E+03 -0.45567294025E+03  0.51431460050E+03  0.91604204536E+02 0.  0.
         23    2    4    4    0    0  0.68249307355E+02 -0.10214893996E+03  0.14006205555E+03  0.20749062583E+03  0.91337870097E+02 0.  0.
          2    1    3    3  502    0 -0.11211957445E+03 -0.21055454894E+02 -0.61559400764E+02  0.12962905145E+03  0.00000000000E+00 0. -1.
         -2    1    3    3    0  502 -0.13411632269E+03 -0.64533213985E+01 -0.21597131113E+03  0.25430776748E+03  0.00000000000E+00 0.  1.
         13    1    5    5    0    0  0.40515742197E+02  0.79874818988E+02 -0.21202160064E+03  0.23016227147E+03  0.00000000000E+00 0.  1.
        -13    1    5    5    0    0  0.13747084759E+03  0.49782897262E+02 -0.24365133961E+03  0.28415232903E+03  0.00000000000E+00 0. -1.
          3    1    6    6  503    0  0.27794861409E+01 -0.17895913772E+02  0.85981230047E+02  0.87867862119E+02  0.00000000000E+00 0. -1.
         -3    1    6    6    0  503  0.65469821214E+02 -0.84253026186E+02  0.54080825507E+02  0.11962276372E+03  0.00000000000E+00 0.  1.
<mgrwt>
<rscale>  0 0.30446577E+03</rscale>
<asrwt>0</asrwt>
<pdfrwt beam="1">  1        1 0.13068335E+00 0.30446577E+03</pdfrwt>
<pdfrwt beam="2">  1       -1 0.39430805E-01 0.30446577E+03</pdfrwt>
<totfact> 0.13362352E+02</totfact>
</mgrwt>
</event>
<event>
12    1  0.1338445E-007  0.3757088E+03  0.7818608E-02  0.1052531E+00
         -2   -1    0    0    0  501 -0.00000000000E+00  0.00000000000E+00  0.36107602129E+03  0.36107602129E+03  0.00000000000E+00 0.  1.
          2   -1    0    0  501    0  0.00000000000E+00 -0.00000000000E+00 -0.54222744970E+03  0.54222744970E+03  0.00000000000E+00 0. -1.
         23    2    1    2    0    0 -0.19781937931E+03 -0.11518965053E+03 -0.57635461816E+02  0.24948592126E+03  0.80747854636E+02 0.  0.
    5000000    2    1    2    0    0  0.19781937931E+03  0.11518965053E+03 -0.12351596660E+03  0.65381754973E+03  0.59985000785E+03 0.  0.
         23    2    4    4    0    0  0.32605981694E+03  0.16935927590E+03 -0.24555167311E+03  0.45047181706E+03  0.87359402733E+02 0.  0.
         23    2    4    4    0    0 -0.12824043763E+03 -0.54169625361E+02  0.12203570651E+03  0.20334573267E+03  0.84123808620E+02 0.  0.
          4    1    3    3  502    0 -0.14144919220E+03 -0.70920600359E+02 -0.11641275473E+01  0.15823703967E+03  0.00000000000E+00 0.  1.
         -4    1    3    3    0  502 -0.56370187105E+02 -0.44269050176E+02 -0.56471334269E+02  0.91248881592E+02  0.00000000000E+00 0. -1.
         11    1    5    5    0    0  0.29091449777E+03  0.11645116651E+03 -0.21474114897E+03  0.37987613804E+03  0.00000000000E+00 0.  1.
        -11    1    5    5    0    0  0.35145319167E+02  0.52908109386E+02 -0.30810524146E+02  0.70595679020E+02  0.00000000000E+00 0. -1.
          1    1    6    6  503    0 -0.48728181621E+02 -0.54572628675E+00  0.89796496038E+02  0.10216723644E+03  0.00000000000E+00 0. -1.
         -1    1    6    6    0  503 -0.79512256010E+02 -0.53623899074E+02  0.32239210474E+02  0.10117849623E+03  0.00000000000E+00 0.  1.
<mgrwt>
<rscale>  0 0.37570883E+03</rscale>
<asrwt>0</asrwt>
<pdfrwt beam="1">  1        2 0.83419607E-01 0.37570883E+03</pdfrwt>
<pdfrwt beam="2">  1       -2 0.55550157E-01 0.37570883E+03</pdfrwt>
<totfact> 0.17604699E+02</totfact>
</mgrwt>
</event>
<event>
12    1  0.1338445E-007  0.8943313E+03  0.7818608E-02  0.9432695E-01
         -2   -1    0    0    0  501 -0.00000000000E+00  0.00000000000E+00  0.31909154430E+03  0.31909154430E+03  0.00000000000E+00 0.  1.
          2   -1    0    0  501    0  0.00000000000E+00 -0.00000000000E+00 -0.35681318631E+04  0.35681318631E+04  0.00000000000E+00 0. -1.
         23    2    1    2    0    0 -0.73688460590E+03 -0.48555660997E+03 -0.72099591707E+03  0.11432012416E+04  0.91158227521E+02 0.  0.
    5000000    2    1    2    0    0  0.73688460590E+03  0.48555660997E+03 -0.25280444017E+04  0.27440221658E+04  0.59990416352E+03 0.  0.
         23    2    4    4    0    0  0.35698162359E+03  0.33554697325E+03 -0.64503375920E+03  0.81512766383E+03  0.91306664547E+02 0.  0.
         23    2    4    4    0    0  0.37990298231E+03  0.15000963672E+03 -0.18830106425E+04  0.19288945020E+04  0.89865192422E+02 0.  0.
          2    1    3    3  502    0 -0.15937832140E+03 -0.15209952576E+03 -0.17897264134E+03  0.28384312818E+03  0.00000000000E+00 0. -1.
         -2    1    3    3    0  502 -0.57750628450E+03 -0.33345708421E+03 -0.54202327574E+03  0.85935811341E+03  0.00000000000E+00 0.  1.
         11    1    5    5    0    0  0.16416211916E+02  0.31731647890E+01 -0.52846465014E+02  0.55428420985E+02  0.00000000000E+00 0.  1.
        -11    1    5    5    0    0  0.34056541167E+03  0.33237380846E+03 -0.59218729419E+03  0.75969924284E+03  0.00000000000E+00 0. -1.
          3    1    6    6  503    0  0.34216159909E+03  0.12878590679E+03 -0.17799354494E+04  0.18170939914E+04  0.00000000000E+00 0. -1.
         -3    1    6    6    0  503  0.37741383226E+02  0.21223729929E+02 -0.10307519317E+03  0.11180051058E+03  0.00000000000E+00 0.  1.
<mgrwt>
<rscale>  0 0.89433132E+03</rscale>
<asrwt>0</asrwt>
<pdfrwt beam="1">  1        2 0.54894337E+00 0.89433132E+03</pdfrwt>
<pdfrwt beam="2">  1       -2 0.49091006E-01 0.89433132E+03</pdfrwt>
<totfact> 0.30247469E+00</totfact>
</mgrwt>
</event>
<event>
12    1  0.1338445E-007  0.8994444E+03  0.7818608E-02  0.9426276E-01
         -1   -1    0    0    0  501 -0.00000000000E+00  0.00000000000E+00  0.58401193489E+03  0.58401193489E+03  0.00000000000E+00 0.  1.
          1   -1    0    0  501    0  0.00000000000E+00 -0.00000000000E+00 -0.15257182837E+04  0.15257182837E+04  0.00000000000E+00 0. -1.
         23    2    1    2    0    0  0.17380798831E+03 -0.82031783650E+03 -0.29908388807E+03  0.89480986392E+03  0.90016391745E+02 0.  0.
    5000000    2    1    2    0    0 -0.17380798831E+03  0.82031783650E+03 -0.64262246076E+03  0.12149203547E+04  0.59994772393E+03 0.  0.
         23    2    4    4    0    0  0.44886894714E+02 -0.42461873408E+02 -0.18078159855E+03  0.20794849840E+03  0.82114235091E+02 0.  0.
         23    2    4    4    0    0 -0.21869488302E+03  0.86277970991E+03 -0.46184086221E+03  0.10069718563E+04  0.92081798564E+02 0.  0.
          3    1    3    3  502    0  0.32131582638E+02 -0.33977543643E+03 -0.14331027281E+03  0.37015891195E+03  0.00000000000E+00 0. -1.
         -3    1    3    3    0  502  0.14167640567E+03 -0.48054240008E+03 -0.15577361525E+03  0.52465095197E+03  0.00000000000E+00 0.  1.
         13    1    5    5    0    0  0.17000626927E+02 -0.15719626671E+02 -0.16433308742E+03  0.16595629425E+03  0.00000000000E+00 0.  1.
        -13    1    5    5    0    0  0.27886267787E+02 -0.26742246737E+02 -0.16448511124E+02  0.41992204155E+02  0.00000000000E+00 0. -1.
          4    1    6    6  503    0 -0.19950954853E+03  0.62071070071E+03 -0.33564931189E+03  0.73331186715E+03  0.00000000000E+00 0.  1.
         -4    1    6    6    0  503 -0.19185334492E+02  0.24206900920E+03 -0.12619155033E+03  0.27365998913E+03  0.00000000000E+00 0. -1.
<mgrwt>
<rscale>  0 0.89944441E+03</rscale>
<asrwt>0</asrwt>
<pdfrwt beam="1">  1        1 0.23472589E+00 0.89944441E+03</pdfrwt>
<pdfrwt beam="2">  1       -1 0.89847990E-01 0.89944441E+03</pdfrwt>
<totfact> 0.77519428E+00</totfact>
</mgrwt>
</event>
<event>
12    1  0.1338445E-007  0.4129643E+03  0.7818608E-02  0.1039381E+00
         -2   -1    0    0    0  501 -0.00000000000E+00  0.00000000000E+00  0.13326288610E+03  0.13326288610E+03  0.00000000000E+00 0.  1.
          2   -1    0    0  501    0  0.00000000000E+00 -0.00000000000E+00 -0.21031399075E+04  0.21031399075E+04  0.00000000000E+00 0. -1.
         23    2    1    2    0    0 -0.18539121739E+02 -0.34936333015E+03 -0.59656477915E+03  0.69750791769E+03  0.90715621768E+02 0.  0.
    5000000    2    1    2    0    0  0.18539121739E+02  0.34936333015E+03 -0.13733122422E+04  0.15388948759E+04  0.59984372038E+03 0.  0.
         23    2    4    4    0    0 -0.10799514072E+03  0.48272756744E+02 -0.27668196258E+02  0.15122214408E+03  0.90052197718E+02 0.  0.
         23    2    4    4    0    0  0.12653426245E+03  0.30109057340E+03 -0.13456440459E+04  0.13876727318E+04  0.90615998458E+02 0.  0.
          3    1    3    3  502    0  0.11683028813E+02 -0.15929497750E+03 -0.35001560251E+03  0.38473666971E+03  0.00000000000E+00 0. -1.
         -3    1    3    3    0  502 -0.30222150552E+02 -0.19006835264E+03 -0.24654917664E+03  0.31277124798E+03  0.00000000000E+00 0.  1.
         13    1    5    5    0    0 -0.43334349698E+02  0.55728540639E+02  0.16582386859E+02  0.72515595974E+02  0.00000000000E+00 0. -1.
        -13    1    5    5    0    0 -0.64660791018E+02 -0.74557838944E+01 -0.44250583117E+02  0.78706548105E+02  0.00000000000E+00 0.  1.
          1    1    6    6  503    0  0.18122047760E+01  0.10913576751E+03 -0.48216366122E+03  0.49436393076E+03  0.00000000000E+00 0. -1.
         -1    1    6    6    0  503  0.12472205768E+03  0.19195480590E+03 -0.86348038473E+03  0.89330880103E+03  0.00000000000E+00 0.  1.
<mgrwt>
<rscale>  0 0.41296425E+03</rscale>
<asrwt>0</asrwt>
<pdfrwt beam="1">  1        2 0.32356001E+00 0.41296425E+03</pdfrwt>
<pdfrwt beam="2">  1       -2 0.20501981E-01 0.41296425E+03</pdfrwt>
<totfact> 0.12866423E+02</totfact>
</mgrwt>
</event>
<event>
12    1  0.1338445E-007  0.8684417E+03  0.7818608E-02  0.9465914E-01
          2   -1    0    0  501    0  0.00000000000E+00  0.00000000000E+00  0.26873413033E+04  0.26873413033E+04  0.00000000000E+00 0. -1.
         -2   -1    0    0    0  501 -0.00000000000E+00 -0.00000000000E+00 -0.29293018052E+03  0.29293018052E+03  0.00000000000E+00 0.  1.
         23    2    1    2    0    0  0.30978797319E+03  0.71179850427E+03  0.12314630300E+04  0.14587350082E+04  0.93706621028E+02 0.  0.
    5000000    2    1    2    0    0 -0.30978797319E+03 -0.71179850427E+03  0.11629480927E+04  0.15215364756E+04  0.59999940094E+03 0.  0.
         23    2    4    4    0    0  0.10893327670E+03 -0.21769694556E+02  0.72198080292E+02  0.16084620449E+03  0.91206141947E+02 0.  0.
         23    2    4    4    0    0 -0.41872124989E+03 -0.69002880971E+03  0.10907500124E+04  0.13606902711E+04  0.10136656674E+03 0.  0.
          3    1    3    3  502    0  0.19032811775E+03  0.32417982400E+03  0.61549024868E+03  0.72121120133E+03  0.00000000000E+00 0. -1.
         -3    1    3    3    0  502  0.11945985544E+03  0.38761868027E+03  0.61597278133E+03  0.73752380687E+03  0.00000000000E+00 0.  1.
         11    1    5    5    0    0 -0.15508740106E+02  0.49548258969E+01  0.57566190077E+01  0.17268757388E+02  0.00000000000E+00 0.  1.
        -11    1    5    5    0    0  0.12444201681E+03 -0.26724520453E+02  0.66441461284E+02  0.14357744711E+03  0.00000000000E+00 0. -1.
          1    1    6    6  503    0 -0.22781394704E+03 -0.45627655220E+03  0.72695085148E+03  0.88800057828E+03  0.00000000000E+00 0. -1.
         -1    1    6    6    0  503 -0.19090730285E+03 -0.23375225751E+03  0.36379916096E+03  0.47268969281E+03  0.00000000000E+00 0.  1.
<mgrwt>
<rscale>  0 0.86844171E+03</rscale>
<asrwt>0</asrwt>
<pdfrwt beam="1">  1        2 0.41343711E+00 0.86844171E+03</pdfrwt>
<pdfrwt beam="2">  1       -2 0.45066183E-01 0.86844171E+03</pdfrwt>
<totfact> 0.13041771E+01</totfact>
</mgrwt>
</event>
<event>
12    1  0.1338445E-007  0.1025985E+04  0.7818608E-02  0.9280495E-01
         -2   -1    0    0    0  501 -0.00000000000E+00  0.00000000000E+00  0.45299882048E+03  0.45299882048E+03  0.00000000000E+00 0.  1.
          2   -1    0    0  501    0  0.00000000000E+00 -0.00000000000E+00 -0.27737030156E+04  0.27737030156E+04  0.00000000000E+00 0. -1.
         23    2    1    2    0    0  0.10225267952E+04 -0.58654210533E+02 -0.83025491589E+03  0.13214654040E+04  0.89141602613E+02 0.  0.
    5000000    2    1    2    0    0 -0.10225267952E+04  0.58654210533E+02 -0.14904492793E+04  0.19052364321E+04  0.59957105056E+03 0.  0.
         23    2    4    4    0    0 -0.51868780588E+03  0.39295493868E+02 -0.12134440009E+04  0.13234579337E+04  0.92267995450E+02 0.  0.
         23    2    4    4    0    0 -0.50383898935E+03  0.19358716664E+02 -0.27700527831E+03  0.58177849838E+03  0.86636077223E+02 0.  0.
          3    1    3    3  502    0  0.76448785988E+03 -0.24443691517E+02 -0.66153652673E+03  0.10112713573E+04  0.00000000000E+00 0. -1.
         -3    1    3    3    0  502  0.25803893535E+03 -0.34210519016E+02 -0.16871838915E+03  0.31019404669E+03  0.00000000000E+00 0.  1.
         11    1    5    5    0    0 -0.38754394351E+02 -0.10143045001E+02 -0.15743610490E+03  0.16245279797E+03  0.00000000000E+00 0. -1.
        -11    1    5    5    0    0 -0.47993341153E+03  0.49438538869E+02 -0.10560078960E+04  0.11610051357E+04  0.00000000000E+00 0.  1.
          1    1    6    6  503    0 -0.22831662558E+03  0.12331355865E+02 -0.77085901707E+02  0.24129397029E+03  0.00000000000E+00 0. -1.
         -1    1    6    6    0  503 -0.27552236376E+03  0.70273607993E+01 -0.19991937660E+03  0.34048452810E+03  0.00000000000E+00 0.  1.
<mgrwt>
<rscale>  0 0.10259848E+04</rscale>
<asrwt>0</asrwt>
<pdfrwt beam="1">  1        2 0.42672353E+00 0.10259848E+04</pdfrwt>
<pdfrwt beam="2">  1       -2 0.69692128E-01 0.10259848E+04</pdfrwt>
<totfact> 0.45610123E+00</totfact>
</mgrwt>
</event>
<event>
12    1  0.1338445E-007  0.5733607E+03  0.7818608E-02  0.9962269E-01
         -2   -1    0    0    0  501 -0.00000000000E+00  0.00000000000E+00  0.12986105948E+04  0.12986105948E+04  0.00000000000E+00 0.  1.
          2   -1    0    0  501    0  0.00000000000E+00 -0.00000000000E+00 -0.31964144766E+03  0.31964144766E+03  0.00000000000E+00 0. -1.
         23    2    1    2    0    0 -0.43126457190E+03 -0.51945785815E+02  0.69549809598E+03  0.82511749525E+03  0.91726679958E+02 0.  0.
    5000000    2    1    2    0    0  0.43126457190E+03  0.51945785815E+02  0.28347105111E+03  0.79313454717E+03  0.60001589767E+03 0.  0.
         23    2    4    4    0    0  0.43872374544E+02  0.24662807811E+03  0.22170802120E+03  0.34690734297E+03  0.91869819729E+02 0.  0.
         23    2    4    4    0    0  0.38739219735E+03 -0.19468229230E+03  0.61763029908E+02  0.44622720420E+03  0.85616215749E+02 0.  0.
          1    1    3    3  502    0 -0.63623817476E+02  0.19713157550E+02  0.74766505405E+02  0.10013305679E+03  0.00000000000E+00 0. -1.
         -1    1    3    3    0  502 -0.36764075442E+03 -0.71658943365E+02  0.62073159057E+03  0.72498443846E+03  0.00000000000E+00 0.  1.
         13    1    5    5    0    0 -0.28091210430E+02  0.53652876943E+02  0.43661014015E+02  0.74659436460E+02  0.00000000000E+00 0. -1.
        -13    1    5    5    0    0  0.71963584974E+02  0.19297520117E+03  0.17804700719E+03  0.27224790651E+03  0.00000000000E+00 0.  1.
          2    1    6    6  503    0  0.31861203308E+03 -0.18797259316E+03  0.70447766328E+02  0.37657696582E+03  0.00000000000E+00 0.  1.
         -2    1    6    6    0  503  0.68780164270E+02 -0.67096991346E+01 -0.86847364199E+01  0.69650238378E+02  0.00000000000E+00 0. -1.
<mgrwt>
<rscale>  0 0.57336067E+03</rscale>
<asrwt>0</asrwt>
<pdfrwt beam="1">  1        2 0.49175608E-01 0.57336067E+03</pdfrwt>
<pdfrwt beam="2">  1       -2 0.19978624E+00 0.57336067E+03</pdfrwt>
<totfact> 0.14150661E+01</totfact>
</mgrwt>
</event>
<event>
12    1  0.1338445E-007  0.1672360E+04  0.7818608E-02  0.8777287E-01
          2   -1    0    0  501    0  0.00000000000E+00  0.00000000000E+00  0.32121338474E+04  0.32121338474E+04  0.00000000000E+00 0.  1.
         -2   -1    0    0    0  501 -0.00000000000E+00 -0.00000000000E+00 -0.98407989879E+03  0.98407989879E+03  0.00000000000E+00 0. -1.
         23    2    1    2    0    0  0.16636290875E+04  0.10667273812E+02  0.16263748834E+04  0.23283022497E+04  0.90114221790E+02 0.  0.
    5000000    2    1    2    0    0 -0.16636290875E+04 -0.10667273812E+02  0.60167906521E+03  0.18679114965E+04  0.59941649120E+03 0.  0.
         23    2    4    4    0    0 -0.60176130156E+03  0.82893433277E+02  0.50146383044E+03  0.79331078201E+03  0.94276393028E+02 0.  0.
         23    2    4    4    0    0 -0.10618677859E+04 -0.93560707089E+02  0.10021523477E+03  0.10746007145E+04  0.91688612584E+02 0.  0.
          3    1    3    3  502    0  0.72716971523E+03  0.49351056234E+02  0.71306454099E+03  0.10196432519E+04  0.00000000000E+00 0. -1.
         -3    1    3    3    0  502  0.93645937226E+03 -0.38683782422E+02  0.91331034245E+03  0.13086589978E+04  0.00000000000E+00 0.  1.
         13    1    5    5    0    0 -0.25278871597E+03  0.13696336380E+02  0.15572402243E+03  0.29721994502E+03  0.00000000000E+00 0. -1.
        -13    1    5    5    0    0 -0.34897258559E+03  0.69197096897E+02  0.34573980800E+03  0.49609083700E+03  0.00000000000E+00 0.  1.
          4    1    6    6  503    0 -0.81139136484E+03 -0.10931813187E+03  0.86001114728E+02  0.82322693872E+03  0.00000000000E+00 0. -1.
         -4    1    6    6    0  503 -0.25047642108E+03  0.15757424781E+02  0.14214120039E+02  0.25137377580E+03  0.00000000000E+00 0.  1.
<mgrwt>
<rscale>  0 0.16723604E+04</rscale>
<asrwt>0</asrwt>
<pdfrwt beam="1">  1        2 0.49417443E+00 0.16723604E+04</pdfrwt>
<pdfrwt beam="2">  1       -2 0.15139691E+00 0.16723604E+04</pdfrwt>
<totfact> 0.34666477E-01</totfact>
</mgrwt>
</event>
<event>
12    1  0.1338445E-007  0.1151885E+04  0.7818608E-02  0.9156046E-01
          1   -1    0    0  501    0  0.00000000000E+00  0.00000000000E+00  0.27437880229E+04  0.27437880229E+04  0.00000000000E+00 0. -1.
         -1   -1    0    0    0  501 -0.00000000000E+00 -0.00000000000E+00 -0.58822489790E+03  0.58822489790E+03  0.00000000000E+00 0.  1.
         23    2    1    2    0    0  0.38484697448E+03  0.10124948570E+04  0.34885579540E+03  0.11416806895E+04  0.92094525663E+02 0.  0.
    5000000    2    1    2    0    0 -0.38484697448E+03 -0.10124948570E+04  0.18067073296E+04  0.21903322312E+04  0.60009239225E+03 0.  0.
         23    2    4    4    0    0 -0.31571002390E+03 -0.15014729282E+03  0.43319798838E+03  0.56450070773E+03  0.93720452211E+02 0.  0.
         23    2    4    4    0    0 -0.69136950586E+02 -0.86234756418E+03  0.13735093412E+04  0.16258315235E+04  0.91525914871E+02 0.  0.
          3    1    3    3  502    0  0.16277118612E+03  0.53838266289E+03  0.15523948825E+03  0.58348063330E+03  0.00000000000E+00 0. -1.
         -3    1    3    3    0  502  0.22207578837E+03  0.47411219411E+03  0.19361630715E+03  0.55820005623E+03  0.00000000000E+00 0.  1.
         11    1    5    5    0    0 -0.20800793915E+03 -0.80558592442E+02  0.33727175325E+03  0.40436273951E+03  0.00000000000E+00 0.  1.
        -11    1    5    5    0    0 -0.10770208475E+03 -0.69588700378E+02  0.95926235131E+02  0.16013796822E+03  0.00000000000E+00 0. -1.
          2    1    6    6  503    0 -0.39848601053E+02 -0.72273300883E+03  0.10898433285E+04  0.13083154795E+04  0.00000000000E+00 0. -1.
         -2    1    6    6    0  503 -0.29288349533E+02 -0.13961455534E+03  0.28366601266E+03  0.31751604404E+03  0.00000000000E+00 0.  1.
<mgrwt>
<rscale>  0 0.11518853E+04</rscale>
<asrwt>0</asrwt>
<pdfrwt beam="1">  1        1 0.42212123E+00 0.11518853E+04</pdfrwt>
<pdfrwt beam="2">  1       -1 0.90496140E-01 0.11518853E+04</pdfrwt>
<totfact> 0.10906598E+00</totfact>
</mgrwt>
</event>
<event>
12    1  0.1338445E-007  0.4039653E+03  0.7818608E-02  0.1042415E+00
          1   -1    0    0  501    0  0.00000000000E+00  0.00000000000E+00  0.49053927801E+03  0.49053927801E+03  0.00000000000E+00 0. -1.
         -1   -1    0    0    0  501 -0.00000000000E+00 -0.00000000000E+00 -0.53027347984E+03  0.53027347984E+03  0.00000000000E+00 0.  1.
         23    2    1    2    0    0  0.12546390472E+02 -0.24292996519E+03  0.19722801984E+03  0.33142568643E+03  0.10849752952E+03 0.  0.
    5000000    2    1    2    0    0 -0.12546390472E+02  0.24292996519E+03 -0.23696222167E+03  0.68938707142E+03  0.59994254711E+03 0.  0.
         23    2    4    4    0    0  0.36267835615E+02  0.37225199979E+03 -0.32222051681E+03  0.50308888065E+03  0.96878548373E+02 0.  0.
         23    2    4    4    0    0 -0.48814226087E+02 -0.12932203460E+03  0.85258295135E+02  0.18629819077E+03  0.91274430651E+02 0.  0.
          4    1    3    3  502    0  0.52485540749E+02 -0.19347042868E+03  0.16756912770E+03  0.26127562328E+03  0.00000000000E+00 0. -1.
         -4    1    3    3    0  502 -0.39939150277E+02 -0.49459536515E+02  0.29658892142E+02  0.70150063152E+02  0.00000000000E+00 0.  1.
         11    1    5    5    0    0 -0.30284597232E+02  0.11902622064E+03 -0.81319716216E+02  0.14730001451E+03  0.00000000000E+00 0. -1.
        -11    1    5    5    0    0  0.66552432848E+02  0.25322577916E+03 -0.24090080059E+03  0.35578886615E+03  0.00000000000E+00 0.  1.
          3    1    6    6  503    0 -0.53579821299E+02 -0.33243789309E+02  0.59539488121E+02  0.86723107784E+02  0.00000000000E+00 0. -1.
         -3    1    6    6    0  503  0.47655952111E+01 -0.96078245294E+02  0.25718807014E+02  0.99575082982E+02  0.00000000000E+00 0.  1.
<mgrwt>
<rscale>  0 0.40396528E+03</rscale>
<asrwt>0</asrwt>
<pdfrwt beam="1">  1        1 0.75467581E-01 0.40396528E+03</pdfrwt>
<pdfrwt beam="2">  1       -1 0.81580535E-01 0.40396528E+03</pdfrwt>
<totfact> 0.71882026E+01</totfact>
</mgrwt>
</event>
<event>
12    1  0.1338445E-007  0.1937105E+04  0.7818608E-02  0.8636604E-01
          2   -1    0    0  501    0  0.00000000000E+00  0.00000000000E+00  0.17681697872E+04  0.17681697872E+04  0.00000000000E+00 0. -1.
         -2   -1    0    0    0  501 -0.00000000000E+00 -0.00000000000E+00 -0.22229659938E+04  0.22229659938E+04  0.00000000000E+00 0.  1.
         23    2    1    2    0    0  0.15726252007E+04 -0.11229236963E+04 -0.34108614497E+03  0.19643837278E+04  0.91411279115E+02 0.  0.
    5000000    2    1    2    0    0 -0.15726252007E+04  0.11229236963E+04 -0.11371006169E+03  0.20267520532E+04  0.60057160891E+03 0.  0.
         23    2    4    4    0    0 -0.36930903575E+03  0.31277649706E+03 -0.27540289300E+03  0.56424182785E+03  0.91125110833E+02 0.  0.
         23    2    4    4    0    0 -0.12033161650E+04  0.81014719926E+03  0.16169283131E+03  0.14625102254E+04  0.92104887351E+02 0.  0.
          1    1    3    3  502    0  0.29482717186E+03 -0.20797278594E+03 -0.10005752100E+03  0.37441587635E+03  0.00000000000E+00 0. -1.
         -1    1    3    3    0  502  0.12777980289E+04 -0.91495091038E+03 -0.24102862396E+03  0.15899678514E+04  0.00000000000E+00 0.  1.
         13    1    5    5    0    0 -0.33510158547E+03  0.30957680984E+03 -0.24244891647E+03  0.51663560744E+03  0.00000000000E+00 0.  1.
        -13    1    5    5    0    0 -0.34207450278E+02  0.31996872209E+01 -0.32953976530E+02  0.47606220413E+02  0.00000000000E+00 0. -1.
          3    1    6    6  503    0 -0.48176589104E+03  0.29930556350E+03  0.10334550863E+03  0.57650887960E+03  0.00000000000E+00 0. -1.
         -3    1    6    6    0  503 -0.72155027396E+03  0.51084163576E+03  0.58347322684E+02  0.88600134579E+03  0.00000000000E+00 0.  1.
<mgrwt>
<rscale>  0 0.19371050E+04</rscale>
<asrwt>0</asrwt>
<pdfrwt beam="1">  1        2 0.27202612E+00 0.19371050E+04</pdfrwt>
<pdfrwt beam="2">  1       -2 0.34199477E+00 0.19371050E+04</pdfrwt>
<totfact> 0.14087866E-01</totfact>
</mgrwt>
</event>
<event>
12    1  0.1338445E-007  0.6865241E+03  0.7818608E-02  0.9740559E-01
         -2   -1    0    0    0  501 -0.00000000000E+00  0.00000000000E+00  0.25635808885E+03  0.25635808885E+03  0.00000000000E+00 0.  1.
          2   -1    0    0  501    0  0.00000000000E+00 -0.00000000000E+00 -0.20017360852E+04  0.20017360852E+04  0.00000000000E+00 0. -1.
         23    2    1    2    0    0  0.12588019182E+03 -0.56339819900E+03 -0.55988733646E+03  0.80939815866E+03  0.91587097246E+02 0.  0.
    5000000    2    1    2    0    0 -0.12588019182E+03  0.56339819900E+03 -0.11854906599E+04  0.14486960154E+04  0.60005723641E+03 0.  0.
         23    2    4    4    0    0 -0.32611944563E+03  0.23869010960E+03 -0.42628246506E+03  0.59419058169E+03  0.89548010101E+02 0.  0.
         23    2    4    4    0    0  0.20023925381E+03  0.32470808941E+03 -0.75920819481E+03  0.85450543368E+03  0.90836947448E+02 0.  0.
          2    1    3    3  502    0  0.21785604970E+02 -0.14445536430E+03 -0.91273960512E+02  0.17225823849E+03  0.00000000000E+00 0. -1.
         -2    1    3    3    0  502  0.10409458685E+03 -0.41894283470E+03 -0.46861337595E+03  0.63713992017E+03  0.00000000000E+00 0.  1.
         11    1    5    5    0    0 -0.17278601668E+03  0.73759940771E+02 -0.17476198175E+03  0.25658777580E+03  0.00000000000E+00 0. -1.
        -11    1    5    5    0    0 -0.15333342895E+03  0.16493016883E+03 -0.25152048331E+03  0.33760280589E+03  0.00000000000E+00 0.  1.
          2    1    6    6  503    0  0.16940181045E+03  0.25695980577E+03 -0.52292820480E+03  0.60677773735E+03  0.00000000000E+00 0. -1.
         -2    1    6    6    0  503  0.30837443355E+02  0.67748283638E+02 -0.23627999001E+03  0.24772769633E+03  0.00000000000E+00 0.  1.
<mgrwt>
<rscale>  0 0.68652409E+03</rscale>
<asrwt>0</asrwt>
<pdfrwt beam="1">  1        2 0.30795939E+00 0.68652409E+03</pdfrwt>
<pdfrwt beam="2">  1       -2 0.39439707E-01 0.68652409E+03</pdfrwt>
<totfact> 0.42129181E+01</totfact>
</mgrwt>
</event>
<event>
12    1  0.1338445E-007  0.9469701E+03  0.7818608E-02  0.9368699E-01
          1   -1    0    0  501    0  0.00000000000E+00  0.00000000000E+00  0.14776394960E+04  0.14776394960E+04  0.00000000000E+00 0. -1.
         -1   -1    0    0    0  501 -0.00000000000E+00 -0.00000000000E+00 -0.11211525667E+04  0.11211525667E+04  0.00000000000E+00 0.  1.
         23    2    1    2    0    0  0.31331384580E+03  0.88680464310E+03 -0.60843821004E+03  0.11237585038E+04  0.89711082878E+02 0.  0.
    5000000    2    1    2    0    0 -0.31331384580E+03 -0.88680464310E+03  0.96492513939E+03  0.14750335590E+04  0.60004619356E+03 0.  0.
         23    2    4    4    0    0 -0.28574019692E+03 -0.66559717673E+03  0.99506672574E+03  0.12339414582E+04  0.88242120525E+02 0.  0.
         23    2    4    4    0    0 -0.27573648875E+02 -0.22120746638E+03 -0.30141586351E+02  0.24109210073E+03  0.86740051375E+02 0.  0.
          4    1    3    3  502    0  0.80090371409E+02  0.12832529240E+03 -0.97779125034E+02  0.18011830988E+03  0.00000000000E+00 0. -1.
         -4    1    3    3    0  502  0.23322347439E+03  0.75847935070E+03 -0.51065908500E+03  0.94364019390E+03  0.00000000000E+00 0.  1.
         11    1    5    5    0    0 -0.24709615208E+03 -0.60412087185E+03  0.93163244117E+03  0.11375225455E+04  0.00000000000E+00 0. -1.
        -11    1    5    5    0    0 -0.38644044842E+02 -0.61476304873E+02  0.63434284572E+02  0.96418912677E+02  0.00000000000E+00 0.  1.
          3    1    6    6  503    0 -0.12750484106E+02 -0.17119431731E+03  0.14709813979E+02  0.17229755585E+03  0.00000000000E+00 0. -1.
         -3    1    6    6    0  503 -0.14823164770E+02 -0.50013149062E+02 -0.44851400331E+02  0.68794544875E+02  0.00000000000E+00 0.  1.
<mgrwt>
<rscale>  0 0.94697012E+03</rscale>
<asrwt>0</asrwt>
<pdfrwt beam="1">  1        1 0.22732915E+00 0.94697012E+03</pdfrwt>
<pdfrwt beam="2">  1       -1 0.17248501E+00 0.94697012E+03</pdfrwt>
<totfact> 0.16216694E+00</totfact>
</mgrwt>
</event>
<event>
12    1  0.1338445E-007  0.4020679E+03  0.7818608E-02  0.1043066E+00
          1   -1    0    0  501    0  0.00000000000E+00  0.00000000000E+00  0.70753021687E+03  0.70753021687E+03  0.00000000000E+00 0. -1.
         -1   -1    0    0    0  501 -0.00000000000E+00 -0.00000000000E+00 -0.46874193821E+03  0.46874193821E+03  0.00000000000E+00 0.  1.
         23    2    1    2    0    0 -0.21477688136E+03 -0.35904806865E+02  0.44647281222E+03  0.50510267145E+03  0.91501217095E+02 0.  0.
    5000000    2    1    2    0    0  0.21477688136E+03  0.35904806865E+02 -0.20768453356E+03  0.67116948363E+03  0.59993111801E+03 0.  0.
         23    2    4    4    0    0  0.26976793746E+03  0.22607135759E+03 -0.26138218360E+03  0.44945240636E+03  0.99014245815E+02 0.  0.
         23    2    4    4    0    0 -0.54991056098E+02 -0.19016655072E+03  0.53697650041E+02  0.22171707727E+03  0.84188428363E+02 0.  0.
          1    1    3    3  502    0 -0.83615094053E+02 -0.59137396583E+02  0.21178677910E+03  0.23524955990E+03  0.00000000000E+00 0. -1.
         -1    1    3    3    0  502 -0.13116178731E+03  0.23232589718E+02  0.23468603312E+03  0.26985311155E+03  0.00000000000E+00 0.  1.
         11    1    5    5    0    0  0.11836765819E+03  0.48401602533E+02 -0.60422826457E+02  0.14143739106E+03  0.00000000000E+00 0.  1.
        -11    1    5    5    0    0  0.15140027927E+03  0.17766975505E+03 -0.20095935714E+03  0.30801501529E+03  0.00000000000E+00 0. -1.
          4    1    6    6  503    0 -0.50437817706E+02 -0.66527013531E+02  0.51266696773E+02  0.97969848333E+02  0.00000000000E+00 0. -1.
         -4    1    6    6    0  503 -0.45532383926E+01 -0.12363953719E+03  0.24309532677E+01  0.12374722894E+03  0.00000000000E+00 0.  1.
<mgrwt>
<rscale>  0 0.40206793E+03</rscale>
<asrwt>0</asrwt>
<pdfrwt beam="1">  1        1 0.10885080E+00 0.40206793E+03</pdfrwt>
<pdfrwt beam="2">  1       -1 0.72114144E-01 0.40206793E+03</pdfrwt>
<totfact> 0.55403401E+01</totfact>
</mgrwt>
</event>
<event>
12    1  0.1338445E-007  0.7503711E+03  0.7818608E-02  0.9634768E-01
         -1   -1    0    0    0  501 -0.00000000000E+00  0.00000000000E+00  0.91196941822E+03  0.91196941822E+03  0.00000000000E+00 0. -1.
          1   -1    0    0  501    0  0.00000000000E+00 -0.00000000000E+00 -0.72132495795E+03  0.72132495795E+03  0.00000000000E+00 0.  1.
         23    2    1    2    0    0  0.22197920636E+02  0.64760690179E+03  0.34042962705E+03  0.73755704683E+03  0.90612468374E+02 0.  0.
    5000000    2    1    2    0    0 -0.22197920636E+02 -0.64760690179E+03 -0.14978516678E+03  0.89573732934E+03  0.60001859975E+03 0.  0.
         23    2    4    4    0    0 -0.36465608047E+02  0.75537253034E+02 -0.11047778540E+03  0.16551697397E+03  0.90304542739E+02 0.  0.
         23    2    4    4    0    0  0.14267687411E+02 -0.72314415483E+03 -0.39307381378E+02  0.73022035536E+03  0.92388644253E+02 0.  0.
          4    1    3    3  502    0  0.43986382753E+02  0.43917444701E+03  0.26507355576E+03  0.51485239316E+03  0.00000000000E+00 0. -1.
         -4    1    3    3    0  502 -0.21788462118E+02  0.20843245478E+03  0.75356071290E+02  0.22270465367E+03  0.00000000000E+00 0.  1.
         11    1    5    5    0    0 -0.51144591670E+02  0.59708260221E+01 -0.54940758781E+02  0.75298784823E+02  0.00000000000E+00 0. -1.
        -11    1    5    5    0    0  0.14678983623E+02  0.69566427012E+02 -0.55537026623E+02  0.90218189150E+02  0.00000000000E+00 0.  1.
          2    1    6    6  503    0 -0.31271395420E+02 -0.29265629255E+03  0.10265967912E+02  0.29450126628E+03  0.00000000000E+00 0. -1.
         -2    1    6    6    0  503  0.45539082832E+02 -0.43048786228E+03 -0.49573349290E+02  0.43571908909E+03  0.00000000000E+00 0.  1.
<mgrwt>
<rscale>  0 0.75037111E+03</rscale>
<asrwt>0</asrwt>
<pdfrwt beam="1">  1        1 0.11097307E+00 0.75037111E+03</pdfrwt>
<pdfrwt beam="2">  1       -1 0.14030299E+00 0.75037111E+03</pdfrwt>
<totfact> 0.11171386E+01</totfact>
</mgrwt>
</event>
<event>
12    1  0.1338445E-007  0.4503418E+03  0.7818608E-02  0.1027620E+00
          2   -1    0    0  501    0  0.00000000000E+00  0.00000000000E+00  0.67457278043E+03  0.67457278043E+03  0.00000000000E+00 0.  1.
         -2   -1    0    0    0  501 -0.00000000000E+00 -0.00000000000E+00 -0.53049597601E+03  0.53049597601E+03  0.00000000000E+00 0. -1.
         23    2    1    2    0    0  0.12340854498E+03 -0.26344511145E+03 -0.28067222420E+03  0.41443827457E+03  0.91373903657E+02 0.  0.
    5000000    2    1    2    0    0 -0.12340854498E+03  0.26344511145E+03  0.42474902862E+03  0.79063048187E+03  0.60004318664E+03 0.  0.
         23    2    4    4    0    0  0.18393447810E+03  0.19283638705E+03  0.36019941245E+03  0.45627478161E+03  0.86170152589E+02 0.  0.
         23    2    4    4    0    0 -0.30734302308E+03  0.70608724402E+02  0.64549616169E+02  0.33435570026E+03  0.90453057199E+02 0.  0.
          4    1    3    3  502    0  0.37512429380E+02 -0.12484472548E+03 -0.69779209829E+02  0.14785981862E+03  0.00000000000E+00 0. -1.
         -4    1    3    3    0  502  0.85896115600E+02 -0.13860038597E+03 -0.21089301437E+03  0.26657845595E+03  0.00000000000E+00 0.  1.
         13    1    5    5    0    0  0.18127011166E+03  0.20145985557E+03  0.34710794888E+03  0.44037354026E+03  0.00000000000E+00 0.  1.
        -13    1    5    5    0    0  0.26643664331E+01 -0.86234685206E+01  0.13091463572E+02  0.15901241344E+02  0.00000000000E+00 0. -1.
          3    1    6    6  503    0 -0.86311840003E+02 -0.19588137065E+02  0.28116191164E+02  0.92865219776E+02  0.00000000000E+00 0. -1.
         -3    1    6    6    0  503 -0.22103118307E+03  0.90196861467E+02  0.36433425004E+02  0.24149048049E+03  0.00000000000E+00 0.  1.
<mgrwt>
<rscale>  0 0.45034176E+03</rscale>
<asrwt>0</asrwt>
<pdfrwt beam="1">  1        2 0.10378043E+00 0.45034176E+03</pdfrwt>
<pdfrwt beam="2">  1       -2 0.81614765E-01 0.45034176E+03</pdfrwt>
<totfact> 0.59018145E+01</totfact>
</mgrwt>
</event>
<event>
12    1  0.1338445E-007  0.8234253E+03  0.7818608E-02  0.9526716E-01
         -1   -1    0    0    0  501 -0.00000000000E+00  0.00000000000E+00  0.51717148283E+03  0.51717148283E+03  0.00000000000E+00 0.  1.
          1   -1    0    0  501    0  0.00000000000E+00 -0.00000000000E+00 -0.21627762448E+04  0.21627762448E+04  0.00000000000E+00 0. -1.
         23    2    1    2    0    0  0.62085602777E+03  0.47901510955E+03 -0.14820282913E+04  0.16791962240E+04  0.91511857291E+02 0.  0.
    5000000    2    1    2    0    0 -0.62085602777E+03 -0.47901510955E+03 -0.16357647068E+03  0.10007515037E+04  0.59985717294E+03 0.  0.
         23    2    4    4    0    0 -0.20901714184E+03  0.50322562254E+01 -0.26707022681E+03  0.35061061123E+03  0.88813318088E+02 0.  0.
         23    2    4    4    0    0 -0.41183888592E+03 -0.48404736578E+03  0.10349375613E+03  0.65014089243E+03  0.89772502346E+02 0.  0.
          4    1    3    3  502    0  0.31177648743E+03  0.23585866968E+03 -0.83584770187E+03  0.92275417685E+03  0.00000000000E+00 0. -1.
         -4    1    3    3    0  502  0.30907954034E+03  0.24315643987E+03 -0.64618058940E+03  0.75644204711E+03  0.00000000000E+00 0.  1.
         11    1    5    5    0    0 -0.84484555901E+02  0.45712494524E+02 -0.11792534307E+03  0.15209753082E+03  0.00000000000E+00 0. -1.
        -11    1    5    5    0    0 -0.12453258594E+03 -0.40680238299E+02 -0.14914488374E+03  0.19851308041E+03  0.00000000000E+00 0.  1.
          2    1    6    6  503    0 -0.32887342316E+03 -0.39088532726E+03  0.11877671312E+03  0.52445874491E+03  0.00000000000E+00 0. -1.
         -2    1    6    6    0  503 -0.82965462760E+02 -0.93162038513E+02 -0.15282956988E+02  0.12568214752E+03  0.00000000000E+00 0.  1.
<mgrwt>
<rscale>  0 0.82342526E+03</rscale>
<asrwt>0</asrwt>
<pdfrwt beam="1">  1        1 0.33273480E+00 0.82342526E+03</pdfrwt>
<pdfrwt beam="2">  1       -1 0.79564844E-01 0.82342526E+03</pdfrwt>
<totfact> 0.37934000E+00</totfact>
</mgrwt>
</event>
<event>
12    1  0.1338445E-007  0.6132921E+03  0.7818608E-02  0.9878207E-01
         -2   -1    0    0    0  501 -0.00000000000E+00  0.00000000000E+00  0.62937388284E+03  0.62937388284E+03  0.00000000000E+00 0.  1.
          2   -1    0    0  501    0  0.00000000000E+00 -0.00000000000E+00 -0.85894529093E+03  0.85894529093E+03  0.00000000000E+00 0. -1.
         23    2    1    2    0    0  0.15210979437E+03 -0.58898029459E+03 -0.73565643128E+02  0.61945421874E+03  0.90974987278E+02 0.  0.
    5000000    2    1    2    0    0 -0.15210979437E+03  0.58898029459E+03 -0.15600576496E+03  0.86886495502E+03  0.60046093495E+03 0.  0.
         23    2    4    4    0    0 -0.11375390060E+03  0.37717395089E+03  0.19363368492E+03  0.44827230810E+03  0.90851082263E+02 0.  0.
         23    2    4    4    0    0 -0.38355893770E+02  0.21180634370E+03 -0.34963944988E+03  0.42059264692E+03  0.91199385481E+02 0.  0.
          3    1    3    3  502    0  0.71418304115E+02 -0.34035444195E+03  0.51496241252E+00  0.34776714265E+03  0.00000000000E+00 0. -1.
         -3    1    3    3    0  502  0.80691490254E+02 -0.24862585264E+03 -0.74080605540E+02  0.27168707609E+03  0.00000000000E+00 0.  1.
         11    1    5    5    0    0  0.83347164750E+01  0.10130693667E+02  0.20820531285E+02  0.24608798749E+02  0.00000000000E+00 0. -1.
        -11    1    5    5    0    0 -0.12208861707E+03  0.36704325722E+03  0.17281315363E+03  0.42366350935E+03  0.00000000000E+00 0.  1.
          1    1    6    6  503    0  0.23802035659E+01  0.67580984463E+02 -0.18978257373E+03  0.20147029587E+03  0.00000000000E+00 0. -1.
         -1    1    6    6    0  503 -0.40736097336E+02  0.14422535924E+03 -0.15985687615E+03  0.21912235104E+03  0.00000000000E+00 0.  1.
<mgrwt>
<rscale>  0 0.61329208E+03</rscale>
<asrwt>0</asrwt>
<pdfrwt beam="1">  1        2 0.13214543E+00 0.61329208E+03</pdfrwt>
<pdfrwt beam="2">  1       -2 0.96826752E-01 0.61329208E+03</pdfrwt>
<totfact> 0.28694484E+01</totfact>
</mgrwt>
</event>
<event>
12    1  0.1338445E-007  0.5416887E+03  0.7818608E-02  0.1003436E+00
         -3   -1    0    0    0  501 -0.00000000000E+00  0.00000000000E+00  0.49318092326E+03  0.49318092326E+03  0.00000000000E+00 0.  1.
          3   -1    0    0  501    0  0.00000000000E+00 -0.00000000000E+00 -0.72405094056E+03  0.72405094056E+03  0.00000000000E+00 0. -1.
         23    2    1    2    0    0  0.37027321607E+03 -0.77926961470E+02  0.14379870113E+03  0.41492704910E+03  0.91167558733E+02 0.  0.
    5000000    2    1    2    0    0 -0.37027321607E+03  0.77926961470E+02 -0.37466871843E+03  0.80230481471E+03  0.60011790615E+03 0.  0.
         23    2    4    4    0    0  0.65750149858E+02  0.21494037816E+03 -0.14411810774E+03  0.28241522327E+03  0.92010222179E+02 0.  0.
         23    2    4    4    0    0 -0.43602336593E+03 -0.13701341669E+03 -0.23055061069E+03  0.51988959144E+03  0.90788497110E+02 0.  0.
          4    1    3    3  502    0  0.32294078411E+03 -0.34188043469E+02  0.11842420616E+03  0.34566438197E+03  0.00000000000E+00 0.  1.
         -4    1    3    3    0  502  0.47332431964E+02 -0.43738918001E+02  0.25374494976E+02  0.69262667136E+02  0.00000000000E+00 0. -1.
         11    1    5    5    0    0 -0.62241730214E+01  0.10587213307E+03 -0.96337685908E+02  0.14327804653E+03  0.00000000000E+00 0. -1.
        -11    1    5    5    0    0  0.71974322879E+02  0.10906824509E+03 -0.47780421831E+02  0.13913717674E+03  0.00000000000E+00 0.  1.
          2    1    6    6  503    0 -0.25711895795E+03 -0.90755932653E+02 -0.18521073406E+03  0.32962071212E+03  0.00000000000E+00 0. -1.
         -2    1    6    6    0  503 -0.17890440798E+03 -0.46257484041E+02 -0.45339876634E+02  0.19026887932E+03  0.00000000000E+00 0.  1.
<mgrwt>
<rscale>  0 0.54168871E+03</rscale>
<asrwt>0</asrwt>
<pdfrwt beam="1">  1        3 0.11139245E+00 0.54168871E+03</pdfrwt>
<pdfrwt beam="2">  1       -3 0.75873989E-01 0.54168871E+03</pdfrwt>
<totfact> 0.28981839E+00</totfact>
</mgrwt>
</event>
<event>
12    1  0.1338445E-007  0.5069488E+03  0.7818608E-02  0.1011981E+00
          2   -1    0    0  501    0  0.00000000000E+00  0.00000000000E+00  0.60434666383E+03  0.60434666383E+03  0.00000000000E+00 0.  1.
         -2   -1    0    0    0  501 -0.00000000000E+00 -0.00000000000E+00 -0.45970794819E+03  0.45970794819E+03  0.00000000000E+00 0. -1.
         23    2    1    2    0    0 -0.26998792575E+03  0.21573215034E+03  0.18341085090E+01  0.35716900042E+03  0.90180320304E+02 0.  0.
    5000000    2    1    2    0    0  0.26998792575E+03 -0.21573215034E+03  0.14280460713E+03  0.70688561159E+03  0.59988354813E+03 0.  0.
         23    2    4    4    0    0  0.42208137930E+03 -0.26257323884E+03  0.71158316306E+02  0.51034789564E+03  0.91071796415E+02 0.  0.
         23    2    4    4    0    0 -0.15209345355E+03  0.46841088503E+02  0.71646290824E+02  0.19653771595E+03  0.90373539355E+02 0.  0.
          3    1    3    3  502    0 -0.21749872478E+03  0.19844585740E+03 -0.25477744130E+02  0.29552591942E+03  0.00000000000E+00 0. -1.
         -3    1    3    3    0  502 -0.52489200963E+02  0.17286292941E+02  0.27311852639E+02  0.61643081006E+02  0.00000000000E+00 0.  1.
         11    1    5    5    0    0  0.28618686465E+03 -0.22150836857E+03  0.68722407079E+02  0.36836347278E+03  0.00000000000E+00 0. -1.
        -11    1    5    5    0    0  0.13589451465E+03 -0.41064870271E+02  0.24359092267E+01  0.14198442286E+03  0.00000000000E+00 0.  1.
          4    1    6    6  503    0 -0.15196733350E+03  0.47858018312E+02  0.39201656494E+02  0.16407690343E+03  0.00000000000E+00 0. -1.
         -4    1    6    6    0  503 -0.12612005376E+00 -0.10169298093E+01  0.32444634329E+02  0.32460812517E+02  0.00000000000E+00 0.  1.
<mgrwt>
<rscale>  0 0.50694876E+03</rscale>
<asrwt>0</asrwt>
<pdfrwt beam="1">  1        2 0.92976410E-01 0.50694876E+03</pdfrwt>
<pdfrwt beam="2">  1       -2 0.70724299E-01 0.50694876E+03</pdfrwt>
<totfact> 0.91976161E+01</totfact>
</mgrwt>
</event>
<event>
12    1  0.1338445E-007  0.1170406E+04  0.7818608E-02  0.9139161E-01
         -1   -1    0    0    0  501 -0.00000000000E+00  0.00000000000E+00  0.14653311503E+04  0.14653311503E+04  0.00000000000E+00 0.  1.
          1   -1    0    0  501    0  0.00000000000E+00 -0.00000000000E+00 -0.10294787459E+04  0.10294787459E+04  0.00000000000E+00 0. -1.
         23    2    1    2    0    0  0.63622890210E+03  0.94996418368E+03  0.53498450949E+02  0.11481767092E+04  0.90711108125E+02 0.  0.
    5000000    2    1    2    0    0 -0.63622890210E+03 -0.94996418368E+03  0.38235395340E+03  0.13466331870E+04  0.60000602372E+03 0.  0.
         23    2    4    4    0    0 -0.34502143820E+02 -0.33464818619E+03  0.33043063999E+03  0.48001404735E+03  0.89717731534E+02 0.  0.
         23    2    4    4    0    0 -0.60172675828E+03 -0.61531599749E+03  0.51923313410E+02  0.86661913965E+03  0.87429024619E+02 0.  0.
          4    1    3    3  502    0  0.20924959842E+03  0.29045939125E+03  0.57113969496E+02  0.36251076937E+03  0.00000000000E+00 0. -1.
         -4    1    3    3    0  502  0.42697930368E+03  0.65950479244E+03 -0.36155185464E+01  0.78566593982E+03  0.00000000000E+00 0.  1.
         13    1    5    5    0    0 -0.54712814427E+01 -0.32942338768E+02  0.25362778586E+01  0.33489779179E+02  0.00000000000E+00 0. -1.
        -13    1    5    5    0    0 -0.29030862378E+02 -0.30170584743E+03  0.32789436213E+03  0.44652426817E+03  0.00000000000E+00 0.  1.
          1    1    6    6  503    0 -0.28602999679E+03 -0.29885475873E+03 -0.18566469570E+02  0.41409182517E+03  0.00000000000E+00 0. -1.
         -1    1    6    6    0  503 -0.31569676149E+03 -0.31646123876E+03  0.70489782980E+02  0.45252731448E+03  0.00000000000E+00 0.  1.
<mgrwt>
<rscale>  0 0.11704064E+04</rscale>
<asrwt>0</asrwt>
<pdfrwt beam="1">  1        1 0.15838135E+00 0.11704064E+04</pdfrwt>
<pdfrwt beam="2">  1       -1 0.22543556E+00 0.11704064E+04</pdfrwt>
<totfact> 0.14303817E+00</totfact>
</mgrwt>
</event>
<event>
12    1  0.1338445E-007  0.1235453E+04  0.7818608E-02  0.9082378E-01
          2   -1    0    0  501    0  0.00000000000E+00  0.00000000000E+00  0.16310570334E+04  0.16310570334E+04  0.00000000000E+00 0. -1.
         -2   -1    0    0    0  501 -0.00000000000E+00 -0.00000000000E+00 -0.15441021599E+04  0.15441021599E+04  0.00000000000E+00 0.  1.
         23    2    1    2    0    0 -0.12205293357E+04  0.54543041344E+02 -0.87750593525E+03  0.15069777801E+04  0.91096436806E+02 0.  0.
    5000000    2    1    2    0    0  0.12205293357E+04 -0.54543041344E+02  0.96446080882E+03  0.16681814132E+04  0.59998147714E+03 0.  0.
         23    2    4    4    0    0  0.11300951679E+04 -0.48359225588E+02  0.10227206437E+04  0.15275861637E+04  0.90045929500E+02 0.  0.
         23    2    4    4    0    0  0.90434167812E+02 -0.61838157565E+01 -0.58259834834E+02  0.14059524948E+03  0.90311890343E+02 0.  0.
          2    1    3    3  502    0 -0.70975727606E+03  0.15527774110E+02 -0.56096073205E+03  0.90480575020E+03  0.00000000000E+00 0. -1.
         -2    1    3    3    0  502 -0.51077205963E+03  0.39015267235E+02 -0.31654520320E+03  0.60217202994E+03  0.00000000000E+00 0.  1.
         13    1    5    5    0    0  0.10075679219E+04 -0.69867411982E+02  0.89900425761E+03  0.13521402396E+04  0.00000000000E+00 0. -1.
        -13    1    5    5    0    0  0.12252724601E+03  0.21508186394E+02  0.12371638604E+03  0.17544592407E+03  0.00000000000E+00 0.  1.
          4    1    6    6  503    0 -0.11642943138E+02  0.24186540684E+01  0.11592455784E+02  0.16607017899E+02  0.00000000000E+00 0.  1.
         -4    1    6    6    0  503  0.10207711095E+03 -0.86024698250E+01 -0.69852290617E+02  0.12398823158E+03  0.00000000000E+00 0. -1.
<mgrwt>
<rscale>  0 0.12354528E+04</rscale>
<asrwt>0</asrwt>
<pdfrwt beam="1">  1        2 0.25093185E+00 0.12354528E+04</pdfrwt>
<pdfrwt beam="2">  1       -2 0.23755418E+00 0.12354528E+04</pdfrwt>
<totfact> 0.79462652E-01</totfact>
</mgrwt>
</event>
<event>
12    1  0.1338445E-007  0.7163745E+03  0.7818608E-02  0.9689632E-01
          2   -1    0    0  501    0  0.00000000000E+00  0.00000000000E+00  0.38706566376E+03  0.38706566376E+03  0.00000000000E+00 0.  1.
         -2   -1    0    0    0  501 -0.00000000000E+00 -0.00000000000E+00 -0.17222374312E+04  0.17222374312E+04  0.00000000000E+00 0. -1.
         23    2    1    2    0    0  0.23154944952E+03 -0.55899393296E+03 -0.11672954704E+03  0.62247807441E+03  0.88112435634E+02 0.  0.
    5000000    2    1    2    0    0 -0.23154944952E+03  0.55899393296E+03 -0.12184422204E+04  0.14868250206E+04  0.59996485952E+03 0.  0.
         23    2    4    4    0    0  0.81407504033E+02  0.48013004104E+03 -0.88613716580E+03  0.10150668635E+04  0.89272743308E+02 0.  0.
         23    2    4    4    0    0 -0.31295695356E+03  0.78863891913E+02 -0.33230505462E+03  0.47175815710E+03  0.89261084681E+02 0.  0.
          2    1    3    3  502    0  0.23317841748E+03 -0.52067086936E+03 -0.94886566127E+02  0.57833708942E+03  0.00000000000E+00 0.  1.
         -2    1    3    3    0  502 -0.16289679536E+01 -0.38323063602E+02 -0.21842980915E+02  0.44140984988E+02  0.00000000000E+00 0. -1.
         13    1    5    5    0    0  0.49233538157E+02  0.81822456329E+02 -0.17087082238E+03  0.19574394903E+03  0.00000000000E+00 0.  1.
        -13    1    5    5    0    0  0.32173965876E+02  0.39830758472E+03 -0.71526634342E+03  0.81932291446E+03  0.00000000000E+00 0. -1.
          1    1    6    6  503    0 -0.22913890840E+03  0.85830460336E+02 -0.20517673200E+03  0.31932585022E+03  0.00000000000E+00 0. -1.
         -1    1    6    6    0  503 -0.83818045160E+02 -0.69665684226E+01 -0.12712832262E+03  0.15243230688E+03  0.00000000000E+00 0.  1.
<mgrwt>
<rscale>  0 0.71637449E+03</rscale>
<asrwt>0</asrwt>
<pdfrwt beam="1">  1        2 0.59548565E-01 0.71637449E+03</pdfrwt>
<pdfrwt beam="2">  1       -2 0.26495960E+00 0.71637449E+03</pdfrwt>
<totfact> 0.44498123E+00</totfact>
</mgrwt>
</event>
<event>
12    1  0.1338445E-007  0.1349606E+04  0.7818608E-02  0.8991126E-01
         -2   -1    0    0    0  501 -0.00000000000E+00  0.00000000000E+00  0.15271641058E+04  0.15271641058E+04  0.00000000000E+00 0.  1.
          2   -1    0    0  501    0  0.00000000000E+00 -0.00000000000E+00 -0.29778576434E+04  0.29778576434E+04  0.00000000000E+00 0. -1.
         23    2    1    2    0    0 -0.92880044187E+03  0.91293683872E+03 -0.24368461405E+04  0.27647243006E+04  0.96733726099E+02 0.  0.
    5000000    2    1    2    0    0  0.92880044187E+03 -0.91293683872E+03  0.98615260294E+03  0.17402974485E+04  0.60001193390E+03 0.  0.
         23    2    4    4    0    0  0.58821029400E+03 -0.24928598644E+03  0.26169470438E+03  0.69615053762E+03  0.89479605094E+02 0.  0.
         23    2    4    4    0    0  0.34059014787E+03 -0.66365085228E+03  0.72445789856E+03  0.10441469109E+04  0.94707033750E+02 0.  0.
          1    1    3    3  502    0 -0.34528732398E+03  0.28142445225E+03 -0.87402836371E+03  0.98099369978E+03  0.00000000000E+00 0. -1.
         -1    1    3    3    0  502 -0.58351311789E+03  0.63151238646E+03 -0.15628177768E+04  0.17837306008E+04  0.00000000000E+00 0.  1.
         11    1    5    5    0    0  0.43427049262E+02  0.74952890884E+00  0.37832831991E+01  0.43597977395E+02  0.00000000000E+00 0. -1.
        -11    1    5    5    0    0  0.54478324474E+03 -0.25003551535E+03  0.25791142118E+03  0.65255256023E+03  0.00000000000E+00 0.  1.
          3    1    6    6  503    0  0.26135246068E+01 -0.53649432245E+02  0.39704076885E+02  0.66794504357E+02  0.00000000000E+00 0. -1.
         -3    1    6    6    0  503  0.33797662326E+03 -0.61000142004E+03  0.68475382167E+03  0.97735240656E+03  0.00000000000E+00 0.  1.
<mgrwt>
<rscale>  0 0.13496060E+04</rscale>
<asrwt>0</asrwt>
<pdfrwt beam="1">  1        2 0.45813195E+00 0.13496060E+04</pdfrwt>
<pdfrwt beam="2">  1       -2 0.23494832E+00 0.13496060E+04</pdfrwt>
<totfact> 0.13750740E-01</totfact>
</mgrwt>
</event>
<event>
12    1  0.1338445E-007  0.7012925E+03  0.7818608E-02  0.9715024E-01
          2   -1    0    0  501    0  0.00000000000E+00  0.00000000000E+00  0.80036274544E+03  0.80036274544E+03  0.00000000000E+00 0. -1.
         -2   -1    0    0    0  501 -0.00000000000E+00 -0.00000000000E+00 -0.83106272125E+03  0.83106272125E+03  0.00000000000E+00 0.  1.
         23    2    1    2    0    0 -0.41382227709E+03 -0.48872433847E+03 -0.30111820453E+03  0.71320957761E+03  0.88855908474E+02 0.  0.
    5000000    2    1    2    0    0  0.41382227709E+03  0.48872433847E+03  0.27041822873E+03  0.91821588907E+03  0.59991169725E+03 0.  0.
         23    2    4    4    0    0 -0.57472347788E+02  0.58976388806E+02 -0.11459448149E+03  0.16771623601E+03  0.90639701215E+02 0.  0.
         23    2    4    4    0    0  0.47129462488E+03  0.42974794966E+03  0.38501271022E+03  0.75049965306E+03  0.90625705760E+02 0.  0.
          4    1    3    3  502    0 -0.64247667228E+02 -0.46638592981E+02 -0.13731797081E+02  0.80569742153E+02  0.00000000000E+00 0. -1.
         -4    1    3    3    0  502 -0.34957460986E+03 -0.44208574548E+03 -0.28738640745E+03  0.63263983546E+03  0.00000000000E+00 0.  1.
         13    1    5    5    0    0  0.12796658089E+02  0.49103668371E+02 -0.38705175848E+02  0.63820179748E+02  0.00000000000E+00 0.  1.
        -13    1    5    5    0    0 -0.70269005877E+02  0.98727204356E+01 -0.75889305644E+02  0.10389605626E+03  0.00000000000E+00 0. -1.
          3    1    6    6  503    0  0.19645805511E+03  0.17228047032E+03  0.20998997130E+03  0.33521950408E+03  0.00000000000E+00 0. -1.
         -3    1    6    6    0  503  0.27483656977E+03  0.25746747934E+03  0.17502273892E+03  0.41528014898E+03  0.00000000000E+00 0.  1.
<mgrwt>
<rscale>  0 0.70129245E+03</rscale>
<asrwt>0</asrwt>
<pdfrwt beam="1">  1        2 0.12313273E+00 0.70129245E+03</pdfrwt>
<pdfrwt beam="2">  1       -2 0.12785580E+00 0.70129245E+03</pdfrwt>
<totfact> 0.15908687E+01</totfact>
</mgrwt>
</event>
<event>
12    1  0.1338445E-007  0.7319077E+03  0.7818608E-02  0.9664170E-01
          2   -1    0    0  501    0  0.00000000000E+00  0.00000000000E+00  0.14049057275E+04  0.14049057275E+04  0.00000000000E+00 0. -1.
         -2   -1    0    0    0  501 -0.00000000000E+00 -0.00000000000E+00 -0.14028934634E+04  0.14028934634E+04  0.00000000000E+00 0.  1.
         23    2    1    2    0    0  0.65100145404E+03 -0.94849975888E+02 -0.11647115290E+04  0.13406883259E+04  0.89960160040E+02 0.  0.
    5000000    2    1    2    0    0 -0.65100145404E+03  0.94849975888E+02  0.11667237931E+04  0.14671108650E+04  0.59864051790E+03 0.  0.
         23    2    4    4    0    0 -0.55931997145E+03 -0.10507372096E+03  0.10591414712E+04  0.12057935576E+04  0.90984230104E+02 0.  0.
         23    2    4    4    0    0 -0.91681482595E+02  0.19992369685E+03  0.10758232184E+03  0.26131730738E+03  0.91311556499E+02 0.  0.
          3    1    3    3  502    0  0.53916148818E+03 -0.99084548629E+02 -0.90814871518E+03  0.10607765773E+04  0.00000000000E+00 0. -1.
         -3    1    3    3    0  502  0.11183996586E+03  0.42345727410E+01 -0.25656281381E+03  0.27991174859E+03  0.00000000000E+00 0.  1.
         11    1    5    5    0    0 -0.12989540399E+03  0.11798423426E+02  0.26844043412E+03  0.29844980390E+03  0.00000000000E+00 0.  1.
        -11    1    5    5    0    0 -0.42942456745E+03 -0.11687214439E+03  0.79070103710E+03  0.90734375368E+03  0.00000000000E+00 0. -1.
          4    1    6    6  503    0 -0.23082652685E+02  0.12306269548E+03  0.21448955117E+02  0.12703264757E+03  0.00000000000E+00 0. -1.
         -4    1    6    6    0  503 -0.68598829911E+02  0.76861001375E+02  0.86133366722E+02  0.13428465981E+03  0.00000000000E+00 0.  1.
<mgrwt>
<rscale>  0 0.73190770E+03</rscale>
<asrwt>0</asrwt>
<pdfrwt beam="1">  1        2 0.21613934E+00 0.73190770E+03</pdfrwt>
<pdfrwt beam="2">  1       -2 0.21582976E+00 0.73190770E+03</pdfrwt>
<totfact> 0.15659233E+00</totfact>
</mgrwt>
</event>
<event>
12    1  0.1338445E-007  0.2103372E+04  0.7818608E-02  0.8559759E-01
          2   -1    0    0  501    0  0.00000000000E+00  0.00000000000E+00  0.11878769677E+04  0.11878769677E+04  0.00000000000E+00 0. -1.
         -2   -1    0    0    0  501 -0.00000000000E+00 -0.00000000000E+00 -0.39697712199E+04  0.39697712199E+04  0.00000000000E+00 0.  1.
         23    2    1    2    0    0 -0.17416587866E+04 -0.11657198469E+04 -0.91936341158E+03  0.22903579686E+04  0.90732859230E+02 0.  0.
    5000000    2    1    2    0    0  0.17416587866E+04  0.11657198469E+04 -0.18625308406E+04  0.28672902189E+04  0.60004497902E+03 0.  0.
         23    2    4    4    0    0  0.30325419931E+03  0.10136865677E+03 -0.84027148919E+02  0.34297450218E+03  0.91281068229E+02 0.  0.
         23    2    4    4    0    0  0.14384045873E+04  0.10643511901E+04 -0.17785036917E+04  0.25243157167E+04  0.85107248148E+02 0.  0.
          4    1    3    3  502    0 -0.57867453244E+03 -0.43532105753E+03 -0.29952972672E+03  0.78363683860E+03  0.00000000000E+00 0. -1.
         -4    1    3    3    0  502 -0.11629842541E+04 -0.73039878935E+03 -0.61983368486E+03  0.15067211300E+04  0.00000000000E+00 0.  1.
         13    1    5    5    0    0  0.17950260190E+02  0.82126351391E+01  0.17255155695E+02  0.26218306865E+02  0.00000000000E+00 0. -1.
        -13    1    5    5    0    0  0.28530393912E+03  0.93156021631E+02 -0.10128230461E+03  0.31675619532E+03  0.00000000000E+00 0.  1.
          1    1    6    6  503    0  0.94645576748E+03  0.69244169331E+03 -0.11086517233E+04  0.16138037867E+04  0.00000000000E+00 0. -1.
         -1    1    6    6    0  503  0.49194881977E+03  0.37190949680E+03 -0.66985196842E+03  0.91051193000E+03  0.00000000000E+00 0.  1.
<mgrwt>
<rscale>  0 0.21033721E+04</rscale>
<asrwt>0</asrwt>
<pdfrwt beam="1">  1        2 0.18275030E+00 0.21033721E+04</pdfrwt>
<pdfrwt beam="2">  1       -2 0.61073404E+00 0.21033721E+04</pdfrwt>
<totfact> 0.76814184E-03</totfact>
</mgrwt>
</event>
<event>
12    1  0.1338445E-007  0.5361397E+03  0.7818608E-02  0.1004754E+00
         -1   -1    0    0    0  501 -0.00000000000E+00  0.00000000000E+00  0.46816106878E+03  0.46816106878E+03  0.00000000000E+00 0.  1.
          1   -1    0    0  501    0  0.00000000000E+00 -0.00000000000E+00 -0.89689550905E+03  0.89689550905E+03  0.00000000000E+00 0. -1.
         23    2    1    2    0    0 -0.10328699166E+03 -0.43022978575E+03 -0.42505773627E+03  0.61955568400E+03  0.86077263106E+02 0.  0.
    5000000    2    1    2    0    0  0.10328699166E+03  0.43022978575E+03 -0.36767040046E+01  0.74550089383E+03  0.59999349443E+03 0.  0.
         23    2    4    4    0    0  0.25996396117E+03  0.20998876277E+03  0.19609461325E+03  0.39762137282E+03  0.89292313102E+02 0.  0.
         23    2    4    4    0    0 -0.15667696951E+03  0.22024102298E+03 -0.19977131726E+03  0.34787952101E+03  0.89765254740E+02 0.  0.
          4    1    3    3  502    0 -0.92186228974E+02 -0.30065798132E+03 -0.34511641782E+03  0.46690348510E+03  0.00000000000E+00 0. -1.
         -4    1    3    3    0  502 -0.11100762688E+02 -0.12957180443E+03 -0.79941318442E+02  0.15265219891E+03  0.00000000000E+00 0.  1.
         13    1    5    5    0    0  0.11235538251E+03  0.14083180007E+03  0.77932582543E+02  0.19629267768E+03  0.00000000000E+00 0.  1.
        -13    1    5    5    0    0  0.14760857867E+03  0.69156962701E+02  0.11816203071E+03  0.20132869514E+03  0.00000000000E+00 0. -1.
          3    1    6    6  503    0 -0.15342056569E+03  0.15095958488E+03 -0.14532023256E+03  0.25970105166E+03  0.00000000000E+00 0. -1.
         -3    1    6    6    0  503 -0.32564038225E+01  0.69281438102E+02 -0.54451084703E+02  0.88178469349E+02  0.00000000000E+00 0.  1.
<mgrwt>
<rscale>  0 0.53613966E+03</rscale>
<asrwt>0</asrwt>
<pdfrwt beam="1">  1        1 0.13798392E+00 0.53613966E+03</pdfrwt>
<pdfrwt beam="2">  1       -1 0.72024781E-01 0.53613966E+03</pdfrwt>
<totfact> 0.37467044E+01</totfact>
</mgrwt>
</event>
<event>
12    1  0.1338445E-007  0.6779721E+03  0.7818608E-02  0.9755663E-01
         -1   -1    0    0    0  501 -0.00000000000E+00  0.00000000000E+00  0.24054802428E+03  0.24054802428E+03  0.00000000000E+00 0.  1.
          1   -1    0    0  501    0  0.00000000000E+00 -0.00000000000E+00 -0.26967595915E+04  0.26967595915E+04  0.00000000000E+00 0. -1.
         23    2    1    2    0    0 -0.56873478685E+03  0.20734078985E+03 -0.16676029438E+04  0.17764012843E+04  0.90843182712E+02 0.  0.
    5000000    2    1    2    0    0  0.56873478685E+03 -0.20734078985E+03 -0.78860862343E+03  0.11609063315E+04  0.59945849612E+03 0.  0.
         23    2    4    4    0    0  0.59395637637E+03 -0.75417901028E+02 -0.79470731801E+03  0.99894888011E+03  0.88696713329E+02 0.  0.
         23    2    4    4    0    0 -0.25221589515E+02 -0.13192288882E+03  0.60986945822E+01  0.16195745135E+03  0.90295319921E+02 0.  0.
          3    1    3    3  502    0 -0.40475407586E+02  0.86430573712E+00 -0.17618743133E+03  0.18077891637E+03  0.00000000000E+00 0. -1.
         -3    1    3    3    0  502 -0.52825937927E+03  0.20647648411E+03 -0.14914155125E+04  0.15956223680E+04  0.00000000000E+00 0.  1.
         13    1    5    5    0    0  0.45492004330E+02 -0.21481863051E+02 -0.39114403992E+02  0.63725422696E+02  0.00000000000E+00 0.  1.
        -13    1    5    5    0    0  0.54846437204E+03 -0.53936037977E+02 -0.75559291402E+03  0.93522345742E+03  0.00000000000E+00 0. -1.
          1    1    6    6  503    0 -0.42190070559E+02 -0.62576878534E+02  0.37133621053E+02  0.84111673348E+02  0.00000000000E+00 0. -1.
         -1    1    6    6    0  503  0.16968481045E+02 -0.69346010286E+02 -0.31034926471E+02  0.77845778001E+02  0.00000000000E+00 0.  1.
<mgrwt>
<rscale>  0 0.67797207E+03</rscale>
<asrwt>0</asrwt>
<pdfrwt beam="1">  1        1 0.41488606E+00 0.67797207E+03</pdfrwt>
<pdfrwt beam="2">  1       -1 0.37007391E-01 0.67797207E+03</pdfrwt>
<totfact> 0.74302621E+00</totfact>
</mgrwt>
</event>
<event>
12    1  0.1338445E-007  0.6389367E+03  0.7818608E-02  0.9827763E-01
         -1   -1    0    0    0  501 -0.00000000000E+00  0.00000000000E+00  0.10108778087E+04  0.10108778087E+04  0.00000000000E+00 0.  1.
          1   -1    0    0  501    0  0.00000000000E+00 -0.00000000000E+00 -0.83594784803E+03  0.83594784803E+03  0.00000000000E+00 0. -1.
         23    2    1    2    0    0  0.44493528693E+03  0.23839619320E+03 -0.56892331226E+03  0.76603292659E+03  0.91282829092E+02 0.  0.
    5000000    2    1    2    0    0 -0.44493528693E+03 -0.23839619320E+03  0.74385327291E+03  0.10807927301E+04  0.59999589948E+03 0.  0.
         23    2    4    4    0    0 -0.50449632859E+03 -0.35623698198E+03  0.59013289220E+03  0.85899478365E+03  0.90520025349E+02 0.  0.
         23    2    4    4    0    0  0.59561041658E+02  0.11784078878E+03  0.15372038071E+03  0.22179794648E+03  0.90168755313E+02 0.  0.
          2    1    3    3  502    0  0.34001921669E+03  0.16957369271E+03 -0.36673369709E+03  0.52807377284E+03  0.00000000000E+00 0. -1.
         -2    1    3    3    0  502  0.10491607025E+03  0.68822500485E+02 -0.20218961517E+03  0.23795915375E+03  0.00000000000E+00 0.  1.
         11    1    5    5    0    0 -0.23239033265E+03 -0.17338016291E+03  0.21604729213E+03  0.36158315784E+03  0.00000000000E+00 0.  1.
        -11    1    5    5    0    0 -0.27210599594E+03 -0.18285681907E+03  0.37408560007E+03  0.49741162581E+03  0.00000000000E+00 0. -1.
          1    1    6    6  503    0 -0.17400208960E+02  0.50573031451E+01  0.40695478775E+02  0.44547340882E+02  0.00000000000E+00 0. -1.
         -1    1    6    6    0  503  0.76961250618E+02  0.11278348563E+03  0.11302490193E+03  0.17725060560E+03  0.00000000000E+00 0.  1.
<mgrwt>
<rscale>  0 0.63893667E+03</rscale>
<asrwt>0</asrwt>
<pdfrwt beam="1">  1        1 0.12860736E+00 0.63893667E+03</pdfrwt>
<pdfrwt beam="2">  1       -1 0.15551966E+00 0.63893667E+03</pdfrwt>
<totfact> 0.68469392E+00</totfact>
</mgrwt>
</event>
<event>
12    1  0.1338445E-007  0.1096936E+04  0.7818608E-02  0.9208183E-01
          2   -1    0    0  501    0  0.00000000000E+00  0.00000000000E+00  0.16149991479E+04  0.16149991479E+04  0.00000000000E+00 0. -1.
         -2   -1    0    0    0  501 -0.00000000000E+00 -0.00000000000E+00 -0.26181464824E+04  0.26181464824E+04  0.00000000000E+00 0.  1.
         23    2    1    2    0    0  0.81937545716E+03 -0.70982037390E+03 -0.22351431162E+04  0.24858593533E+04  0.91710801751E+02 0.  0.
    5000000    2    1    2    0    0 -0.81937545716E+03  0.70982037390E+03  0.12319957818E+04  0.17472862770E+04  0.59997885337E+03 0.  0.
         23    2    4    4    0    0 -0.23243753212E+03  0.12611143854E+03  0.24870761161E+02  0.28070770396E+03  0.90812769092E+02 0.  0.
         23    2    4    4    0    0 -0.58693792504E+03  0.58370893536E+03  0.12071250206E+04  0.14665785730E+04  0.92139277479E+02 0.  0.
          2    1    3    3  502    0  0.61383118512E+03 -0.53246948663E+03 -0.15805544425E+04  0.17772070290E+04  0.00000000000E+00 0. -1.
         -2    1    3    3    0  502  0.20554427204E+03 -0.17735088727E+03 -0.65458867371E+03  0.70865232430E+03  0.00000000000E+00 0.  1.
         11    1    5    5    0    0 -0.20945771611E+03  0.73573534626E+02  0.24608905918E+02  0.22336337678E+03  0.00000000000E+00 0. -1.
        -11    1    5    5    0    0 -0.22979816018E+02  0.52537903915E+02  0.26185524279E+00  0.57344327184E+02  0.00000000000E+00 0.  1.
          3    1    6    6  503    0 -0.44472925363E+03  0.40017416437E+03  0.81770452967E+03  0.10131950299E+04  0.00000000000E+00 0. -1.
         -3    1    6    6    0  503 -0.14220867141E+03  0.18353477099E+03  0.38942049095E+03  0.45338354311E+03  0.00000000000E+00 0.  1.
<mgrwt>
<rscale>  0 0.10969364E+04</rscale>
<asrwt>0</asrwt>
<pdfrwt beam="1">  1        2 0.24846141E+00 0.10969364E+04</pdfrwt>
<pdfrwt beam="2">  1       -2 0.40279177E+00 0.10969364E+04</pdfrwt>
<totfact> 0.77917412E-02</totfact>
</mgrwt>
</event>
<event>
12    1  0.1338445E-007  0.1700237E+04  0.7818608E-02  0.8761229E-01
          2   -1    0    0  501    0  0.00000000000E+00  0.00000000000E+00  0.15243179732E+04  0.15243179732E+04  0.00000000000E+00 0. -1.
         -2   -1    0    0    0  501 -0.00000000000E+00 -0.00000000000E+00 -0.21147889828E+04  0.21147889828E+04  0.00000000000E+00 0.  1.
         23    2    1    2    0    0 -0.51727622540E+03 -0.15820391957E+04  0.24057027590E+03  0.16843583737E+04  0.93628859539E+02 0.  0.
    5000000    2    1    2    0    0  0.51727622540E+03  0.15820391957E+04 -0.83104128552E+03  0.19547485823E+04  0.59999140963E+03 0.  0.
         23    2    4    4    0    0  0.41559780748E+03  0.54613046474E+03 -0.51489834451E+03  0.86310669443E+03  0.94089524893E+02 0.  0.
         23    2    4    4    0    0  0.10167841792E+03  0.10359087310E+04 -0.31614294101E+03  0.10916418879E+04  0.91050824375E+02 0.  0.
          3    1    3    3  502    0 -0.23193233508E+03 -0.57525084937E+03  0.71713218179E+02  0.62437883806E+03  0.00000000000E+00 0. -1.
         -3    1    3    3    0  502 -0.28534389032E+03 -0.10067883463E+04  0.16885705772E+03  0.10599795357E+04  0.00000000000E+00 0.  1.
         11    1    5    5    0    0  0.44087306665E+02  0.27463757660E+02 -0.19971091325E+02  0.55648837207E+02  0.00000000000E+00 0.  1.
        -11    1    5    5    0    0  0.37151050082E+03  0.51866670708E+03 -0.49492725319E+03  0.80745785723E+03  0.00000000000E+00 0. -1.
          4    1    6    6  503    0  0.15655496512E+02  0.56061385099E+03 -0.19378763465E+03  0.59336888344E+03  0.00000000000E+00 0. -1.
         -4    1    6    6    0  503  0.86022921403E+02  0.47529487999E+03 -0.12235530635E+03  0.49827300443E+03  0.00000000000E+00 0.  1.
<mgrwt>
<rscale>  0 0.17002372E+04</rscale>
<asrwt>0</asrwt>
<pdfrwt beam="1">  1        2 0.23451046E+00 0.17002372E+04</pdfrwt>
<pdfrwt beam="2">  1       -2 0.32535215E+00 0.17002372E+04</pdfrwt>
<totfact> 0.25148419E-01</totfact>
</mgrwt>
</event>
<event>
12    1  0.1338445E-007  0.3727672E+03  0.7818608E-02  0.1053640E+00
          1   -1    0    0  501    0  0.00000000000E+00  0.00000000000E+00  0.36606994749E+03  0.36606994749E+03  0.00000000000E+00 0. -1.
         -1   -1    0    0    0  501 -0.00000000000E+00 -0.00000000000E+00 -0.83539082334E+03  0.83539082334E+03  0.00000000000E+00 0.  1.
         23    2    1    2    0    0  0.32542346152E+03 -0.15044000965E+03 -0.31572107681E+03  0.48573044235E+03  0.87872854020E+02 0.  0.
    5000000    2    1    2    0    0 -0.32542346152E+03  0.15044000965E+03 -0.15359979904E+03  0.71573032848E+03  0.60012030380E+03 0.  0.
         23    2    4    4    0    0 -0.11189717966E+03  0.47589449326E+01  0.21415488747E+03  0.25668786133E+03  0.86502693323E+02 0.  0.
         23    2    4    4    0    0 -0.21352628186E+03  0.14568106472E+03 -0.36775468651E+03  0.45904246716E+03  0.93059290461E+02 0.  0.
          2    1    3    3  502    0  0.45366847453E+02 -0.50186850913E+02 -0.88601624621E+02  0.11147698748E+03  0.00000000000E+00 0. -1.
         -2    1    3    3    0  502  0.28005661407E+03 -0.10025315874E+03 -0.22711945218E+03  0.37425345487E+03  0.00000000000E+00 0.  1.
         13    1    5    5    0    0 -0.11994602148E+02 -0.52654254367E+01 -0.62327874832E+01  0.14506647633E+02  0.00000000000E+00 0. -1.
        -13    1    5    5    0    0 -0.99902577515E+02  0.10024370369E+02  0.22038767495E+03  0.24218121369E+03  0.00000000000E+00 0.  1.
          1    1    6    6  503    0 -0.18887132797E+02 -0.63658055643E+01 -0.66823428450E+02  0.69732473466E+02  0.00000000000E+00 0. -1.
         -1    1    6    6    0  503 -0.19463914906E+03  0.15204687028E+03 -0.30093125806E+03  0.38930999369E+03  0.00000000000E+00 0.  1.
<mgrwt>
<rscale>  0 0.37276719E+03</rscale>
<asrwt>0</asrwt>
<pdfrwt beam="1">  1        1 0.56318454E-01 0.37276719E+03</pdfrwt>
<pdfrwt beam="2">  1       -1 0.12852166E+00 0.37276719E+03</pdfrwt>
<totfact> 0.37723282E+01</totfact>
</mgrwt>
</event>
<event>
12    1  0.1338445E-007  0.7561197E+03  0.7818608E-02  0.9625798E-01
         -1   -1    0    0    0  501 -0.00000000000E+00  0.00000000000E+00  0.42602976101E+03  0.42602976101E+03  0.00000000000E+00 0.  1.
          1   -1    0    0  501    0  0.00000000000E+00 -0.00000000000E+00 -0.14368761441E+04  0.14368761441E+04  0.00000000000E+00 0. -1.
         23    2    1    2    0    0  0.60872043556E+03 -0.25704538425E+03 -0.35171881279E+03  0.75329303720E+03  0.84447489011E+02 0.  0.
    5000000    2    1    2    0    0 -0.60872043556E+03  0.25704538425E+03 -0.65912757030E+03  0.11096128679E+04  0.60014886859E+03 0.  0.
         23    2    4    4    0    0 -0.46968056836E+03  0.40732986054E+03 -0.32293613199E+03  0.70581475383E+03  0.85844451145E+02 0.  0.
         23    2    4    4    0    0 -0.13903986720E+03 -0.15028447629E+03 -0.33619143831E+03  0.40379811408E+03  0.90059565066E+02 0.  0.
          4    1    3    3  502    0  0.49509148165E+03 -0.17904149423E+03 -0.25543052089E+03  0.58516338134E+03  0.00000000000E+00 0.  1.
         -4    1    3    3    0  502  0.11362895391E+03 -0.78003890019E+02 -0.96288291897E+02  0.16812965586E+03  0.00000000000E+00 0. -1.
         11    1    5    5    0    0 -0.11151541329E+03  0.14765938613E+03 -0.87701178122E+02  0.20476932963E+03  0.00000000000E+00 0.  1.
        -11    1    5    5    0    0 -0.35816515506E+03  0.25967047441E+03 -0.23523495387E+03  0.50104542419E+03  0.00000000000E+00 0. -1.
          1    1    6    6  503    0 -0.11371487518E+03 -0.63787147351E+02 -0.23117652052E+03  0.26540997842E+03  0.00000000000E+00 0. -1.
         -1    1    6    6    0  503 -0.25324992021E+02 -0.86497328941E+02 -0.10501491779E+03  0.13838813566E+03  0.00000000000E+00 0.  1.
<mgrwt>
<rscale>  0 0.75611973E+03</rscale>
<asrwt>0</asrwt>
<pdfrwt beam="1">  1        1 0.22105787E+00 0.75611973E+03</pdfrwt>
<pdfrwt beam="2">  1       -1 0.65543041E-01 0.75611973E+03</pdfrwt>
<totfact> 0.17656667E+01</totfact>
</mgrwt>
</event>
<event>
12    1  0.1338445E-007  0.7881366E+03  0.7818608E-02  0.9577349E-01
         -1   -1    0    0    0  501 -0.00000000000E+00  0.00000000000E+00  0.38870847012E+03  0.38870847012E+03  0.00000000000E+00 0.  1.
          1   -1    0    0  501    0  0.00000000000E+00 -0.00000000000E+00 -0.18708522078E+04  0.18708522078E+04  0.00000000000E+00 0. -1.
         23    2    1    2    0    0 -0.39093213359E+02  0.72845000144E+03 -0.45701388848E+03  0.86560181033E+03  0.90758558057E+02 0.  0.
    5000000    2    1    2    0    0  0.39093213359E+02 -0.72845000144E+03 -0.10251298492E+04  0.13939588676E+04  0.60005202514E+03 0.  0.
         23    2    4    4    0    0  0.12802188261E+03 -0.73722732130E+03 -0.64226614156E+03  0.99033128475E+03  0.91414064908E+02 0.  0.
         23    2    4    4    0    0 -0.88928669249E+02  0.87773198667E+01 -0.38286370761E+03  0.40362758281E+03  0.91352380603E+02 0.  0.
          3    1    3    3  502    0 -0.22483323876E+02  0.49973510173E+03 -0.26267413406E+03  0.56501183391E+03  0.00000000000E+00 0.  1.
         -3    1    3    3    0  502 -0.16609889483E+02  0.22871489971E+03 -0.19433975442E+03  0.30058997642E+03  0.00000000000E+00 0. -1.
         13    1    5    5    0    0  0.12580196853E+03 -0.51877750598E+03 -0.42637396406E+03  0.68319176899E+03  0.00000000000E+00 0. -1.
        -13    1    5    5    0    0  0.22199140804E+01 -0.21844981533E+03 -0.21589217750E+03  0.30713951576E+03  0.00000000000E+00 0.  1.
          1    1    6    6  503    0 -0.55819006933E+02 -0.95004633177E+01 -0.77769913904E+02  0.96198647844E+02  0.00000000000E+00 0.  1.
         -1    1    6    6    0  503 -0.33109662316E+02  0.18277783184E+02 -0.30509379371E+03  0.30742893497E+03  0.00000000000E+00 0. -1.
<mgrwt>
<rscale>  0 0.78813663E+03</rscale>
<asrwt>0</asrwt>
<pdfrwt beam="1">  1        1 0.28782342E+00 0.78813663E+03</pdfrwt>
<pdfrwt beam="2">  1       -1 0.59801303E-01 0.78813663E+03</pdfrwt>
<totfact> 0.10726167E+01</totfact>
</mgrwt>
</event>
<event>
12    1  0.1338445E-007  0.1349225E+04  0.7818608E-02  0.8991415E-01
         -1   -1    0    0    0  501 -0.00000000000E+00  0.00000000000E+00  0.86732087586E+03  0.86732087586E+03  0.00000000000E+00 0.  1.
          1   -1    0    0  501    0  0.00000000000E+00 -0.00000000000E+00 -0.24824553307E+04  0.24824553307E+04  0.00000000000E+00 0. -1.
         23    2    1    2    0    0  0.70520455220E+03  0.11253331910E+04 -0.12961468251E+04  0.18579916950E+04  0.91914608946E+02 0.  0.
    5000000    2    1    2    0    0 -0.70520455220E+03 -0.11253331910E+04 -0.31898762977E+03  0.14917845116E+04  0.59998305800E+03 0.  0.
         23    2    4    4    0    0  0.30237010257E+01 -0.19018033893E+03  0.11146405769E+03  0.23852500065E+03  0.91061713685E+02 0.  0.
         23    2    4    4    0    0 -0.70822825323E+03 -0.93515285204E+03 -0.43045168746E+03  0.12532595109E+04  0.96294502085E+02 0.  0.
          2    1    3    3  502    0  0.12875446990E+03  0.24924774793E+03 -0.31574139651E+03  0.42236806560E+03  0.00000000000E+00 0. -1.
         -2    1    3    3    0  502  0.57645008230E+03  0.87608544304E+03 -0.98040542855E+03  0.14356236294E+04  0.00000000000E+00 0.  1.
         11    1    5    5    0    0  0.88011125310E+01 -0.18712935434E+02  0.53623275327E+02  0.57472508134E+02  0.00000000000E+00 0.  1.
        -11    1    5    5    0    0 -0.57774115053E+01 -0.17146740349E+03  0.57840782358E+02  0.18105249252E+03  0.00000000000E+00 0. -1.
          2    1    6    6  503    0 -0.45991204780E+03 -0.52975201647E+03 -0.24970966808E+03  0.74465509398E+03  0.00000000000E+00 0. -1.
         -2    1    6    6    0  503 -0.24831620543E+03 -0.40540083557E+03 -0.18074201938E+03  0.50860441694E+03  0.00000000000E+00 0.  1.
<mgrwt>
<rscale>  0 0.13492253E+04</rscale>
<asrwt>0</asrwt>
<pdfrwt beam="1">  1        1 0.38191619E+00 0.13492253E+04</pdfrwt>
<pdfrwt beam="2">  1       -1 0.13343398E+00 0.13492253E+04</pdfrwt>
<totfact> 0.64052543E-01</totfact>
</mgrwt>
</event>
<event>
12    1  0.1338445E-007  0.1177380E+04  0.7818608E-02  0.9132890E-01
         -2   -1    0    0    0  501 -0.00000000000E+00  0.00000000000E+00  0.18428740837E+04  0.18428740837E+04  0.00000000000E+00 0.  1.
          2   -1    0    0  501    0  0.00000000000E+00 -0.00000000000E+00 -0.91230124041E+03  0.91230124041E+03  0.00000000000E+00 0. -1.
         23    2    1    2    0    0 -0.12244346829E+03  0.11638325870E+04  0.52509598850E+02  0.11744036786E+04  0.83474838913E+02 0.  0.
    5000000    2    1    2    0    0  0.12244346829E+03 -0.11638325870E+04  0.87806324444E+03  0.15807716456E+04  0.59861944559E+03 0.  0.
         23    2    4    4    0    0  0.67969571447E+02 -0.45556922153E+03  0.69965607459E+03  0.84284170233E+03  0.93275582164E+02 0.  0.
         23    2    4    4    0    0  0.54473896848E+02 -0.70826336548E+03  0.17840716985E+03  0.73792994322E+03  0.90039338800E+02 0.  0.
          3    1    3    3  502    0 -0.81647544593E+02  0.95904073558E+03  0.68717556014E+02  0.96495987303E+03  0.00000000000E+00 0. -1.
         -3    1    3    3    0  502 -0.40795923702E+02  0.20479185142E+03 -0.16207957163E+02  0.20944380553E+03  0.00000000000E+00 0.  1.
         11    1    5    5    0    0  0.24372302565E+02 -0.37567388866E+03  0.52683114875E+03  0.64751520372E+03  0.00000000000E+00 0.  1.
        -11    1    5    5    0    0  0.43597268882E+02 -0.79895332871E+02  0.17282492584E+03  0.19532649862E+03  0.00000000000E+00 0. -1.
          3    1    6    6  503    0  0.11503182451E+02 -0.71909872554E+01  0.18500737221E+01  0.13691467306E+02  0.00000000000E+00 0. -1.
         -3    1    6    6    0  503  0.42970714397E+02 -0.70107237822E+03  0.17655709613E+03  0.72423847592E+03  0.00000000000E+00 0.  1.
<mgrwt>
<rscale>  0 0.11773799E+04</rscale>
<asrwt>0</asrwt>
<pdfrwt beam="1">  1        2 0.14035404E+00 0.11773799E+04</pdfrwt>
<pdfrwt beam="2">  1       -2 0.28351909E+00 0.11773799E+04</pdfrwt>
<totfact> 0.11300842E+00</totfact>
</mgrwt>
</event>
